 Gaussian 16, Revision A.03,
 Gaussian 16:  ES64L-G16RevA.03 25-Dec-2016

 ----------------------------------------------------------------------
 # wB97XD def2tzvp, opt=(ts, noeigen, calcfc, maxcycles=70, maxstep=3),
  freq=noraman, scrf=(iefpcm, solvent=water)
 ----------------------------------------------------------------------

 ------------------------
 0_iteration/TS-165-0.out
 ------------------------
 Symbolic Z-matrix:
 Charge =  0 Multiplicity = 1

 SCF Done:  E(RwB97XD) =  -1304.19404265     A.U. after   15 cycles
 Optimization completed.
    -- Stationary point found.
 Normal termination of Gaussian 16 at Wed Apr 14 05:52:27 2021.

 ---------------------------------------------------------------------
 #N Geom=AllCheck Guess=TCheck SCRF=Check GenChk RwB97XD/def2TZVP Freq
 ---------------------------------------------------------------------

 Structure from the checkpoint file:  "/beegfs/scratch/user/q/tla25/Gau-204132.chk"
 ------------------------
 0_iteration/TS-165-0.out
 ------------------------
 Charge =  0 Multiplicity = 1

                         Standard orientation:
 ---------------------------------------------------------------------
 Center     Atomic      Atomic             Coordinates (Angstroms)
 Number     Number       Type             X           Y           Z
 ---------------------------------------------------------------------
      1          6           0       -0.864900   -0.189389   -0.167090
      2          6           0       -2.243911   -0.665877   -0.131590
      3          8           0       -2.556422   -1.832676    0.167110
      4          6           0        0.174289   -1.111800   -0.217790
      5          6           0       -0.164422   -1.682500    2.594810
      6          1           0       -0.736523   -2.297489    3.290610
      7          1           0        0.817388   -1.483311    3.017210
      8          1           0       -0.696911   -0.738189    2.450710
      9          7           0       -0.037023   -2.326000    1.300510
     10          1           0        0.670366   -3.048911    1.271610
     11          1           0       -0.939734   -2.681089    0.988610
     12          6           0        1.600489   -0.669013   -0.091890
     13          6           0        2.585189   -1.018924   -1.009590
     14          6           0        3.887290   -0.560936   -0.863290
     15          6           0        4.230901    0.244354    0.209410
     16          6           0        3.258111    0.594565    1.135810
     17          6           0        1.958901    0.145977    0.984310
     18          1           0        2.338078   -1.644624   -1.854190
     19          1           0        4.633789   -0.839347   -1.596190
     20          1           0        5.247401    0.598642    0.324110
     21          1           0        3.509812    1.224865    1.979210
     22          1           0        1.210901    0.451088    1.700610
     23         17           0       -0.001223   -2.494700   -1.409490
     24          6           0       -0.596488    1.273711   -0.157990
     25          6           0        0.112823    1.881200   -1.195890
     26          6           0        0.376735    3.242499   -1.187490
     27          6           0       -0.085354    4.036400   -0.147790
     28          6           0       -0.812764    3.454711    0.881810
     29          6           0       -1.059776    2.090911    0.876310
     30          1           0        0.469312    1.270099   -2.016090
     31          1           0        0.937836    3.685588   -2.000990
     32          1           0        0.115858    5.100200   -0.140990
     33          1           0       -1.178454    4.063512    1.699610
     34          1           0       -1.613587    1.643722    1.693910
     35          7           0       -3.219799    0.228235   -0.423790
     36          6           0       -4.620300   -0.097153   -0.311490
     37          1           0       -2.959088    1.163634   -0.676190
     38          1           0       -5.202088    0.799658   -0.513490
     39          1           0       -4.912111   -0.870243   -1.025390
     40          1           0       -4.863200   -0.454543    0.691310
 ---------------------------------------------------------------------

 SCF Done:  E(RwB97XD) =  -1304.19404265     A.U. after    1 cycles

 The electronic state is 1-A.
 Alpha  occ. eigenvalues -- -101.68416 -19.20304 -14.47224 -14.44564 -10.39957
 Alpha  occ. eigenvalues --  -10.37620 -10.31257 -10.31197 -10.30657 -10.30028
 Alpha  occ. eigenvalues --  -10.29507 -10.29418 -10.29389 -10.29274 -10.29251
 Alpha  occ. eigenvalues --  -10.28812 -10.28749 -10.28653 -10.28549 -10.28458
 Alpha  occ. eigenvalues --  -10.26687  -9.57036  -7.31637  -7.30838  -7.30802
 Alpha  occ. eigenvalues --   -1.12875  -1.03408  -1.01297  -0.98297  -0.96380
 Alpha  occ. eigenvalues --   -0.94758  -0.88950  -0.86286  -0.85473  -0.84776
 Alpha  occ. eigenvalues --   -0.82259  -0.79831  -0.78271  -0.73387  -0.70857
 Alpha  occ. eigenvalues --   -0.70093  -0.69566  -0.67840  -0.65687  -0.62894
 Alpha  occ. eigenvalues --   -0.61725  -0.61001  -0.58208  -0.56982  -0.56285
 Alpha  occ. eigenvalues --   -0.55369  -0.54879  -0.54413  -0.53588  -0.53310
 Alpha  occ. eigenvalues --   -0.52441  -0.51744  -0.51292  -0.50551  -0.49754
 Alpha  occ. eigenvalues --   -0.48600  -0.47818  -0.47516  -0.47074  -0.46563
 Alpha  occ. eigenvalues --   -0.45921  -0.44848  -0.43612  -0.42835  -0.42636
 Alpha  occ. eigenvalues --   -0.42384  -0.39199  -0.38280  -0.35480  -0.34275
 Alpha  occ. eigenvalues --   -0.34034  -0.33504  -0.33062  -0.32487  -0.26542
 Alpha virt. eigenvalues --    0.01321   0.04397   0.05374   0.05851   0.08035
 Alpha virt. eigenvalues --    0.08731   0.10949   0.12657   0.13160   0.13705
 Alpha virt. eigenvalues --    0.13936   0.14599   0.15935   0.16304   0.16650

 Mulliken charges:
               1
     1  C   -0.295240
     2  C    0.380752
     3  O   -0.576615
     4  C    0.311784
     5  C   -0.315551
     6  H    0.157112
     7  H    0.160094
     8  H    0.144149
     9  N   -0.307597
    10  H    0.275551
    11  H    0.275552
    12  C    0.103922
    13  C   -0.246654
    14  C   -0.134368
    15  C   -0.137182
    16  C   -0.169116
    17  C   -0.259467
    18  H    0.138645
    19  H    0.143655
    20  H    0.145242
    21  H    0.142539
    22  H    0.190104
    23  Cl  -0.163935
    24  C    0.156073
    25  C   -0.197152
    26  C   -0.174908
    27  C   -0.135346
    28  C   -0.126192
    29  C   -0.290791
    30  H    0.142700
    31  H    0.137327
    32  H    0.141643
    33  H    0.139542
    34  H    0.149879
    35  N   -0.302410
    36  C   -0.257819
    37  H    0.262793
    38  H    0.140032
    39  H    0.125531
    40  H    0.125721
 Sum of Mulliken charges =  -0.00000

 Dipole moment (field-independent basis, Debye):
    X=              2.7489    Y=              2.2787    Z=              3.8647  Tot=              5.2616
 Quadrupole moment (field-independent basis, Debye-Ang):
   XX=           -121.4687   YY=           -127.0820   ZZ=           -121.5355
   XY=            -11.1582   XZ=             -1.7449   YZ=             -6.2492

  Exact polarizability: 352.413   4.356 346.242 -19.345  14.759 292.893
 Approx polarizability: 268.046   7.124 276.933 -18.969  15.510 253.019

 ******    1 imaginary frequencies (negative Signs) ******

                      1                      2                      3
                      A                      A                      A
 Frequencies --   -375.8837                39.2099                41.8184
 Red. masses --      5.9843                 4.7736                 4.6144
 Frc consts  --      0.4982                 0.0043                 0.0048
 IR Inten    --    596.3382                 0.2547                 0.7659

                      4                      5                      6
                      A                      A                      A
 Frequencies --     60.6013                67.2279                71.4527
 Red. masses --      3.5083                 4.1108                 3.8265
 Frc consts  --      0.0076                 0.0109                 0.0115
 IR Inten    --      1.9177                 8.1176                 2.4894

                      7                      8                      9
                      A                      A                      A
 Frequencies --     84.8401                98.9756               113.7482
 Red. masses --      2.9396                 1.8712                 2.8032
 Frc consts  --      0.0125                 0.0108                 0.0214
 IR Inten    --      2.3777                 0.2125                 2.4144

                     10                     11                     12
                      A                      A                      A
 Frequencies --    127.1878               153.9659               161.2743
 Red. masses --      2.5950                 4.0395                 3.4284
 Frc consts  --      0.0247                 0.0564                 0.0525
 IR Inten    --     10.5753                 9.1357                 7.1607

                     13                     14                     15
                      A                      A                      A
 Frequencies --    187.6732               195.8145               243.4721
 Red. masses --      5.2372                 2.2208                 4.9356
 Frc consts  --      0.1087                 0.0502                 0.1724
 IR Inten    --      5.8274                29.9864                 6.2898

                     16                     17                     18
                      A                      A                      A
 Frequencies --    252.6257               264.4677               274.1651
 Red. masses --      2.0076                 3.6949                 2.9161
 Frc consts  --      0.0755                 0.1523                 0.1291
 IR Inten    --      1.6392                 0.3701                 4.2271

                     19                     20                     21
                      A                      A                      A
 Frequencies --    283.5585               310.5793               316.0412
 Red. masses --      3.6093                 3.3235                 4.0385
 Frc consts  --      0.1710                 0.1889                 0.2377
 IR Inten    --      1.9276                 5.5046                47.2631

                     22                     23                     24
                      A                      A                      A
 Frequencies --    349.5815               376.8150               407.9627
 Red. masses --      8.3410                 3.7167                 2.2539
 Frc consts  --      0.6006                 0.3109                 0.2210
 IR Inten    --     42.2836                78.5046                63.9121

                     25                     26                     27
                      A                      A                      A
 Frequencies --    423.1874               429.1794               437.2587
 Red. masses --      3.0943                 2.5370                 2.5065
 Frc consts  --      0.3265                 0.2753                 0.2824
 IR Inten    --     15.3890                17.5456                19.5273

                     28                     29                     30
                      A                      A                      A
 Frequencies --    508.0135               531.7291               585.1779
 Red. masses --      3.7113                 3.4658                 4.3572
 Frc consts  --      0.5643                 0.5773                 0.8791
 IR Inten    --     23.0634                33.5097               109.6466

                     31                     32                     33
                      A                      A                      A
 Frequencies --    612.8335               633.8798               638.1998
 Red. masses --      3.0290                 5.9680                 6.3608
 Frc consts  --      0.6702                 1.4128                 1.5264
 IR Inten    --     30.6130                16.9414                 0.7428

                     34                     35                     36
                      A                      A                      A
 Frequencies --    656.9537               691.4010               726.7025
 Red. masses --      3.6136                 2.6108                 1.7806
 Frc consts  --      0.9189                 0.7353                 0.5540
 IR Inten    --     73.4256                31.3978                51.6523

                     37                     38                     39
                      A                      A                      A
 Frequencies --    730.8697               738.5874               791.1761
 Red. masses --      1.8400                 2.1235                 4.2074
 Frc consts  --      0.5791                 0.6825                 1.5517
 IR Inten    --     35.9966               276.3975               108.9801

                     40                     41                     42
                      A                      A                      A
 Frequencies --    803.5604               805.7578               826.6621
 Red. masses --      2.6350                 3.6520                 3.7132
 Frc consts  --      1.0024                 1.3970                 1.4951
 IR Inten    --     16.6715                11.4489               133.3468

                     43                     44                     45
                      A                      A                      A
 Frequencies --    877.0600               885.5838               890.7618
 Red. masses --      1.2504                 1.2527                 4.1691
 Frc consts  --      0.5667                 0.5788                 1.9490
 IR Inten    --      2.9522                 1.4427                13.5650

                     46                     47                     48
                      A                      A                      A
 Frequencies --    955.7577               974.7368               991.9688
 Red. masses --      1.4794                 1.4064                 1.0946
 Frc consts  --      0.7962                 0.7873                 0.6346
 IR Inten    --      2.9213                 3.9039                81.9687

                     49                     50                     51
                      A                      A                      A
 Frequencies --   1013.6970              1018.8105              1024.6494
 Red. masses --      1.3829                 4.0517                 1.7822
 Frc consts  --      0.8373                 2.4779                 1.1025
 IR Inten    --      1.1572                10.3920                 0.2176

                     52                     53                     54
                      A                      A                      A
 Frequencies --   1025.7208              1026.9739              1027.7484
 Red. masses --      4.1240                 1.4090                 3.0805
 Frc consts  --      2.5564                 0.8755                 1.9171
 IR Inten    --      1.6650                 0.5211                 2.0150

                     55                     56                     57
                      A                      A                      A
 Frequencies --   1043.0512              1063.0744              1067.1172
 Red. masses --      1.3142                 2.2947                 1.9779
 Frc consts  --      0.8424                 1.5279                 1.3270
 IR Inten    --      1.2781                17.5621                23.5297

                     58                     59                     60
                      A                      A                      A
 Frequencies --   1086.4264              1100.4466              1109.7945
 Red. masses --      1.8216                 1.9963                 1.6289
 Frc consts  --      1.2668                 1.4243                 1.1820
 IR Inten    --    104.7954                 5.1554                18.3440

                     61                     62                     63
                      A                      A                      A
 Frequencies --   1116.4170              1129.4777              1156.6688
 Red. masses --      2.2352                 2.0551                 1.2914
 Frc consts  --      1.6414                 1.5447                 1.0180
 IR Inten    --     16.3644                 5.8732                 1.0853

                     64                     65                     66
                      A                      A                      A
 Frequencies --   1181.2430              1186.0014              1189.2045
 Red. masses --      1.1316                 1.1269                 1.7431
 Frc consts  --      0.9303                 0.9339                 1.4524
 IR Inten    --      0.4959                 0.5486                32.2891

                     67                     68                     69
                      A                      A                      A
 Frequencies --   1197.6480              1208.7760              1212.3014
 Red. masses --      1.4339                 1.1223                 2.9100
 Frc consts  --      1.2118                 0.9662                 2.5198
 IR Inten    --     49.1105                 1.4744                36.3179

                     70                     71                     72
                      A                      A                      A
 Frequencies --   1219.2572              1286.7901              1303.2027
 Red. masses --      1.2329                 2.5127                 4.2008
 Frc consts  --      1.0798                 2.4514                 4.2035
 IR Inten    --     19.2808               224.6867                92.0359

                     73                     74                     75
                      A                      A                      A
 Frequencies --   1322.8601              1327.2523              1359.3986
 Red. masses --      4.3128                 4.3986                 1.4640
 Frc consts  --      4.4467                 4.5653                 1.5940
 IR Inten    --      1.6385               287.1799                 3.2361

                     76                     77                     78
                      A                      A                      A
 Frequencies --   1363.2433              1364.2476              1435.0152
 Red. masses --      1.2963                 1.4564                 2.1064
 Frc consts  --      1.4194                 1.5971                 2.5557
 IR Inten    --      6.5470                 6.6513               484.2067

                     79                     80                     81
                      A                      A                      A
 Frequencies --   1457.3171              1458.9642              1476.0531
 Red. masses --      1.3610                 1.5263                 1.0422
 Frc consts  --      1.7030                 1.9142                 1.3379
 IR Inten    --    168.0330                52.9897                11.6395

                     82                     83                     84
                      A                      A                      A
 Frequencies --   1488.6131              1492.7972              1498.1668
 Red. masses --      2.2351                 2.3073                 1.0447
 Frc consts  --      2.9182                 3.0293                 1.3816
 IR Inten    --     21.4256                73.4228                14.8839

                     85                     86                     87
                      A                      A                      A
 Frequencies --   1504.0429              1507.5681              1540.7430
 Red. masses --      1.0489                 1.0854                 2.3464
 Frc consts  --      1.3979                 1.4534                 3.2818
 IR Inten    --      6.4809                19.2097                64.0124

                     88                     89                     90
                      A                      A                      A
 Frequencies --   1546.9598              1554.7744              1609.7015
 Red. masses --      2.3106                 2.0374                 1.4864
 Frc consts  --      3.2579                 2.9017                 2.2692
 IR Inten    --     43.1394               648.3487               416.8696

                     91                     92                     93
                      A                      A                      A
 Frequencies --   1641.1210              1649.9591              1655.8977
 Red. masses --      4.7597                 3.9037                 3.8657
 Frc consts  --      7.5528                 6.2615                 6.2453
 IR Inten    --     26.3192                74.2283               271.6205

                     94                     95                     96
                      A                      A                      A
 Frequencies --   1670.1794              1675.1665              3048.2784
 Red. masses --      5.8227                 5.8677                 1.0361
 Frc consts  --      9.5698                 9.7014                 5.6724
 IR Inten    --      5.0873                 0.4404                77.6148

                     97                     98                     99
                      A                      A                      A
 Frequencies --   3048.8372              3104.0712              3117.6266
 Red. masses --      1.0368                 1.1043                 1.1008
 Frc consts  --      5.6784                 6.2689                 6.3036
 IR Inten    --     59.5533                45.0091                16.7492

                    100                    101                    102
                      A                      A                      A
 Frequencies --   3158.5983              3167.4748              3185.9842
 Red. masses --      1.1013                 1.1032                 1.0870
 Frc consts  --      6.4736                 6.5214                 6.5007
 IR Inten    --     24.7717                19.3918                 9.9937

                    103                    104                    105
                      A                      A                      A
 Frequencies --   3192.0848              3198.3542              3201.2300
 Red. masses --      1.0872                 1.0865                 1.0914
 Frc consts  --      6.5270                 6.5482                 6.5895
 IR Inten    --      1.4519                 0.2346                12.6704

                    106                    107                    108
                      A                      A                      A
 Frequencies --   3208.0252              3208.4759              3219.8549
 Red. masses --      1.0949                 1.0910                 1.0986
 Frc consts  --      6.6387                 6.6173                 6.7109
 IR Inten    --     42.9299                18.1096                19.1521

                    109                    110                    111
                      A                      A                      A
 Frequencies --   3220.3439              3241.3993              3251.0968
 Red. masses --      1.0965                 1.0926                 1.0918
 Frc consts  --      6.7001                 6.7636                 6.7992
 IR Inten    --     28.5697                 5.3232                 5.5175

                    112                    113                    114
                      A                      A                      A
 Frequencies --   3442.3840              3603.4305              3682.4376
 Red. masses --      1.0601                 1.0894                 1.0780
 Frc consts  --      7.4017                 8.3347                 8.6131
 IR Inten    --    132.6524               110.3457                90.4782

 - Thermochemistry -
 -------------------
 Temperature   298.150 Kelvin.  Pressure   1.00000 Atm.
 Atom     1 has atomic number  6 and mass  12.00000

 Molecular mass:   302.11859 amu.
 Principal axes and moments of inertia in atomic units:
                           1         2         3
     Eigenvalues --  5147.161656370.201289099.76843
           X            0.99997  -0.00681  -0.00365
           Y            0.00672   0.99972  -0.02247
           Z            0.00380   0.02245   0.99974
 This molecule is an asymmetric top.
 Rotational symmetry number  1.
 Warning -- assumption of classical behavior for rotation
           may cause significant error
 Rotational temperatures (Kelvin)      0.01683     0.01360     0.00952
 Rotational constants (GHZ):           0.35063     0.28331     0.19833
    1 imaginary frequencies ignored.
 Zero-point vibrational energy     865645.3 (Joules/Mol)
                                  206.89418 (Kcal/Mol)
 Warning -- explicit consideration of  30 degrees of freedom as
           vibrations may cause significant error
 Vibrational temperatures:     56.41    60.17    87.19    96.73   102.80
          (Kelvin)            122.07   142.40   163.66   182.99   221.52
                              232.04   270.02   281.73   350.30   363.47
                              380.51   394.46   407.98   446.85   454.71
                              502.97   542.15   586.97   608.87   617.49
                              629.12   730.92   765.04   841.94   881.73
                              912.01   918.23   945.21   994.77  1045.56
                             1051.56  1062.66  1138.33  1156.14  1159.31
                             1189.38  1261.89  1274.16  1281.61  1375.12
                             1402.43  1427.22  1458.48  1465.84  1474.24
                             1475.78  1477.59  1478.70  1500.72  1529.53
                             1535.34  1563.13  1583.30  1596.75  1606.28
                             1625.07  1664.19  1699.55  1706.39  1711.00
                             1723.15  1739.16  1744.23  1754.24  1851.40
                             1875.02  1903.30  1909.62  1955.87  1961.40
                             1962.85  2064.67  2096.75  2099.12  2123.71
                             2141.78  2147.80  2155.53  2163.98  2169.05
                             2216.79  2225.73  2236.97  2316.00  2361.21
                             2373.92  2382.47  2403.02  2410.19  4385.79
                             4386.60  4466.07  4485.57  4544.52  4557.29
                             4583.92  4592.70  4601.72  4605.86  4615.63
                             4616.28  4632.65  4633.36  4663.65  4677.60
                             4952.82  5184.53  5298.21

 Zero-point correction=                           0.329707 (Hartree/Particle)
 Thermal correction to Energy=                    0.349808
 Thermal correction to Enthalpy=                  0.350752
 Thermal correction to Gibbs Free Energy=         0.280594
 Sum of electronic and zero-point Energies=          -1303.864336
 Sum of electronic and thermal Energies=             -1303.844235
 Sum of electronic and thermal Enthalpies=           -1303.843291
 Sum of electronic and thermal Free Energies=        -1303.913448

                     E (Thermal)             CV                S
                      KCal/Mol        Cal/Mol-Kelvin    Cal/Mol-Kelvin
 Total                  219.508             75.885            147.660
 Electronic               0.000              0.000              0.000
 Translational            0.889              2.981             43.014
 Rotational               0.889              2.981             34.055
 Vibrational            217.730             69.923             70.590
 Vibration     1          0.594              1.981              5.299
 Vibration     2          0.594              1.980              5.171
 Vibration     3          0.597              1.973              4.438
 Vibration     4          0.598              1.970              4.233
 Vibration     5          0.598              1.968              4.113
 Vibration     6          0.601              1.960              3.776
 Vibration     7          0.604              1.950              3.474
 Vibration     8          0.607              1.938              3.204
 Vibration     9          0.611              1.926              2.988
 Vibration    10          0.619              1.898              2.623
 Vibration    11          0.622              1.890              2.535
 Vibration    12          0.632              1.857              2.251
 Vibration    13          0.636              1.846              2.172
 Vibration    14          0.659              1.774              1.777
 Vibration    15          0.664              1.758              1.712
 Vibration    16          0.671              1.738              1.632
 Vibration    17          0.676              1.721              1.570
 Vibration    18          0.682              1.704              1.512
 Vibration    19          0.699              1.654              1.359
 Vibration    20          0.703              1.643              1.331
 Vibration    21          0.727              1.576              1.168
 Vibration    22          0.747              1.520              1.052
 Vibration    23          0.773              1.453              0.934
 Vibration    24          0.785              1.420              0.881
 Vibration    25          0.791              1.407              0.861
 Vibration    26          0.798              1.389              0.835
 Vibration    27          0.863              1.232              0.638
 Vibration    28          0.887              1.180              0.583
 Vibration    29          0.942              1.063              0.476
 Vibration    30          0.972              1.005              0.428

 Optimization completed.
    -- Stationary point found.
 Normal termination of Gaussian 16 at Wed Apr 14 07:13:02 2021.
