 Gaussian 16, Revision A.03,
 Gaussian 16:  ES64L-G16RevA.03 25-Dec-2016

 ----------------------------------------------------------------------
 # wB97XD def2tzvp, opt=(ts, noeigen, calcfc, maxcycles=70, maxstep=3),
  freq=noraman, scrf=(iefpcm, solvent=water)
 ----------------------------------------------------------------------

 ------------------------
 3_iteration/TS-119-3.out
 ------------------------
 Symbolic Z-matrix:
 Charge =  0 Multiplicity = 1

 SCF Done:  E(RwB97XD) =  -1304.19567116     A.U. after   15 cycles
 Optimization completed.
    -- Stationary point found.
 Normal termination of Gaussian 16 at Sun Feb  7 18:51:34 2021.

 ---------------------------------------------------------------------
 #N Geom=AllCheck Guess=TCheck SCRF=Check GenChk RwB97XD/def2TZVP Freq
 ---------------------------------------------------------------------

 Structure from the checkpoint file:  "/beegfs/scratch/user/q/tla25/Gau-20361.chk"
 ------------------------
 3_iteration/TS-119-3.out
 ------------------------
 Charge =  0 Multiplicity = 1

                         Standard orientation:
 ---------------------------------------------------------------------
 Center     Atomic      Atomic             Coordinates (Angstroms)
 Number     Number       Type             X           Y           Z
 ---------------------------------------------------------------------
      1          6           0        0.290850   -0.220980    0.226509
      2          6           0       -1.039170    0.321850    0.254989
      3          8           0       -1.250890    1.545560    0.310789
      4          6           0        1.442840    0.584010    0.410969
      5          6           0        2.435910    2.863770   -1.200361
      6          1           0        2.282170    3.446530   -2.109791
      7          1           0        2.412740    3.536040   -0.345981
      8          1           0        3.411670    2.381720   -1.246901
      9          7           0        1.403080    1.842800   -1.041691
     10          1           0        0.484790    2.236500   -0.846421
     11          1           0        1.312910    1.271590   -1.872531
     12          6           0        2.793710   -0.064580    0.236989
     13          6           0        3.244130   -0.499220   -1.008411
     14          6           0        4.489990   -1.083960   -1.154361
     15          6           0        5.311610   -1.262110   -0.049991
     16          6           0        4.873150   -0.845130    1.195529
     17          6           0        3.629390   -0.244650    1.335249
     18          1           0        2.617080   -0.394750   -1.883521
     19          1           0        4.817800   -1.404910   -2.134841
     20          1           0        6.285210   -1.721800   -0.162001
     21          1           0        5.500750   -0.979410    2.067349
     22          1           0        3.314690    0.076010    2.318409
     23          6           0        1.410200    1.604550    1.537589
     24          1           0        1.390930    1.072310    2.488969
     25          1           0        2.297000    2.236430    1.522219
     26          1           0        0.517420    2.216830    1.483749
     27         17           0        0.465690   -1.888180   -0.348691
     28          7           0       -2.083010   -0.576420    0.196509
     29          6           0       -3.454960   -0.344320    0.092929
     30          6           0       -4.051930    0.916419    0.160619
     31          6           0       -5.430910    1.033349    0.049209
     32          6           0       -6.238710   -0.079291   -0.123471
     33          6           0       -5.645760   -1.333841   -0.185941
     34          6           0       -4.273760   -1.466331   -0.081161
     35          1           0       -1.812820   -1.544830    0.156069
     36          1           0       -3.435530    1.788660    0.300039
     37          1           0       -5.875720    2.019699    0.102989
     38          1           0       -7.312510    0.026279   -0.206611
     39          1           0       -6.254949   -2.219161   -0.319651
     40          1           0       -3.823269   -2.451020   -0.135121
 ---------------------------------------------------------------------

 SCF Done:  E(RwB97XD) =  -1304.19567116     A.U. after    1 cycles

 The electronic state is 1-A.
 Alpha  occ. eigenvalues -- -101.68781 -19.20570 -14.47937 -14.46029 -10.38678
 Alpha  occ. eigenvalues --  -10.36366 -10.33737 -10.31669 -10.30913 -10.30484
 Alpha  occ. eigenvalues --  -10.29586 -10.29499 -10.29336 -10.29296 -10.29245
 Alpha  occ. eigenvalues --  -10.28958 -10.28798 -10.28708 -10.28129 -10.28033
 Alpha  occ. eigenvalues --  -10.27707  -9.57321  -7.31935  -7.31133  -7.31089
 Alpha  occ. eigenvalues --   -1.13421  -1.03990  -1.03589  -0.97997  -0.96086
 Alpha  occ. eigenvalues --   -0.94722  -0.90110  -0.85657  -0.85070  -0.84946
 Alpha  occ. eigenvalues --   -0.84057  -0.79481  -0.78042  -0.74472  -0.71871
 Alpha  occ. eigenvalues --   -0.70855  -0.70557  -0.67021  -0.64928  -0.62915
 Alpha  occ. eigenvalues --   -0.62542  -0.60323  -0.58694  -0.57574  -0.56407
 Alpha  occ. eigenvalues --   -0.56089  -0.55022  -0.54368  -0.53677  -0.52478
 Alpha  occ. eigenvalues --   -0.52163  -0.51635  -0.51313  -0.50940  -0.50117
 Alpha  occ. eigenvalues --   -0.48852  -0.48137  -0.47764  -0.46880  -0.46534
 Alpha  occ. eigenvalues --   -0.46012  -0.44650  -0.43879  -0.43010  -0.42795
 Alpha  occ. eigenvalues --   -0.42631  -0.40604  -0.40095  -0.39197  -0.34137
 Alpha  occ. eigenvalues --   -0.33868  -0.33634  -0.33490  -0.30167  -0.25973
 Alpha virt. eigenvalues --    0.02311   0.04972   0.05437   0.05525   0.08546
 Alpha virt. eigenvalues --    0.10332   0.11493   0.12940   0.13468   0.13786
 Alpha virt. eigenvalues --    0.14383   0.14998   0.15688   0.16767   0.16938

 Mulliken charges:
               1
     1  C   -0.292136
     2  C    0.459772
     3  O   -0.595424
     4  C    0.283296
     5  C   -0.288652
     6  H    0.153786
     7  H    0.158148
     8  H    0.154479
     9  N   -0.331803
    10  H    0.279284
    11  H    0.271249
    12  C    0.213606
    13  C   -0.324153
    14  C   -0.122610
    15  C   -0.147882
    16  C   -0.150891
    17  C   -0.250581
    18  H    0.148090
    19  H    0.145161
    20  H    0.145718
    21  H    0.144012
    22  H    0.150997
    23  C   -0.451939
    24  H    0.149538
    25  H    0.155470
    26  H    0.170822
    27  Cl  -0.185429
    28  N   -0.275215
    29  C    0.298562
    30  C   -0.295347
    31  C   -0.111651
    32  C   -0.199583
    33  C   -0.098455
    34  C   -0.313973
    35  H    0.231237
    36  H    0.160494
    37  H    0.140178
    38  H    0.139663
    39  H    0.142491
    40  H    0.139670
 Sum of Mulliken charges =  -0.00000

 Dipole moment (field-independent basis, Debye):
    X=              6.1375    Y=              2.3458    Z=             -2.6184  Tot=              7.0730
 Quadrupole moment (field-independent basis, Debye-Ang):
   XX=           -118.2597   YY=           -123.0967   ZZ=           -124.9121
   XY=             10.7046   XZ=             -1.2134   YZ=             -3.7867

  Exact polarizability: 447.222  -3.890 307.217  -0.094   7.216 249.534
 Approx polarizability: 310.533  -9.486 261.273   2.560   7.668 221.210

 ******    1 imaginary frequencies (negative Signs) ******

                      1                      2                      3
                      A                      A                      A
 Frequencies --   -367.7976                21.8876                25.3140
 Red. masses --      5.9805                 5.9564                 3.6916
 Frc consts  --      0.4767                 0.0017                 0.0014
 IR Inten    --   1002.5374                 0.6806                 0.8529

                      4                      5                      6
                      A                      A                      A
 Frequencies --     38.2800                60.4285                64.9995
 Red. masses --      4.6961                 5.1256                 6.1413
 Frc consts  --      0.0041                 0.0110                 0.0153
 IR Inten    --      2.2822                 1.9844                 3.9275

                      7                      8                      9
                      A                      A                      A
 Frequencies --     81.7386                90.6087               118.9824
 Red. masses --      4.4599                 3.3712                 2.3495
 Frc consts  --      0.0176                 0.0163                 0.0196
 IR Inten    --      8.9291                 2.4776                 6.1224

                     10                     11                     12
                      A                      A                      A
 Frequencies --    129.5123               158.3215               202.2035
 Red. masses --      4.0255                 1.8123                 5.6775
 Frc consts  --      0.0398                 0.0268                 0.1368
 IR Inten    --     13.4765                 4.3940                 0.6910

                     13                     14                     15
                      A                      A                      A
 Frequencies --    215.4958               236.6338               242.0111
 Red. masses --      2.2702                 4.4006                 5.8912
 Frc consts  --      0.0621                 0.1452                 0.2033
 IR Inten    --      0.9377                 4.4901                45.6108

                     16                     17                     18
                      A                      A                      A
 Frequencies --    257.0294               272.6862               299.3274
 Red. masses --      4.4695                 3.2557                 2.7505
 Frc consts  --      0.1740                 0.1426                 0.1452
 IR Inten    --      5.0674                10.5916                16.3664

                     19                     20                     21
                      A                      A                      A
 Frequencies --    322.1229               336.4769               364.1354
 Red. masses --      1.4030                 3.9332                 4.6273
 Frc consts  --      0.0858                 0.2624                 0.3615
 IR Inten    --     15.5521                 4.9017                 9.8397

                     22                     23                     24
                      A                      A                      A
 Frequencies --    394.8463               421.8498               423.1950
 Red. masses --      4.2505                 2.9069                 3.0062
 Frc consts  --      0.3904                 0.3048                 0.3172
 IR Inten    --     18.0275                 0.1910                 0.2885

                     25                     26                     27
                      A                      A                      A
 Frequencies --    432.2332               475.8227               516.2311
 Red. masses --      4.6435                 6.2247                 3.7465
 Frc consts  --      0.5111                 0.8303                 0.5883
 IR Inten    --     17.1499                19.4979                44.8540

                     28                     29                     30
                      A                      A                      A
 Frequencies --    529.0053               546.0779               573.8767
 Red. masses --      2.8632                 5.9243                 1.1502
 Frc consts  --      0.4721                 1.0409                 0.2232
 IR Inten    --     48.0180                51.1328               119.2892

                     31                     32                     33
                      A                      A                      A
 Frequencies --    581.0218               635.3726               638.7988
 Red. masses --      3.4808                 6.3735                 6.3380
 Frc consts  --      0.6923                 1.5159                 1.5238
 IR Inten    --    120.9215                 2.9554                 1.9531

                     34                     35                     36
                      A                      A                      A
 Frequencies --    647.2990               698.5020               718.7665
 Red. masses --      4.7110                 1.3620                 1.9001
 Frc consts  --      1.1630                 0.3915                 0.5784
 IR Inten    --     16.6632                52.8407                63.2675

                     37                     38                     39
                      A                      A                      A
 Frequencies --    730.7269               756.7797               768.7742
 Red. masses --      1.5046                 6.0254                 8.6081
 Frc consts  --      0.4733                 2.0332                 2.9975
 IR Inten    --     89.1253                20.8468                38.6358

                     40                     41                     42
                      A                      A                      A
 Frequencies --    782.5543               801.0429               861.6067
 Red. masses --      1.8162                 2.2473                 1.2643
 Frc consts  --      0.6553                 0.8496                 0.5530
 IR Inten    --     98.7940                15.7042                 0.0088

                     43                     44                     45
                      A                      A                      A
 Frequencies --    865.3679               875.0459               878.1296
 Red. masses --      5.2595                 3.8550                 1.2665
 Frc consts  --      2.3206                 1.7391                 0.5754
 IR Inten    --     13.9058                 3.0763                 0.7382

                     46                     47                     48
                      A                      A                      A
 Frequencies --    931.1370               962.4534               992.8531
 Red. masses --      1.4633                 1.4128                 2.6281
 Frc consts  --      0.7475                 0.7711                 1.5264
 IR Inten    --     13.2812                 2.5788               137.6965

                     49                     50                     51
                      A                      A                      A
 Frequencies --   1000.2593              1014.4758              1015.6320
 Red. masses --      1.3429                 1.3903                 1.2790
 Frc consts  --      0.7916                 0.8431                 0.7773
 IR Inten    --      0.0592                 0.2396                 0.8752

                     52                     53                     54
                      A                      A                      A
 Frequencies --   1019.0238              1027.5912              1028.1037
 Red. masses --      5.8807                 1.7701                 2.1878
 Frc consts  --      3.5979                 1.1013                 1.3625
 IR Inten    --      9.6837                20.2714                39.6061

                     55                     56                     57
                      A                      A                      A
 Frequencies --   1032.2322              1049.2672              1054.9430
 Red. masses --      1.3340                 1.8894                 1.7468
 Frc consts  --      0.8374                 1.2256                 1.1454
 IR Inten    --      0.0382                85.6284                15.6541

                     58                     59                     60
                      A                      A                      A
 Frequencies --   1061.2142              1069.3897              1075.2630
 Red. masses --      2.1320                 2.1154                 1.7043
 Frc consts  --      1.4146                 1.4253                 1.1610
 IR Inten    --     16.1246                50.1510                44.4961

                     61                     62                     63
                      A                      A                      A
 Frequencies --   1092.3585              1118.5055              1132.5722
 Red. masses --      2.6101                 1.5765                 1.8983
 Frc consts  --      1.8350                 1.1621                 1.4346
 IR Inten    --    209.2317                31.8032                10.1648

                     64                     65                     66
                      A                      A                      A
 Frequencies --   1133.9139              1181.9271              1187.5496
 Red. masses --      1.9411                 1.1193                 1.1298
 Frc consts  --      1.4704                 0.9213                 0.9387
 IR Inten    --      5.1694                 3.3965                 0.4293

                     67                     68                     69
                      A                      A                      A
 Frequencies --   1208.0299              1221.4660              1230.6307
 Red. masses --      1.1489                 1.2982                 1.2283
 Frc consts  --      0.9879                 1.1412                 1.0960
 IR Inten    --     41.3458                34.3796                61.7609

                     70                     71                     72
                      A                      A                      A
 Frequencies --   1255.9523              1274.4866              1290.3522
 Red. masses --      2.9386                 3.2858                 4.4838
 Frc consts  --      2.7311                 3.1446                 4.3985
 IR Inten    --    673.9501               181.1937                19.5234

                     73                     74                     75
                      A                      A                      A
 Frequencies --   1324.4793              1342.6605              1346.4626
 Red. masses --      4.9660                 1.3610                 3.9150
 Frc consts  --      5.1327                 1.4455                 4.1819
 IR Inten    --     33.5438                20.2515               861.7505

                     76                     77                     78
                      A                      A                      A
 Frequencies --   1359.8534              1373.9303              1395.1091
 Red. masses --      1.5885                 1.3802                 2.9061
 Frc consts  --      1.7307                 1.5351                 3.3326
 IR Inten    --      5.6655                 7.9299               559.5144

                     79                     80                     81
                      A                      A                      A
 Frequencies --   1415.3689              1461.9950              1478.1354
 Red. masses --      1.3535                 1.2038                 2.1173
 Frc consts  --      1.5976                 1.5160                 2.7256
 IR Inten    --    112.9397                15.6116               429.9091

                     82                     83                     84
                      A                      A                      A
 Frequencies --   1488.1299              1494.2233              1497.6855
 Red. masses --      1.3982                 1.2080                 1.2731
 Frc consts  --      1.8243                 1.5891                 1.6825
 IR Inten    --     28.7469                 2.7012                37.4666

                     85                     86                     87
                      A                      A                      A
 Frequencies --   1508.3741              1517.5021              1546.2003
 Red. masses --      1.0410                 1.0951                 2.4297
 Frc consts  --      1.3954                 1.4858                 3.4225
 IR Inten    --     13.3333                49.7700               248.9434

                     88                     89                     90
                      A                      A                      A
 Frequencies --   1551.9525              1565.0198              1637.5883
 Red. masses --      2.2500                 2.2507                 5.0710
 Frc consts  --      3.1929                 3.2479                 8.0122
 IR Inten    --      9.5042               723.0287               475.4316

                     91                     92                     93
                      A                      A                      A
 Frequencies --   1654.1556              1660.1353              1660.7263
 Red. masses --      4.4302                 3.7633                 1.1956
 Frc consts  --      7.1422                 6.1109                 1.9428
 IR Inten    --      5.8841                81.5382               106.5282

                     94                     95                     96
                      A                      A                      A
 Frequencies --   1676.0284              1678.9192              3065.6760
 Red. masses --      6.0480                 5.6241                 1.0355
 Frc consts  --     10.0097                 9.3403                 5.7342
 IR Inten    --    181.3102                 6.7597                55.2669

                     97                     98                     99
                      A                      A                      A
 Frequencies --   3080.2417              3141.0699              3146.9673
 Red. masses --      1.0399                 1.1033                 1.1017
 Frc consts  --      5.8132                 6.4136                 6.4286
 IR Inten    --     28.0584                17.7545                27.9000

                    100                    101                    102
                      A                      A                      A
 Frequencies --   3171.7471              3186.0707              3195.6105
 Red. masses --      1.1042                 1.0879                 1.0883
 Frc consts  --      6.5450                 6.5064                 6.5479
 IR Inten    --     14.8868                14.0529                 2.8601

                    103                    104                    105
                      A                      A                      A
 Frequencies --   3197.9648              3205.2360              3206.0080
 Red. masses --      1.0860                 1.0932                 1.0897
 Frc consts  --      6.5438                 6.6172                 6.5991
 IR Inten    --      0.9841                31.7868                 4.8811

                    106                    107                    108
                      A                      A                      A
 Frequencies --   3207.5286              3216.3865              3220.7531
 Red. masses --      1.0985                 1.0931                 1.0979
 Frc consts  --      6.6585                 6.6625                 6.7102
 IR Inten    --      4.1234                33.0702                24.6987

                    109                    110                    111
                      A                      A                      A
 Frequencies --   3224.4894              3232.6393              3271.4070
 Red. masses --      1.0962                 1.0945                 1.0923
 Frc consts  --      6.7150                 6.7386                 6.8878
 IR Inten    --     20.4959                 8.9680                 6.5157

                    112                    113                    114
                      A                      A                      A
 Frequencies --   3480.9987              3592.1330              3636.4799
 Red. masses --      1.0595                 1.0883                 1.0762
 Frc consts  --      7.5640                 8.2737                 8.3853
 IR Inten    --     65.1239                48.1345                89.9887

 - Thermochemistry -
 -------------------
 Temperature   298.150 Kelvin.  Pressure   1.00000 Atm.
 Atom     1 has atomic number  6 and mass  12.00000

 Molecular mass:   302.11859 amu.
 Principal axes and moments of inertia in atomic units:
                           1         2         3
     Eigenvalues --  2572.13701********************
           X            0.99998   0.00667  -0.00004
           Y           -0.00667   0.99994  -0.00907
           Z           -0.00002   0.00907   0.99996
 This molecule is an asymmetric top.
 Rotational symmetry number  1.
 Warning -- assumption of classical behavior for rotation
           may cause significant error
 Rotational temperatures (Kelvin)      0.03367     0.00648     0.00591
 Rotational constants (GHZ):           0.70165     0.13506     0.12311
    1 imaginary frequencies ignored.
 Zero-point vibrational energy     867691.8 (Joules/Mol)
                                  207.38333 (Kcal/Mol)
 Warning -- explicit consideration of  30 degrees of freedom as
           vibrations may cause significant error
 Vibrational temperatures:     31.49    36.42    55.08    86.94    93.52
          (Kelvin)            117.60   130.37   171.19   186.34   227.79
                              290.93   310.05   340.46   348.20   369.81
                              392.33   430.67   463.46   484.12   523.91
                              568.10   606.95   608.88   621.89   684.60
                              742.74   761.12   785.68   825.68   835.96
                              914.16   919.09   931.32  1004.99  1034.14
                             1051.35  1088.84  1106.09  1125.92  1152.52
                             1239.66  1245.07  1259.00  1263.43  1339.70
                             1384.76  1428.49  1439.15  1459.60  1461.27
                             1466.15  1478.47  1479.21  1485.15  1509.66
                             1517.83  1526.85  1538.61  1547.06  1571.66
                             1609.28  1629.52  1631.45  1700.53  1708.62
                             1738.09  1757.42  1770.60  1807.04  1833.70
                             1856.53  1905.63  1931.79  1937.26  1956.53
                             1976.78  2007.25  2036.40  2103.48  2126.71
                             2141.09  2149.85  2154.84  2170.21  2183.35
                             2224.64  2232.91  2251.71  2356.12  2379.96
                             2388.56  2389.41  2411.43  2415.59  4410.82
                             4431.78  4519.30  4527.78  4563.44  4584.05
                             4597.77  4601.16  4611.62  4612.73  4614.92
                             4627.66  4633.95  4639.32  4651.05  4706.83
                             5008.38  5168.28  5232.08

 Zero-point correction=                           0.330486 (Hartree/Particle)
 Thermal correction to Energy=                    0.350209
 Thermal correction to Enthalpy=                  0.351153
 Thermal correction to Gibbs Free Energy=         0.280257
 Sum of electronic and zero-point Energies=          -1303.865185
 Sum of electronic and thermal Energies=             -1303.845463
 Sum of electronic and thermal Enthalpies=           -1303.844518
 Sum of electronic and thermal Free Energies=        -1303.915414

                     E (Thermal)             CV                S
                      KCal/Mol        Cal/Mol-Kelvin    Cal/Mol-Kelvin
 Total                  219.759             75.265            149.213
 Electronic               0.000              0.000              0.000
 Translational            0.889              2.981             43.014
 Rotational               0.889              2.981             34.576
 Vibrational            217.982             69.304             71.623
 Vibration     1          0.593              1.985              6.455
 Vibration     2          0.593              1.985              6.166
 Vibration     3          0.594              1.982              5.346
 Vibration     4          0.597              1.973              4.443
 Vibration     5          0.597              1.971              4.299
 Vibration     6          0.600              1.962              3.849
 Vibration     7          0.602              1.956              3.647
 Vibration     8          0.609              1.933              3.117
 Vibration     9          0.612              1.924              2.953
 Vibration    10          0.621              1.893              2.570
 Vibration    11          0.639              1.837              2.113
 Vibration    12          0.645              1.817              1.997
 Vibration    13          0.656              1.785              1.828
 Vibration    14          0.658              1.776              1.788
 Vibration    15          0.667              1.751              1.682
 Vibration    16          0.676              1.724              1.579
 Vibration    17          0.692              1.675              1.421
 Vibration    18          0.707              1.631              1.299
 Vibration    19          0.717              1.603              1.229
 Vibration    20          0.738              1.546              1.104
 Vibration    21          0.762              1.481              0.982
 Vibration    22          0.784              1.423              0.886
 Vibration    23          0.785              1.420              0.881
 Vibration    24          0.793              1.400              0.851
 Vibration    25          0.832              1.304              0.721
 Vibration    26          0.871              1.214              0.619
 Vibration    27          0.884              1.186              0.589
 Vibration    28          0.901              1.148              0.552
 Vibration    29          0.930              1.088              0.497
 Vibration    30          0.938              1.072              0.483

 Optimization completed.
    -- Stationary point found.
 Normal termination of Gaussian 16 at Sun Feb  7 21:22:16 2021.
