 Gaussian 16, Revision A.03,
 Gaussian 16:  ES64L-G16RevA.03 25-Dec-2016

 ----------------------------------------------------------------------
 # wB97XD def2tzvp, opt=(ts, noeigen, calcfc, maxcycles=70, maxstep=8),
  freq=noraman, scrf=(iefpcm, solvent=water)
 ----------------------------------------------------------------------

 ------------------------
 1_iteration/TS-121-1.out
 ------------------------
 Symbolic Z-matrix:
 Charge =  0 Multiplicity = 1

 SCF Done:  E(RwB97XD) =  -3323.49744009     A.U. after   15 cycles
 Optimization completed.
    -- Stationary point found.
 Normal termination of Gaussian 16 at Sun Feb  7 00:47:06 2021.

 ---------------------------------------------------------------------
 #N Geom=AllCheck Guess=TCheck SCRF=Check GenChk RwB97XD/def2TZVP Freq
 ---------------------------------------------------------------------

 Structure from the checkpoint file:  "/beegfs/scratch/user/q/tla25/Gau-57183.chk"
 ------------------------
 1_iteration/TS-121-1.out
 ------------------------
 Charge =  0 Multiplicity = 1

                         Standard orientation:
 ---------------------------------------------------------------------
 Center     Atomic      Atomic             Coordinates (Angstroms)
 Number     Number       Type             X           Y           Z
 ---------------------------------------------------------------------
      1          6           0        0.077004   -1.192979   -0.259249
      2          6           0        0.560155   -2.494868   -0.546029
      3          8           0       -0.114743   -3.471979   -0.884529
      4          6           0        0.939472   -0.151568    0.145941
      5          6           0        0.782504   -1.359008    2.678611
      6          1           0        1.301244   -1.594177    3.606341
      7          1           0       -0.200067   -0.954189    2.905731
      8          1           0        0.660925   -2.266848    2.090891
      9          7           0        1.554122   -0.395427    1.898481
     10          1           0        1.576551    0.518753    2.339231
     11          1           0        2.514033   -0.707975    1.803401
     12          6           0        0.374340    1.244412    0.210771
     13          6           0       -0.496380    1.596170    1.239991
     14          6           0       -1.106082    2.838929    1.261281
     15          6           0       -0.863783    3.751740    0.245921
     16          6           0       -0.006163    3.408241   -0.786809
     17          6           0        0.610249    2.166572   -0.802569
     18          1           0       -0.735379    0.890580    2.023351
     19          1           0       -1.778253    3.088508    2.071891
     20          1           0       -1.341595    4.722749    0.259501
     21          1           0        0.188356    4.108251   -1.589049
     22          1           0        1.268699    1.913773   -1.621589
     23         35           0        2.754072   -0.150335   -0.676569
     24          6           0       -1.396127   -0.958541   -0.327889
     25          6           0       -1.955528   -0.185762   -1.344349
     26          6           0       -3.322768    0.038716   -1.404879
     27          6           0       -4.163337   -0.521345   -0.453079
     28          6           0       -3.624566   -1.311994    0.552071
     29          6           0       -2.255266   -1.526882    0.610531
     30          1           0       -1.305399    0.254459   -2.090599
     31          1           0       -3.732839    0.650216   -2.199269
     32          1           0       -5.231048   -0.346536   -0.496979
     33          1           0       -4.271676   -1.759295    1.296621
     34          1           0       -1.844085   -2.143292    1.400451
     35          1           0        1.654766   -2.620427   -0.454689
 ---------------------------------------------------------------------

 SCF Done:  E(RwB97XD) =  -3323.49744009     A.U. after    1 cycles

 The electronic state is 1-A.
 Alpha  occ. eigenvalues -- -483.13260 -62.68102 -56.47215 -56.46867 -56.46856
 Alpha  occ. eigenvalues --  -19.20674 -14.50844 -10.41308 -10.34303 -10.32669
 Alpha  occ. eigenvalues --  -10.31845 -10.30192 -10.29902 -10.29738 -10.29691
 Alpha  occ. eigenvalues --  -10.29676 -10.29620 -10.28646 -10.28619 -10.28548
 Alpha  occ. eigenvalues --  -10.28370 -10.28333 -10.26867  -8.82197  -6.64327
 Alpha  occ. eigenvalues --   -6.63233  -6.63195  -2.74708  -2.74409  -2.74378
 Alpha  occ. eigenvalues --   -2.73494  -2.73493  -1.10804  -1.06251  -0.98549
 Alpha  occ. eigenvalues --   -0.96311  -0.93492  -0.87625  -0.86444  -0.85878
 Alpha  occ. eigenvalues --   -0.84607  -0.82040  -0.80268  -0.75212  -0.71553
 Alpha  occ. eigenvalues --   -0.70173  -0.69876  -0.68420  -0.65322  -0.63586
 Alpha  occ. eigenvalues --   -0.61615  -0.59176  -0.58691  -0.57620  -0.56264
 Alpha  occ. eigenvalues --   -0.55984  -0.53917  -0.53825  -0.52932  -0.52332
 Alpha  occ. eigenvalues --   -0.51741  -0.50427  -0.49773  -0.49079  -0.48344
 Alpha  occ. eigenvalues --   -0.46979  -0.46596  -0.45753  -0.45150  -0.44053
 Alpha  occ. eigenvalues --   -0.43298  -0.42244  -0.42023  -0.38579  -0.37802
 Alpha  occ. eigenvalues --   -0.34933  -0.34400  -0.33297  -0.32742  -0.31864
 Alpha  occ. eigenvalues --   -0.27830
 Alpha virt. eigenvalues --    0.01496   0.03051   0.04992   0.05751   0.05886
 Alpha virt. eigenvalues --    0.07191   0.10444   0.12382   0.13504   0.13610
 Alpha virt. eigenvalues --    0.14298   0.14775   0.16029   0.16773   0.16984

 Mulliken charges:
               1
     1  C   -0.203132
     2  C    0.056626
     3  O   -0.506031
     4  C    0.305144
     5  C   -0.320381
     6  H    0.175234
     7  H    0.161074
     8  H    0.165944
     9  N   -0.267020
    10  H    0.301249
    11  H    0.285652
    12  C    0.157071
    13  C   -0.277465
    14  C   -0.155830
    15  C   -0.148968
    16  C   -0.112955
    17  C   -0.298057
    18  H    0.150986
    19  H    0.146448
    20  H    0.147646
    21  H    0.147472
    22  H    0.151506
    23  Br  -0.133476
    24  C    0.238172
    25  C   -0.233084
    26  C   -0.161958
    27  C   -0.138075
    28  C   -0.154092
    29  C   -0.278555
    30  H    0.144370
    31  H    0.137347
    32  H    0.140589
    33  H    0.137496
    34  H    0.157499
    35  H    0.081555
 Sum of Mulliken charges =  -0.00000

 Dipole moment (field-independent basis, Debye):
    X=              3.0210    Y=              7.5946    Z=              8.4881  Tot=             11.7836
 Quadrupole moment (field-independent basis, Debye-Ang):
   XX=           -116.3979   YY=           -142.3934   ZZ=           -106.9913
   XY=             -8.9496   XZ=              4.7063   YZ=            -16.4638

  Exact polarizability: 326.701 -10.671 319.835 -16.599 -14.968 279.177
 Approx polarizability: 258.982  -7.228 255.212 -15.907 -15.197 241.778

 ******    1 imaginary frequencies (negative Signs) ******

                      1                      2                      3
                      A                      A                      A
 Frequencies --   -320.4052                34.5977                35.3244
 Red. masses --      5.7703                 6.1377                 3.9296
 Frc consts  --      0.3490                 0.0043                 0.0029
 IR Inten    --    656.4534                 2.5774                 1.0791

                      4                      5                      6
                      A                      A                      A
 Frequencies --     55.0459                65.6063                84.1980
 Red. masses --      4.4334                 3.8750                 3.7402
 Frc consts  --      0.0079                 0.0098                 0.0156
 IR Inten    --      0.4730                 3.5421                 3.3283

                      7                      8                      9
                      A                      A                      A
 Frequencies --     98.2617               115.9529               147.8302
 Red. masses --      2.4807                 5.3282                 3.7988
 Frc consts  --      0.0141                 0.0422                 0.0489
 IR Inten    --      2.4427                 8.9567                 3.4235

                     10                     11                     12
                      A                      A                      A
 Frequencies --    165.3089               175.1195               195.8993
 Red. masses --      6.2342                 1.6264                 3.8578
 Frc consts  --      0.1004                 0.0294                 0.0872
 IR Inten    --      4.8106                 6.1138                10.4182

                     13                     14                     15
                      A                      A                      A
 Frequencies --    220.6781               249.5948               261.6197
 Red. masses --      4.8901                 4.2502                 4.1834
 Frc consts  --      0.1403                 0.1560                 0.1687
 IR Inten    --      8.4567                 8.2832                19.9729

                     16                     17                     18
                      A                      A                      A
 Frequencies --    273.4355               282.1932               313.0057
 Red. masses --      3.9672                 3.4522                 3.7909
 Frc consts  --      0.1748                 0.1620                 0.2188
 IR Inten    --      7.3698                 6.3710                26.9823

                     19                     20                     21
                      A                      A                      A
 Frequencies --    337.8133               417.0195               425.1186
 Red. masses --      4.2726                 2.8700                 2.8955
 Frc consts  --      0.2873                 0.2941                 0.3083
 IR Inten    --     22.0132                 0.4588                 0.7465

                     22                     23                     24
                      A                      A                      A
 Frequencies --    447.0479               501.2045               528.3661
 Red. masses --      5.0327                 4.8535                 3.7123
 Frc consts  --      0.5926                 0.7183                 0.6106
 IR Inten    --     45.9765                25.4968                 5.6014

                     25                     26                     27
                      A                      A                      A
 Frequencies --    555.3614               622.2654               630.3089
 Red. masses --      4.0503                 3.6961                 4.8357
 Frc consts  --      0.7360                 0.8432                 1.1319
 IR Inten    --     48.2536                27.2583                27.6954

                     28                     29                     30
                      A                      A                      A
 Frequencies --    638.2768               655.7631               702.4998
 Red. masses --      6.1931                 5.2859                 2.0071
 Frc consts  --      1.4865                 1.3393                 0.5836
 IR Inten    --      9.8910               120.8607                72.6451

                     31                     32                     33
                      A                      A                      A
 Frequencies --    721.2641               723.0759               730.0034
 Red. masses --      3.4199                 1.5973                 1.4065
 Frc consts  --      1.0482                 0.4921                 0.4416
 IR Inten    --     86.2350                86.3018               185.7300

                     34                     35                     36
                      A                      A                      A
 Frequencies --    768.8004               798.2656               829.8856
 Red. masses --      4.3218                 2.2619                 2.9439
 Frc consts  --      1.5050                 0.8492                 1.1945
 IR Inten    --     98.2584                 3.8436                73.4636

                     37                     38                     39
                      A                      A                      A
 Frequencies --    871.5849               877.7852               904.6740
 Red. masses --      1.2573                 1.2491                 4.0937
 Frc consts  --      0.5628                 0.5671                 1.9740
 IR Inten    --      0.5874                 0.9038                28.3899

                     40                     41                     42
                      A                      A                      A
 Frequencies --    957.8915               960.8242              1011.6182
 Red. masses --      1.4617                 1.4574                 1.3700
 Frc consts  --      0.7902                 0.7927                 0.8260
 IR Inten    --      4.7801                 0.7604                 2.5951

                     43                     44                     45
                      A                      A                      A
 Frequencies --   1012.8710              1018.6568              1025.1718
 Red. masses --      1.3709                 1.3701                 1.3066
 Frc consts  --      0.8286                 0.8377                 0.8090
 IR Inten    --      0.3014                11.1914                 0.4283

                     46                     47                     48
                      A                      A                      A
 Frequencies --   1026.9102              1028.6124              1034.5242
 Red. masses --      5.6556                 3.2246                 1.3272
 Frc consts  --      3.5139                 2.0102                 0.8369
 IR Inten    --      0.5546                 1.7652                 0.1498

                     49                     50                     51
                      A                      A                      A
 Frequencies --   1037.7187              1058.9386              1067.4501
 Red. masses --      1.6991                 2.4431                 2.0618
 Frc consts  --      1.0780                 1.6141                 1.3842
 IR Inten    --      1.0550                10.5248                30.3071

                     52                     53                     54
                      A                      A                      A
 Frequencies --   1068.7815              1076.3275              1108.8188
 Red. masses --      1.4917                 2.7515                 1.5527
 Frc consts  --      1.0040                 1.8780                 1.1248
 IR Inten    --     29.6880               114.7117                14.5225

                     55                     56                     57
                      A                      A                      A
 Frequencies --   1126.1004              1146.7844              1180.7694
 Red. masses --      1.6071                 3.0950                 1.1312
 Frc consts  --      1.2008                 2.3981                 0.9292
 IR Inten    --      8.9136                48.7876                 0.6931

                     58                     59                     60
                      A                      A                      A
 Frequencies --   1187.8946              1206.5410              1209.4885
 Red. masses --      1.1282                 1.1293                 3.4300
 Frc consts  --      0.9380                 0.9686                 2.9563
 IR Inten    --      0.9118                 3.4751               207.8934

                     61                     62                     63
                      A                      A                      A
 Frequencies --   1223.3654              1249.1454              1308.7235
 Red. masses --      1.1340                 1.3745                 4.3329
 Frc consts  --      1.0000                 1.2636                 4.3725
 IR Inten    --      2.8661                45.7320                38.6665

                     64                     65                     66
                      A                      A                      A
 Frequencies --   1321.8314              1342.5071              1350.8020
 Red. masses --      4.5103                 1.6553                 1.9308
 Frc consts  --      4.6431                 1.7577                 2.0757
 IR Inten    --     36.0249               216.4673               406.8984

                     67                     68                     69
                      A                      A                      A
 Frequencies --   1360.1425              1366.5884              1383.4882
 Red. masses --      1.6308                 1.4670                 4.8596
 Frc consts  --      1.7776                 1.6142                 5.4803
 IR Inten    --    236.4676                10.6758               146.0857

                     70                     71                     72
                      A                      A                      A
 Frequencies --   1456.5134              1469.6778              1488.9098
 Red. masses --      1.2155                 1.5402                 2.2092
 Frc consts  --      1.5192                 1.9600                 2.8855
 IR Inten    --     10.4444                45.1003                22.5869

                     73                     74                     75
                      A                      A                      A
 Frequencies --   1491.4915              1495.6656              1497.8204
 Red. masses --      2.1658                 1.0447                 1.0649
 Frc consts  --      2.8386                 1.3769                 1.4076
 IR Inten    --     20.6967                25.9799                31.0531

                     76                     77                     78
                      A                      A                      A
 Frequencies --   1543.5946              1546.3262              1643.7019
 Red. masses --      2.3938                 2.2745                 1.1046
 Frc consts  --      3.3604                 3.2043                 1.7583
 IR Inten    --     34.2758                30.8095                41.3603

                     79                     80                     81
                      A                      A                      A
 Frequencies --   1644.7006              1651.2230              1652.8924
 Red. masses --      5.5678                 6.3089                 5.7729
 Frc consts  --      8.8737                10.1348                 9.2925
 IR Inten    --    125.3220               769.4967               116.6294

                     82                     83                     84
                      A                      A                      A
 Frequencies --   1674.4057              1675.3942              2944.8395
 Red. masses --      6.0379                 5.8742                 1.0812
 Frc consts  --      9.9738                 9.7148                 5.5245
 IR Inten    --    148.4293                18.8646               138.9311

                     85                     86                     87
                      A                      A                      A
 Frequencies --   3085.9689              3168.0161              3186.1382
 Red. masses --      1.0333                 1.1048                 1.1052
 Frc consts  --      5.7976                 6.5327                 6.6103
 IR Inten    --     18.3859                 3.3925                14.3314

                     88                     89                     90
                      A                      A                      A
 Frequencies --   3188.7039              3193.8679              3201.8371
 Red. masses --      1.0856                 1.0880                 1.0864
 Frc consts  --      6.5034                 6.5390                 6.5620
 IR Inten    --      2.7444                 0.3352                 0.3039

                     91                     92                     93
                      A                      A                      A
 Frequencies --   3203.3604              3208.9751              3210.9484
 Red. masses --      1.0916                 1.0952                 1.0898
 Frc consts  --      6.5998                 6.6445                 6.6201
 IR Inten    --     17.7429                49.7869                 8.8113

                     94                     95                     96
                      A                      A                      A
 Frequencies --   3218.8166              3221.1522              3230.7375
 Red. masses --      1.0988                 1.0937                 1.0933
 Frc consts  --      6.7076                 6.6859                 6.7235
 IR Inten    --     17.9905                21.1852                12.9598

                     97                     98                     99
                      A                      A                      A
 Frequencies --   3233.8855              3512.1440              3591.2220
 Red. masses --      1.0960                 1.0516                 1.0963
 Frc consts  --      6.7532                 7.6430                 8.3300
 IR Inten    --      5.7267                73.0505                68.6774

 - Thermochemistry -
 -------------------
 Temperature   298.150 Kelvin.  Pressure   1.00000 Atm.
 Atom     1 has atomic number  6 and mass  12.00000

 Molecular mass:   317.04153 amu.
 Principal axes and moments of inertia in atomic units:
                           1         2         3
     Eigenvalues --  4729.846756282.108778435.15347
           X            0.99967  -0.00787   0.02430
           Y            0.00867   0.99941  -0.03314
           Z           -0.02403   0.03334   0.99916
 This molecule is an asymmetric top.
 Rotational symmetry number  1.
 Warning -- assumption of classical behavior for rotation
           may cause significant error
 Rotational temperatures (Kelvin)      0.01831     0.01379     0.01027
 Rotational constants (GHZ):           0.38156     0.28728     0.21395
    1 imaginary frequencies ignored.
 Zero-point vibrational energy     744389.9 (Joules/Mol)
                                  177.91346 (Kcal/Mol)
 Warning -- explicit consideration of  24 degrees of freedom as
           vibrations may cause significant error
 Vibrational temperatures:     49.78    50.82    79.20    94.39   121.14
          (Kelvin)            141.38   166.83   212.69   237.84   251.96
                              281.86   317.51   359.11   376.41   393.41
                              406.01   450.35   486.04   600.00   611.65
                              643.20   721.12   760.20   799.04   895.30
                              906.87   918.34   943.50  1010.74  1037.74
                             1040.34  1050.31  1106.13  1148.53  1194.02
                             1254.02  1262.94  1301.62  1378.19  1382.41
                             1455.49  1457.30  1465.62  1474.99  1477.49
                             1479.94  1488.45  1493.05  1523.58  1535.82
                             1537.74  1548.60  1595.34  1620.21  1649.97
                             1698.86  1709.12  1735.94  1740.18  1760.15
                             1797.24  1882.96  1901.82  1931.57  1943.50
                             1956.94  1966.22  1990.53  2095.60  2114.54
                             2142.21  2145.92  2151.93  2155.03  2220.89
                             2224.82  2364.92  2366.36  2375.74  2378.14
                             2409.10  2410.52  4236.97  4440.02  4558.07
                             4584.14  4587.83  4595.26  4606.73  4608.92
                             4617.00  4619.84  4631.16  4634.52  4648.31
                             4652.84  5053.19  5166.97

 Zero-point correction=                           0.283523 (Hartree/Particle)
 Thermal correction to Energy=                    0.301123
 Thermal correction to Enthalpy=                  0.302068
 Thermal correction to Gibbs Free Energy=         0.236403
 Sum of electronic and zero-point Energies=          -3323.213917
 Sum of electronic and thermal Energies=             -3323.196317
 Sum of electronic and thermal Enthalpies=           -3323.195373
 Sum of electronic and thermal Free Energies=        -3323.261037

                     E (Thermal)             CV                S
                      KCal/Mol        Cal/Mol-Kelvin    Cal/Mol-Kelvin
 Total                  188.958             66.130            138.202
 Electronic               0.000              0.000              0.000
 Translational            0.889              2.981             43.157
 Rotational               0.889              2.981             33.882
 Vibrational            187.180             60.168             61.162
 Vibration     1          0.594              1.983              5.547
 Vibration     2          0.594              1.982              5.505
 Vibration     3          0.596              1.976              4.627
 Vibration     4          0.597              1.971              4.281
 Vibration     5          0.601              1.960              3.791
 Vibration     6          0.604              1.950              3.489
 Vibration     7          0.608              1.936              3.167
 Vibration     8          0.617              1.905              2.700
 Vibration     9          0.624              1.885              2.488
 Vibration    10          0.627              1.873              2.380
 Vibration    11          0.636              1.846              2.171
 Vibration    12          0.647              1.810              1.954
 Vibration    13          0.662              1.763              1.733
 Vibration    14          0.669              1.743              1.651
 Vibration    15          0.676              1.722              1.574
 Vibration    16          0.681              1.707              1.520
 Vibration    17          0.701              1.649              1.346
 Vibration    18          0.718              1.600              1.222
 Vibration    19          0.780              1.433              0.902
 Vibration    20          0.787              1.416              0.875
 Vibration    21          0.806              1.367              0.805
 Vibration    22          0.857              1.247              0.655
 Vibration    23          0.883              1.187              0.591
 Vibration    24          0.911              1.128              0.533

 Optimization completed.
    -- Stationary point found.
 Normal termination of Gaussian 16 at Sun Feb  7 03:07:56 2021.
