 Gaussian 16, Revision A.03,
 Gaussian 16:  ES64L-G16RevA.03 25-Dec-2016

 ----------------------------------------------------------------------
 # wB97XD def2tzvp, opt=(ts, noeigen, calcfc, maxcycles=70, maxstep=5),
  freq=noraman, scrf=(iefpcm, solvent=water)
 ----------------------------------------------------------------------

 ------------------------
 2_iteration/TS-100-2.out
 ------------------------
 Symbolic Z-matrix:
 Charge =  0 Multiplicity = 1

 SCF Done:  E(RwB97XD) =  -712.023479556     A.U. after   14 cycles
 SCF Done:  E(RwB97XD) =  -712.023708713     A.U. after   12 cycles
 SCF Done:  E(RwB97XD) =  -712.023714652     A.U. after    9 cycles
 SCF Done:  E(RwB97XD) =  -712.023715373     A.U. after    8 cycles
 SCF Done:  E(RwB97XD) =  -712.023715488     A.U. after    8 cycles
 Optimization completed.
    -- Stationary point found.
 Normal termination of Gaussian 16 at Sun Jan 31 16:36:14 2021.

 ---------------------------------------------------------------------
 #N Geom=AllCheck Guess=TCheck SCRF=Check GenChk RwB97XD/def2TZVP Freq
 ---------------------------------------------------------------------

 Structure from the checkpoint file:  "/beegfs/scratch/user/q/tla25/Gau-2944.chk"
 ------------------------
 2_iteration/TS-100-2.out
 ------------------------
 Charge =  0 Multiplicity = 1

                         Standard orientation:
 ---------------------------------------------------------------------
 Center     Atomic      Atomic             Coordinates (Angstroms)
 Number     Number       Type             X           Y           Z
 ---------------------------------------------------------------------
      1          6           0       -0.942243   -0.937026    0.068877
      2          6           0       -2.356810   -0.852133    0.022900
      3          8           0       -3.139947   -1.781356   -0.181902
      4          6           0       -0.102237    0.182452    0.384926
      5          6           0        0.365443    2.715718   -0.993571
      6          1           0        0.136506    3.290369   -1.891659
      7          1           0        0.118092    3.314639   -0.120526
      8          1           0        1.429669    2.484659   -0.978819
      9          7           0       -0.396480    1.467786   -0.957231
     10          1           0       -1.391970    1.624854   -0.826515
     11          1           0       -0.291002    0.942831   -1.816666
     12          6           0        1.384420   -0.047700    0.229551
     13          6           0        1.927156   -0.397912   -1.007441
     14          6           0        3.286306   -0.601477   -1.165088
     15          6           0        4.141210   -0.473107   -0.078295
     16          6           0        3.617984   -0.136737    1.158352
     17          6           0        2.254129    0.081731    1.307565
     18          1           0        1.280037   -0.529602   -1.865321
     19          1           0        3.678934   -0.865883   -2.138740
     20          1           0        5.204916   -0.634763   -0.197567
     21          1           0        4.270558   -0.036198    2.016417
     22          1           0        1.876777    0.347824    2.284824
     23          6           0       -0.442542    1.051300    1.585909
     24          1           0       -0.307677    0.456749    2.490239
     25          1           0        0.207651    1.923004    1.658294
     26          1           0       -1.476763    1.374425    1.558479
     27          6           0       -0.384618   -2.283401   -0.342533
     28          1           0        0.597022   -2.472220    0.090983
     29          1           0       -1.053910   -3.069537    0.008226
     30          1           0       -0.289389   -2.416024   -1.427723
     31          8           0       -2.870819    0.422304    0.152742
     32          6           0       -4.281608    0.544854    0.119951
     33          1           0       -4.492202    1.603814    0.255554
     34          1           0       -4.687491    0.207751   -0.834687
     35          1           0       -4.747825   -0.028156    0.922469
 ---------------------------------------------------------------------

 SCF Done:  E(RwB97XD) =  -712.023715488     A.U. after    1 cycles

 The electronic state is 1-A.
 Alpha  occ. eigenvalues --  -19.27091 -19.19456 -14.48338 -10.37629 -10.35360
 Alpha  occ. eigenvalues --  -10.32155 -10.31736 -10.30415 -10.29335 -10.29277
 Alpha  occ. eigenvalues --  -10.29234 -10.29191 -10.29135 -10.27233 -10.25913
 Alpha  occ. eigenvalues --  -10.24629  -1.17835  -1.08005  -1.04063  -0.97321
 Alpha  occ. eigenvalues --   -0.91533  -0.85675  -0.85227  -0.82441  -0.80544
 Alpha  occ. eigenvalues --   -0.79173  -0.74132  -0.71655  -0.70532  -0.66617
 Alpha  occ. eigenvalues --   -0.63831  -0.62220  -0.60570  -0.58701  -0.56619
 Alpha  occ. eigenvalues --   -0.56074  -0.55540  -0.54583  -0.54074  -0.52238
 Alpha  occ. eigenvalues --   -0.51654  -0.51211  -0.50428  -0.48958  -0.48276
 Alpha  occ. eigenvalues --   -0.47932  -0.46814  -0.46567  -0.45209  -0.44444
 Alpha  occ. eigenvalues --   -0.44404  -0.43170  -0.42082  -0.41586  -0.40614
 Alpha  occ. eigenvalues --   -0.36956  -0.34379  -0.34027  -0.32944  -0.25058
 Alpha virt. eigenvalues --    0.03166   0.05056   0.08847   0.09915   0.12518
 Alpha virt. eigenvalues --    0.13044   0.13810   0.14328   0.15057   0.16169
 Alpha virt. eigenvalues --    0.16812   0.17227   0.17958   0.18243   0.18652

 Mulliken charges:
               1
     1  C   -0.334124
     2  C    0.408157
     3  O   -0.548661
     4  C    0.344260
     5  C   -0.298072
     6  H    0.156122
     7  H    0.158609
     8  H    0.157536
     9  N   -0.305162
    10  H    0.281233
    11  H    0.269863
    12  C    0.122977
    13  C   -0.320130
    14  C   -0.129873
    15  C   -0.144516
    16  C   -0.157416
    17  C   -0.214310
    18  H    0.160316
    19  H    0.143953
    20  H    0.144829
    21  H    0.142634
    22  H    0.154024
    23  C   -0.460056
    24  H    0.146334
    25  H    0.146510
    26  H    0.170938
    27  C   -0.374823
    28  H    0.129402
    29  H    0.123405
    30  H    0.101107
    31  O   -0.352540
    32  C   -0.199917
    33  H    0.133211
    34  H    0.121559
    35  H    0.122619
 Sum of Mulliken charges =  -0.00000

 Dipole moment (field-independent basis, Debye):
    X=              5.0546    Y=              8.7104    Z=             -1.8553  Tot=             10.2402
 Quadrupole moment (field-independent basis, Debye-Ang):
   XX=           -100.6187   YY=           -101.1817   ZZ=            -87.7912
   XY=            -17.5406   XZ=             -0.5895   YZ=             -2.9875

  Exact polarizability: 293.974  12.998 213.894  -0.309   5.578 212.048
 Approx polarizability: 216.332   6.876 173.226   1.436   5.648 183.499

 ******    1 imaginary frequencies (negative Signs) ******

                      1                      2                      3
                      A                      A                      A
 Frequencies --   -369.1723                32.2179                64.6370
 Red. masses --      5.8214                 3.6737                 3.3198
 Frc consts  --      0.4674                 0.0022                 0.0082
 IR Inten    --    816.4268                 1.4963                 3.1940

                      4                      5                      6
                      A                      A                      A
 Frequencies --     79.5994                84.3750                98.2832
 Red. masses --      2.9238                 3.6179                 2.6878
 Frc consts  --      0.0109                 0.0152                 0.0153
 IR Inten    --      0.0828                 2.2248                 2.4840

                      7                      8                      9
                      A                      A                      A
 Frequencies --    116.4286               134.0487               158.8105
 Red. masses --      3.4794                 1.8780                 1.3196
 Frc consts  --      0.0278                 0.0199                 0.0196
 IR Inten    --     14.7083                 5.0921                 0.6626

                     10                     11                     12
                      A                      A                      A
 Frequencies --    171.5213               185.5877               198.4270
 Red. masses --      1.4413                 1.5457                 2.4914
 Frc consts  --      0.0250                 0.0314                 0.0578
 IR Inten    --      1.0603                 0.8412                 2.8553

                     13                     14                     15
                      A                      A                      A
 Frequencies --    223.8180               275.1756               285.5197
 Red. masses --      1.8559                 3.4931                 2.8635
 Frc consts  --      0.0548                 0.1558                 0.1375
 IR Inten    --      2.5092                12.0074                 6.1016

                     16                     17                     18
                      A                      A                      A
 Frequencies --    317.5331               323.5963               347.8336
 Red. masses --      3.7926                 1.4029                 2.8361
 Frc consts  --      0.2253                 0.0866                 0.2022
 IR Inten    --     31.6245                12.2355                 0.9900

                     19                     20                     21
                      A                      A                      A
 Frequencies --    356.1718               387.4312               398.7900
 Red. masses --      2.7218                 3.0489                 3.6066
 Frc consts  --      0.2034                 0.2696                 0.3379
 IR Inten    --     22.2308                10.8231                11.4925

                     22                     23                     24
                      A                      A                      A
 Frequencies --    425.5223               452.7588               510.5942
 Red. masses --      2.8804                 4.1659                 3.9387
 Frc consts  --      0.3073                 0.5031                 0.6050
 IR Inten    --      0.8680                50.5337                38.9049

                     25                     26                     27
                      A                      A                      A
 Frequencies --    544.4632               610.5091               638.3877
 Red. masses --      3.3041                 3.9477                 6.2662
 Frc consts  --      0.5771                 0.8669                 1.5046
 IR Inten    --     67.2553                71.7306                 3.4926

                     28                     29                     30
                      A                      A                      A
 Frequencies --    646.7207               711.4637               732.8077
 Red. masses --      4.0046                 1.4244                 1.4071
 Frc consts  --      0.9868                 0.4248                 0.4452
 IR Inten    --     40.0551                51.6428                81.1621

                     31                     32                     33
                      A                      A                      A
 Frequencies --    738.3685               790.0872               803.8797
 Red. masses --      5.0471                 8.0541                 2.3328
 Frc consts  --      1.6212                 2.9622                 0.8882
 IR Inten    --     35.5972                45.5255                13.9616

                     34                     35                     36
                      A                      A                      A
 Frequencies --    849.8656               877.7409               939.9799
 Red. masses --      3.1546                 1.2481                 1.9476
 Frc consts  --      1.3424                 0.5665                 1.0139
 IR Inten    --     51.1853                 1.1709                81.3538

                     37                     38                     39
                      A                      A                      A
 Frequencies --    961.8339              1009.8838              1014.9419
 Red. masses --      1.4234                 1.8326                 1.4077
 Frc consts  --      0.7759                 1.1012                 0.8544
 IR Inten    --      3.8382                50.0592                 0.5345

                     40                     41                     42
                      A                      A                      A
 Frequencies --   1026.8338              1031.0511              1032.0270
 Red. masses --      4.3304                 1.4787                 1.3403
 Frc consts  --      2.6902                 0.9262                 0.8411
 IR Inten    --      2.8049                73.0407                17.1904

                     43                     44                     45
                      A                      A                      A
 Frequencies --   1053.1115              1059.1134              1064.2651
 Red. masses --      1.3875                 2.1065                 2.4682
 Frc consts  --      0.9066                 1.3922                 1.6471
 IR Inten    --    112.1056                 5.9471                19.9135

                     46                     47                     48
                      A                      A                      A
 Frequencies --   1067.1404              1093.0957              1110.6703
 Red. masses --      1.3802                 2.0179                 1.8047
 Frc consts  --      0.9260                 1.4206                 1.3117
 IR Inten    --     29.0620                29.6318               179.8528

                     49                     50                     51
                      A                      A                      A
 Frequencies --   1114.5331              1142.9544              1160.1306
 Red. masses --      2.0598                 2.1836                 4.4653
 Frc consts  --      1.5075                 1.6807                 3.5409
 IR Inten    --      1.8945               207.5949               281.9674

                     52                     53                     54
                      A                      A                      A
 Frequencies --   1182.4702              1187.6083              1208.3698
 Red. masses --      1.2841                 1.1303                 1.4998
 Frc consts  --      1.0579                 0.9393                 1.2903
 IR Inten    --      2.7865                 0.2336                98.7726

                     55                     56                     57
                      A                      A                      A
 Frequencies --   1226.8047              1239.5290              1267.8544
 Red. masses --      1.1559                 1.3700                 3.7676
 Frc consts  --      1.0250                 1.2402                 3.5682
 IR Inten    --      2.9085                45.4917                36.0963

                     58                     59                     60
                      A                      A                      A
 Frequencies --   1320.6668              1336.5265              1369.1135
 Red. masses --      4.7442                 1.4817                 1.9309
 Frc consts  --      4.8753                 1.5595                 2.1324
 IR Inten    --     32.1529                42.0841               147.7793

                     61                     62                     63
                      A                      A                      A
 Frequencies --   1378.4126              1393.5952              1411.0621
 Red. masses --      2.0770                 3.1475                 1.2492
 Frc consts  --      2.3251                 3.6015                 1.4655
 IR Inten    --    254.4296               347.1886                77.7534

                     64                     65                     66
                      A                      A                      A
 Frequencies --   1415.8856              1461.4684              1476.0615
 Red. masses --      1.3751                 1.1915                 1.1709
 Frc consts  --      1.6242                 1.4994                 1.5031
 IR Inten    --    111.7538                 4.2207                46.7637

                     67                     68                     69
                      A                      A                      A
 Frequencies --   1479.4646              1484.3698              1490.8057
 Red. masses --      1.0495                 1.0536                 1.3128
 Frc consts  --      1.3534                 1.3677                 1.7191
 IR Inten    --     13.1880                20.6147                19.5147

                     70                     71                     72
                      A                      A                      A
 Frequencies --   1495.0119              1496.9124              1500.7175
 Red. masses --      1.1426                 1.3429                 1.0927
 Frc consts  --      1.5047                 1.7730                 1.4499
 IR Inten    --      5.8491                14.8526                14.7998

                     73                     74                     75
                      A                      A                      A
 Frequencies --   1505.8349              1508.9829              1518.5036
 Red. masses --      1.0523                 1.0723                 1.0943
 Frc consts  --      1.4059                 1.4385                 1.4867
 IR Inten    --     10.8978                53.5222                67.5053

                     76                     77                     78
                      A                      A                      A
 Frequencies --   1550.5348              1646.9868              1654.9616
 Red. masses --      2.2256                 4.1328                 5.6599
 Frc consts  --      3.1525                 6.6051                 9.1334
 IR Inten    --      5.4728              1329.0160               131.0542

                     79                     80                     81
                      A                      A                      A
 Frequencies --   1659.2155              1678.8537              3000.1484
 Red. masses --      1.2848                 5.6660                 1.0578
 Frc consts  --      2.0840                 9.4091                 5.6099
 IR Inten    --     79.5908                 1.8227               130.1081

                     82                     83                     84
                      A                      A                      A
 Frequencies --   3055.6335              3070.2066              3074.7061
 Red. masses --      1.0306                 1.0351                 1.0400
 Frc consts  --      5.6696                 5.7485                 5.7928
 IR Inten    --     85.1621                37.4453                37.5483

                     85                     86                     87
                      A                      A                      A
 Frequencies --   3091.4175              3127.9114              3134.3845
 Red. masses --      1.0771                 1.1063                 1.1010
 Frc consts  --      6.0650                 6.3772                 6.3729
 IR Inten    --     48.4700                47.4652                32.0521

                     88                     89                     90
                      A                      A                      A
 Frequencies --   3138.7019              3147.0522              3158.0323
 Red. masses --      1.1017                 1.1040                 1.1050
 Frc consts  --      6.3946                 6.4421                 6.4929
 IR Inten    --     36.9241                13.6812                30.6408

                     91                     92                     93
                      A                      A                      A
 Frequencies --   3175.4007              3195.5220              3197.8720
 Red. masses --      1.1044                 1.0860                 1.0989
 Frc consts  --      6.5613                 6.5337                 6.6209
 IR Inten    --     14.8878                 4.1784                 4.0788

                     94                     95                     96
                      A                      A                      A
 Frequencies --   3202.2542              3211.4624              3221.8477
 Red. masses --      1.0887                 1.0932                 1.0970
 Frc consts  --      6.5779                 6.6429                 6.7093
 IR Inten    --      4.1526                31.8429                24.5547

                     97                     98                     99
                      A                      A                      A
 Frequencies --   3233.4358              3508.2088              3595.3700
 Red. masses --      1.0938                 1.0549                 1.0926
 Frc consts  --      6.7376                 7.6492                 8.3215
 IR Inten    --     10.1253                58.3690                60.8812

 - Thermochemistry -
 -------------------
 Temperature   298.150 Kelvin.  Pressure   1.00000 Atm.
 Atom     1 has atomic number  6 and mass  12.00000

 Molecular mass:   221.14158 amu.
 Principal axes and moments of inertia in atomic units:
                           1         2         3
     Eigenvalues --  1820.426585428.073686061.26606
           X            0.99993  -0.01191  -0.00197
           Y            0.01193   0.99990   0.00814
           Z            0.00187  -0.00817   0.99996
 This molecule is an asymmetric top.
 Rotational symmetry number  1.
 Warning -- assumption of classical behavior for rotation
           may cause significant error
 Rotational temperatures (Kelvin)      0.04758     0.01596     0.01429
 Rotational constants (GHZ):           0.99138     0.33248     0.29775
    1 imaginary frequencies ignored.
 Zero-point vibrational energy     792769.4 (Joules/Mol)
                                  189.47643 (Kcal/Mol)
 Warning -- explicit consideration of  25 degrees of freedom as
           vibrations may cause significant error
 Vibrational temperatures:     46.35    93.00   114.53   121.40   141.41
          (Kelvin)            167.51   192.87   228.49   246.78   267.02
                              285.49   322.02   395.92   410.80   456.86
                              465.58   500.46   512.45   557.43   573.77
                              612.23   651.42   734.63   783.36   878.39
                              918.50   930.49  1023.64  1054.35  1062.35
                             1136.76  1156.60  1222.77  1262.87  1352.42
                             1383.86  1453.00  1460.28  1477.38  1483.45
                             1484.86  1515.19  1523.83  1531.24  1535.38
                             1572.72  1598.01  1603.56  1644.46  1669.17
                             1701.31  1708.70  1738.57  1765.10  1783.41
                             1824.16  1900.14  1922.96  1969.85  1983.23
                             2005.07  2030.20  2037.14  2102.73  2123.72
                             2128.62  2135.68  2144.94  2150.99  2153.72
                             2159.20  2166.56  2171.09  2184.79  2230.87
                             2369.65  2381.12  2387.24  2415.50  4316.54
                             4396.38  4417.34  4423.82  4447.86  4500.37
                             4509.68  4515.89  4527.91  4543.70  4568.69
                             4597.64  4601.02  4607.33  4620.58  4635.52
                             4652.19  5047.53  5172.94

 Zero-point correction=                           0.301950 (Hartree/Particle)
 Thermal correction to Energy=                    0.318735
 Thermal correction to Enthalpy=                  0.319679
 Thermal correction to Gibbs Free Energy=         0.257700
 Sum of electronic and zero-point Energies=           -711.721766
 Sum of electronic and thermal Energies=              -711.704980
 Sum of electronic and thermal Enthalpies=            -711.704036
 Sum of electronic and thermal Free Energies=         -711.766016

                     E (Thermal)             CV                S
                      KCal/Mol        Cal/Mol-Kelvin    Cal/Mol-Kelvin
 Total                  200.009             62.763            130.447
 Electronic               0.000              0.000              0.000
 Translational            0.889              2.981             42.084
 Rotational               0.889              2.981             32.460
 Vibrational            198.232             56.801             55.903
 Vibration     1          0.594              1.983              5.688
 Vibration     2          0.597              1.971              4.310
 Vibration     3          0.600              1.963              3.901
 Vibration     4          0.601              1.960              3.786
 Vibration     5          0.604              1.950              3.488
 Vibration     6          0.608              1.936              3.159
 Vibration     7          0.613              1.919              2.887
 Vibration     8          0.621              1.893              2.564
 Vibration     9          0.626              1.878              2.419
 Vibration    10          0.632              1.860              2.271
 Vibration    11          0.637              1.842              2.148
 Vibration    12          0.649              1.805              1.928
 Vibration    13          0.677              1.719              1.563
 Vibration    14          0.683              1.701              1.500
 Vibration    15          0.704              1.640              1.323
 Vibration    16          0.708              1.628              1.292
 Vibration    17          0.725              1.580              1.176
 Vibration    18          0.732              1.563              1.139
 Vibration    19          0.756              1.497              1.010
 Vibration    20          0.765              1.473              0.967
 Vibration    21          0.787              1.415              0.873
 Vibration    22          0.811              1.355              0.787
 Vibration    23          0.866              1.227              0.632
 Vibration    24          0.900              1.152              0.556
 Vibration    25          0.970              1.010              0.432

 Optimization completed.
    -- Stationary point found.
 Normal termination of Gaussian 16 at Sun Jan 31 18:05:54 2021.
