 Gaussian 16, Revision A.03,
 Gaussian 16:  ES64L-G16RevA.03 25-Dec-2016

 ----------------------------------------------------------------------
 # wB97XD def2tzvp, opt=(ts, noeigen, calcfc, maxcycles=70, maxstep=5),
  freq=noraman, scrf=(iefpcm, solvent=water)
 ----------------------------------------------------------------------

 ------------------------
 2_iteration/TS-154-2.out
 ------------------------
 Symbolic Z-matrix:
 Charge =  0 Multiplicity = 1

 SCF Done:  E(RwB97XD) =  -3591.37349945     A.U. after   15 cycles
 Optimization completed.
    -- Stationary point found.
 Normal termination of Gaussian 16 at Sun Feb  7 15:08:15 2021.

 ---------------------------------------------------------------------
 #N Geom=AllCheck Guess=TCheck SCRF=Check GenChk RwB97XD/def2TZVP Freq
 ---------------------------------------------------------------------

 Structure from the checkpoint file:  "/beegfs/scratch/user/q/tla25/Gau-68796.chk"
 ------------------------
 2_iteration/TS-154-2.out
 ------------------------
 Charge =  0 Multiplicity = 1

                         Standard orientation:
 ---------------------------------------------------------------------
 Center     Atomic      Atomic             Coordinates (Angstroms)
 Number     Number       Type             X           Y           Z
 ---------------------------------------------------------------------
      1          6           0        1.025918   -0.773051   -0.322851
      2          6           0        2.459948   -0.612803   -0.338381
      3          8           0        2.985889    0.391017    0.144159
      4          6           0        0.134929    0.212669    0.065249
      5          6           0        0.883788   -0.547351    2.801189
      6          1           0        1.595739   -0.333442    3.598999
      7          1           0       -0.037212   -0.925701    3.238249
      8          1           0        1.308418   -1.319662    2.156459
      9          7           0        0.619129    0.631109    1.989919
     10          1           0       -0.003930    1.297939    2.429069
     11          1           0        1.488940    1.098518    1.756239
     12          6           0       -1.340891   -0.034550    0.028409
     13          6           0       -1.943101   -0.109889   -1.229131
     14          6           0       -3.298231   -0.353078   -1.349101
     15          6           0       -4.080212   -0.522037   -0.213251
     16          6           0       -3.490581   -0.445988    1.036099
     17          6           0       -2.128011   -0.203239    1.157999
     18          1           0       -1.338871    0.020630   -2.117991
     19          1           0       -3.745951   -0.410028   -2.332891
     20          1           0       -5.142082   -0.710187   -0.305261
     21          1           0       -4.087592   -0.575047    1.929609
     22          1           0       -1.700461   -0.155909    2.146879
     23         35           0        0.480871    2.050979   -0.545221
     24         17           0        0.396707   -2.400061   -0.566191
     25          6           0        3.320078   -1.705603   -0.921041
     26          1           0        2.942207   -2.045283   -1.885501
     27          1           0        4.335948   -1.331314   -1.026021
     28          1           0        3.327537   -2.570123   -0.253721
 ---------------------------------------------------------------------

 SCF Done:  E(RwB97XD) =  -3591.37349945     A.U. after    1 cycles

 The electronic state is 1-A.
 Alpha  occ. eigenvalues -- -483.13212-101.69504 -62.68037 -56.47166 -56.46802
 Alpha  occ. eigenvalues --  -56.46781 -19.22610 -14.47892 -10.40724 -10.37281
 Alpha  occ. eigenvalues --  -10.32505 -10.31943 -10.31693 -10.30110 -10.29915
 Alpha  occ. eigenvalues --  -10.29635 -10.29606 -10.29537 -10.27814  -9.58032
 Alpha  occ. eigenvalues --   -8.82126  -7.32680  -7.31813  -7.31796  -6.64303
 Alpha  occ. eigenvalues --   -6.63151  -6.63082  -2.74679  -2.74367  -2.74313
 Alpha  occ. eigenvalues --   -2.73381  -2.73380  -1.13516  -1.03598  -0.99161
 Alpha  occ. eigenvalues --   -0.96626  -0.92069  -0.86300  -0.85907  -0.84386
 Alpha  occ. eigenvalues --   -0.81660  -0.78737  -0.74225  -0.71405  -0.68377
 Alpha  occ. eigenvalues --   -0.64318  -0.61807  -0.59064  -0.57529  -0.57010
 Alpha  occ. eigenvalues --   -0.56395  -0.55426  -0.54244  -0.53403  -0.52159
 Alpha  occ. eigenvalues --   -0.51431  -0.50473  -0.49285  -0.48156  -0.47337
 Alpha  occ. eigenvalues --   -0.46327  -0.45918  -0.44164  -0.43782  -0.43006
 Alpha  occ. eigenvalues --   -0.42194  -0.40554  -0.38401  -0.37067  -0.34496
 Alpha  occ. eigenvalues --   -0.33790  -0.32988  -0.28702
 Alpha virt. eigenvalues --    0.00834   0.02358   0.04673   0.06332   0.10685
 Alpha virt. eigenvalues --    0.11332   0.12785   0.13869   0.14304   0.15026
 Alpha virt. eigenvalues --    0.15931   0.16827   0.18123   0.18325   0.18459

 Mulliken charges:
               1
     1  C   -0.271177
     2  C    0.302876
     3  O   -0.487440
     4  C    0.273135
     5  C   -0.269358
     6  H    0.155753
     7  H    0.149923
     8  H    0.147057
     9  N   -0.392895
    10  H    0.291812
    11  H    0.280829
    12  C    0.171716
    13  C   -0.305122
    14  C   -0.115573
    15  C   -0.144834
    16  C   -0.165374
    17  C   -0.160570
    18  H    0.157819
    19  H    0.147938
    20  H    0.147934
    21  H    0.146034
    22  H    0.130368
    23  Br  -0.097787
    24  Cl  -0.136922
    25  C   -0.385070
    26  H    0.147766
    27  H    0.133100
    28  H    0.148062
 Sum of Mulliken charges =  -0.00000

 Dipole moment (field-independent basis, Debye):
    X=             -3.4064    Y=             -0.5826    Z=              4.5154  Tot=              5.6861
 Quadrupole moment (field-independent basis, Debye-Ang):
   XX=           -107.2026   YY=           -113.5179   ZZ=            -90.2988
   XY=             -4.0554   XZ=              0.7250   YZ=              2.3359

  Exact polarizability: 278.326   7.175 223.988  -8.309   7.587 238.926
 Approx polarizability: 214.999  11.500 188.751  -4.016   5.818 203.538

 ******    1 imaginary frequencies (negative Signs) ******

                      1                      2                      3
                      A                      A                      A
 Frequencies --   -346.5162                28.6603                64.7130
 Red. masses --      5.3982                 3.7740                 5.5661
 Frc consts  --      0.3819                 0.0018                 0.0137
 IR Inten    --    497.4831                 0.2498                 2.4116

                      4                      5                      6
                      A                      A                      A
 Frequencies --     74.7826                79.1199               117.2264
 Red. masses --      5.6328                 3.8283                 3.8259
 Frc consts  --      0.0186                 0.0141                 0.0310
 IR Inten    --      0.4953                 5.4317                 2.0607

                      7                      8                      9
                      A                      A                      A
 Frequencies --    125.7286               141.9736               159.2199
 Red. masses --      2.9202                 2.2378                 1.1393
 Frc consts  --      0.0272                 0.0266                 0.0170
 IR Inten    --      1.8313                 9.4680                 0.2337

                     10                     11                     12
                      A                      A                      A
 Frequencies --    164.5701               175.9641               204.0983
 Red. masses --      2.4253                 4.4215                 2.9199
 Frc consts  --      0.0387                 0.0807                 0.0717
 IR Inten    --      3.0823                 0.3938                14.5397

                     13                     14                     15
                      A                      A                      A
 Frequencies --    238.2944               256.0333               263.7427
 Red. masses --      5.5796                 8.3543                 5.7569
 Frc consts  --      0.1867                 0.3227                 0.2359
 IR Inten    --      3.3478                 4.4426                 5.8691

                     16                     17                     18
                      A                      A                      A
 Frequencies --    298.4104               313.6433               332.7240
 Red. masses --      3.0298                 4.7128                 5.4950
 Frc consts  --      0.1590                 0.2731                 0.3584
 IR Inten    --     19.9622                 3.2964                12.1542

                     19                     20                     21
                      A                      A                      A
 Frequencies --    418.9784               456.3323               503.7781
 Red. masses --      2.8850                 7.3341                 4.1266
 Frc consts  --      0.2984                 0.8998                 0.6171
 IR Inten    --      0.1072                 6.6011                27.4211

                     22                     23                     24
                      A                      A                      A
 Frequencies --    544.6275               553.7982               620.4167
 Red. masses --      3.4762                 3.7585                 2.1006
 Frc consts  --      0.6075                 0.6791                 0.4764
 IR Inten    --     74.8830                51.8741                98.2806

                     25                     26                     27
                      A                      A                      A
 Frequencies --    636.7803               660.2258               668.5575
 Red. masses --      6.0244                 2.4005                 3.8590
 Frc consts  --      1.4393                 0.6165                 1.0162
 IR Inten    --      1.7393                75.0644                59.2314

                     28                     29                     30
                      A                      A                      A
 Frequencies --    722.9260               739.4783               809.5543
 Red. masses --      1.8224                 2.8152                 2.5954
 Frc consts  --      0.5612                 0.9070                 1.0022
 IR Inten    --     40.3304               262.2686                 5.9960

                     31                     32                     33
                      A                      A                      A
 Frequencies --    857.2146               872.2207               958.1871
 Red. masses --      5.2024                 1.2586                 1.4372
 Frc consts  --      2.2523                 0.5642                 0.7774
 IR Inten    --     20.9460                 1.2673                 1.7577

                     34                     35                     36
                      A                      A                      A
 Frequencies --    976.0445               999.4752              1013.0119
 Red. masses --      1.1235                 2.0028                 1.3741
 Frc consts  --      0.6306                 1.1788                 0.8308
 IR Inten    --     87.1781                41.3661                 0.9338

                     37                     38                     39
                      A                      A                      A
 Frequencies --   1025.3944              1029.7857              1033.8867
 Red. masses --      5.5039                 2.5847                 1.3809
 Frc consts  --      3.4096                 1.6150                 0.8697
 IR Inten    --      3.6056                15.1705                 2.9921

                     40                     41                     42
                      A                      A                      A
 Frequencies --   1046.4715              1063.3997              1071.7476
 Red. masses --      1.8365                 1.7312                 2.0898
 Frc consts  --      1.1849                 1.1534                 1.4143
 IR Inten    --      7.5963                84.9168                45.1167

                     43                     44                     45
                      A                      A                      A
 Frequencies --   1086.4733              1130.8703              1187.5692
 Red. masses --      2.3968                 1.6127                 1.1614
 Frc consts  --      1.6670                 1.2151                 0.9650
 IR Inten    --      9.0809                 8.2608                 1.1872

                     46                     47                     48
                      A                      A                      A
 Frequencies --   1197.0182              1206.7968              1232.1996
 Red. masses --      1.4114                 3.5691                 1.1764
 Frc consts  --      1.1915                 3.0625                 1.0523
 IR Inten    --     29.5359                57.8512                 1.6589

                     49                     50                     51
                      A                      A                      A
 Frequencies --   1298.9351              1323.1460              1348.5059
 Red. masses --      4.0480                 4.7088                 1.3077
 Frc consts  --      4.0241                 4.8571                 1.4011
 IR Inten    --    188.0851                76.8362                29.2928

                     52                     53                     54
                      A                      A                      A
 Frequencies --   1376.9133              1392.4949              1429.3508
 Red. masses --      1.3653                 1.4348                 3.0796
 Frc consts  --      1.5251                 1.6392                 3.7069
 IR Inten    --      9.8859                16.4339               832.8729

                     55                     56                     57
                      A                      A                      A
 Frequencies --   1455.9959              1461.2363              1468.6125
 Red. masses --      1.1031                 1.2873                 1.0898
 Frc consts  --      1.3778                 1.6194                 1.3848
 IR Inten    --     42.4970                99.9631                51.1488

                     58                     59                     60
                      A                      A                      A
 Frequencies --   1486.4821              1489.7064              1506.9236
 Red. masses --      1.0440                 2.2014                 1.0492
 Frc consts  --      1.3592                 2.8785                 1.4038
 IR Inten    --     12.8913                29.7740                19.4244

                     61                     62                     63
                      A                      A                      A
 Frequencies --   1549.7923              1640.0314              1653.9797
 Red. masses --      2.3040                 1.2129                 5.1955
 Frc consts  --      3.2604                 1.9221                 8.3742
 IR Inten    --      4.6112               162.8059                11.7956

                     64                     65                     66
                      A                      A                      A
 Frequencies --   1676.2893              1680.4925              3059.1710
 Red. masses --      5.8384                 5.4717                 1.0351
 Frc consts  --      9.6659                 9.1043                 5.7073
 IR Inten    --     10.4788               216.2955                39.2390

                     67                     68                     69
                      A                      A                      A
 Frequencies --   3063.4756              3127.0418              3134.8775
 Red. masses --      1.0372                 1.1032                 1.0987
 Frc consts  --      5.7350                 6.3561                 6.3618
 IR Inten    --      4.4815                14.5893                 9.6621

                     70                     71                     72
                      A                      A                      A
 Frequencies --   3166.8546              3170.2587              3199.7012
 Red. masses --      1.1037                 1.1045                 1.0864
 Frc consts  --      6.5217                 6.5404                 6.5531
 IR Inten    --     19.8245                21.1337                 0.5906

                     73                     74                     75
                      A                      A                      A
 Frequencies --   3206.6496              3215.5610              3225.3807
 Red. masses --      1.0895                 1.0940                 1.0984
 Frc consts  --      6.6005                 6.6649                 6.7326
 IR Inten    --      4.0897                20.7264                18.5698

                     76                     77                     78
                      A                      A                      A
 Frequencies --   3269.3269              3514.8213              3608.0027
 Red. masses --      1.0905                 1.0520                 1.0954
 Frc consts  --      6.8672                 7.6576                 8.4017
 IR Inten    --      9.0588                35.0248                76.9672

 - Thermochemistry -
 -------------------
 Temperature   298.150 Kelvin.  Pressure   1.00000 Atm.
 Atom     1 has atomic number  6 and mass  12.00000

 Molecular mass:   288.98690 amu.
 Principal axes and moments of inertia in atomic units:
                           1         2         3
     Eigenvalues --  3368.353075111.724626149.16267
           X            0.99910  -0.04222   0.00423
           Y            0.04203   0.99841   0.03752
           Z           -0.00581  -0.03731   0.99929
 This molecule is an asymmetric top.
 Rotational symmetry number  1.
 Warning -- assumption of classical behavior for rotation
           may cause significant error
 Rotational temperatures (Kelvin)      0.02571     0.01694     0.01409
 Rotational constants (GHZ):           0.53579     0.35306     0.29349
    1 imaginary frequencies ignored.
 Zero-point vibrational energy     577569.8 (Joules/Mol)
                                  138.04250 (Kcal/Mol)
 Warning -- explicit consideration of  23 degrees of freedom as
           vibrations may cause significant error
 Vibrational temperatures:     41.24    93.11   107.60   113.84   168.66
          (Kelvin)            180.90   204.27   229.08   236.78   253.17
                              293.65   342.85   368.37   379.47   429.35
                              451.26   478.72   602.82   656.56   724.82
                              783.60   796.79   892.64   916.18   949.92
                              961.91  1040.13  1063.94  1164.77  1233.34
                             1254.93  1378.62  1404.31  1438.02  1457.50
                             1475.31  1481.63  1487.53  1505.64  1530.00
                             1542.01  1563.19  1627.07  1708.65  1722.24
                             1736.31  1772.86  1868.88  1903.71  1940.20
                             1981.07  2003.49  2056.52  2094.85  2102.39
                             2113.01  2138.72  2143.36  2168.13  2229.81
                             2359.64  2379.71  2411.81  2417.85  4401.46
                             4407.66  4499.12  4510.39  4556.40  4561.30
                             4603.66  4613.65  4626.48  4640.60  4703.83
                             5057.04  5191.11

 Zero-point correction=                           0.219985 (Hartree/Particle)
 Thermal correction to Energy=                    0.235815
 Thermal correction to Enthalpy=                  0.236759
 Thermal correction to Gibbs Free Energy=         0.175440
 Sum of electronic and zero-point Energies=          -3591.153515
 Sum of electronic and thermal Energies=             -3591.137685
 Sum of electronic and thermal Enthalpies=           -3591.136741
 Sum of electronic and thermal Free Energies=        -3591.198059

                     E (Thermal)             CV                S
                      KCal/Mol        Cal/Mol-Kelvin    Cal/Mol-Kelvin
 Total                  147.976             56.986            129.056
 Electronic               0.000              0.000              0.000
 Translational            0.889              2.981             42.881
 Rotational               0.889              2.981             33.026
 Vibrational            146.199             51.024             53.149
 Vibration     1          0.593              1.984              5.920
 Vibration     2          0.597              1.971              4.308
 Vibration     3          0.599              1.966              4.023
 Vibration     4          0.600              1.963              3.913
 Vibration     5          0.608              1.935              3.146
 Vibration     6          0.611              1.927              3.010
 Vibration     7          0.615              1.911              2.777
 Vibration     8          0.621              1.892              2.559
 Vibration     9          0.623              1.886              2.497
 Vibration    10          0.628              1.872              2.371
 Vibration    11          0.640              1.834              2.096
 Vibration    12          0.656              1.782              1.816
 Vibration    13          0.666              1.753              1.689
 Vibration    14          0.670              1.739              1.637
 Vibration    15          0.691              1.677              1.426
 Vibration    16          0.701              1.648              1.343
 Vibration    17          0.715              1.610              1.247
 Vibration    18          0.782              1.429              0.895
 Vibration    19          0.815              1.347              0.777
 Vibration    20          0.859              1.242              0.649
 Vibration    21          0.900              1.151              0.555
 Vibration    22          0.909              1.131              0.536
 Vibration    23          0.980              0.989              0.416

 Optimization completed.
    -- Stationary point found.
 Normal termination of Gaussian 16 at Sun Feb  7 16:07:46 2021.
