 Gaussian 16, Revision C.01,
 Gaussian 16:  ES64L-G16RevC.01  3-Jul-2019

 ----------------------------------------------------------------------
 # opt=(calcfc,ts,noeigen,maxcycles=100,maxstep=10) freq=noraman wb97xd
  scrf=(iefpcm,solvent=water) def2tzvp
 ----------------------------------------------------------------------

 ----------
 TS-127.out
 ----------
 Symbolic Z-matrix:
 Charge =  0 Multiplicity = 1

 SCF Done:  E(RwB97XD) =  -3609.93688162     A.U. after   15 cycles
 SCF Done:  E(RwB97XD) =  -3609.93688163     A.U. after    6 cycles
 Optimization completed.
    -- Stationary point found.
 Normal termination of Gaussian 16 at Mon Jun  6 14:53:18 2022.

 ---------------------------------------------------------------------
 #N Geom=AllCheck Guess=TCheck SCRF=Check GenChk RwB97XD/def2TZVP Freq
 ---------------------------------------------------------------------

 Structure from the checkpoint file:  "/local/jobs/107528/Gau-962738.chk"
 ----------
 TS-127.out
 ----------
 Charge =  0 Multiplicity = 1

                         Standard orientation:
 ---------------------------------------------------------------------
 Center     Atomic      Atomic             Coordinates (Angstroms)
 Number     Number       Type             X           Y           Z
 ---------------------------------------------------------------------
      1          6           0        0.118997   -0.008395    0.008572
      2          6           0       -1.219983   -0.574089    0.119667
      3          8           0       -1.441501   -1.712051    0.545793
      4          6           0        1.223987   -0.846926    0.039107
      5          6           0        0.869077   -1.125032    2.924103
      6          1           0        0.261482   -0.259691    2.643717
      7          1           0        0.317347   -1.705757    3.664226
      8          1           0        1.802847   -0.783519    3.363196
      9          7           0        1.127802   -1.902379    1.725607
     10          1           0        1.934116   -2.509356    1.799100
     11          1           0        0.301404   -2.429822    1.461152
     12          6           0        2.607859   -0.277942    0.089468
     13          6           0        3.593036   -0.576129   -0.845783
     14          6           0        4.843489    0.021756   -0.775718
     15          6           0        5.136408    0.918187    0.238011
     16          6           0        4.163397    1.219843    1.181060
     17          6           0        2.914239    0.632243    1.103920
     18          1           0        3.385940   -1.270308   -1.646700
     19          1           0        5.589695   -0.219631   -1.521799
     20          1           0        6.113498    1.380707    0.294010
     21          1           0        4.374530    1.921127    1.978129
     22          1           0        2.160838    0.903405    1.827959
     23         35           0        1.135624   -2.507045   -1.076991
     24          6           0        0.286337    1.465662   -0.133792
     25          6           0       -0.194217    2.346323    0.837716
     26          6           0       -0.045211    3.717312    0.699458
     27          6           0        0.597069    4.239714   -0.414779
     28          6           0        1.073945    3.379657   -1.393514
     29          6           0        0.909515    2.009627   -1.257565
     30          1           0       -0.683805    1.946744    1.718333
     31          1           0       -0.421884    4.378949    1.469519
     32          1           0        0.721265    5.309941   -0.520792
     33          1           0        1.569019    3.776636   -2.271055
     34          1           0        1.276668    1.344071   -2.029145
     35          7           0       -2.243225    0.254383   -0.276604
     36          6           0       -3.625443    0.092511   -0.157864
     37          6           0       -4.422829    1.173166   -0.549464
     38          6           0       -5.800844    1.101300   -0.466808
     39          6           0       -6.417609   -0.048149    0.010419
     40          6           0       -5.629337   -1.119886    0.398098
     41          6           0       -4.244376   -1.064552    0.317547
     42          1           0       -1.954926    1.146830   -0.641934
     43          1           0       -3.951844    2.076569   -0.920381
     44          1           0       -6.395845    1.951497   -0.776152
     45          1           0       -7.496221   -0.105650    0.076435
     46          1           0       -6.094059   -2.024790    0.770301
     47          1           0       -3.641967   -1.906216    0.616050
 ---------------------------------------------------------------------

 SCF Done:  E(RwB97XD) =  -3609.93688163     A.U. after    1 cycles

 The electronic state is 1-A.
 Alpha  occ. eigenvalues -- -483.12067 -62.66902 -56.46009 -56.45675 -56.45660
 Alpha  occ. eigenvalues --  -19.21400 -14.47383 -14.46578 -10.39860 -10.39031
 Alpha  occ. eigenvalues --  -10.33886 -10.31415 -10.31377 -10.30369 -10.29645
 Alpha  occ. eigenvalues --  -10.29566 -10.29494 -10.29375 -10.29349 -10.29087
 Alpha  occ. eigenvalues --  -10.29036 -10.28976 -10.28931 -10.28901 -10.28900
 Alpha  occ. eigenvalues --  -10.28877 -10.28778 -10.28300 -10.28258 -10.27595
 Alpha  occ. eigenvalues --   -8.80992  -6.63097  -6.62048  -6.61998  -2.73482
 Alpha  occ. eigenvalues --   -2.73199  -2.73159  -2.72310  -2.72310  -1.14204
 Alpha  occ. eigenvalues --   -1.04406  -1.03124  -0.98225  -0.96773  -0.95498
 Alpha  occ. eigenvalues --   -0.92846  -0.87947  -0.86092  -0.85364  -0.85169
 Alpha  occ. eigenvalues --   -0.85054  -0.84621  -0.81612  -0.78422  -0.75529
 Alpha  occ. eigenvalues --   -0.72375  -0.71202  -0.70869  -0.70273  -0.69812
 Alpha  occ. eigenvalues --   -0.67191  -0.65138  -0.62986  -0.62849  -0.61890
 Alpha  occ. eigenvalues --   -0.60283  -0.58150  -0.57485  -0.56919  -0.55631
 Alpha  occ. eigenvalues --   -0.55346  -0.54979  -0.53826  -0.53641  -0.52949
 Alpha  occ. eigenvalues --   -0.52520  -0.52154  -0.51477  -0.51094  -0.50784
 Alpha  occ. eigenvalues --   -0.50541  -0.50061  -0.48398  -0.47789  -0.47275
 Alpha  occ. eigenvalues --   -0.46643  -0.46260  -0.44760  -0.44589  -0.43794
 Alpha  occ. eigenvalues --   -0.42950  -0.42839  -0.42411  -0.42232  -0.40032
 Alpha  occ. eigenvalues --   -0.37035  -0.36850  -0.35445  -0.34218  -0.34082
 Alpha  occ. eigenvalues --   -0.33799  -0.33452  -0.32770  -0.30563  -0.26868
 Alpha virt. eigenvalues --    0.00355   0.03452   0.04789   0.05214   0.05389
 Alpha virt. eigenvalues --    0.05739   0.06606   0.08895   0.10919   0.12419
 Alpha virt. eigenvalues --    0.12736   0.13560   0.13753   0.14209   0.14912

 Mulliken charges:
               1
     1  C   -0.283731
     2  C    0.444723
     3  O   -0.561540
     4  C    0.304823
     5  C   -0.315849
     6  H    0.141360
     7  H    0.158210
     8  H    0.163229
     9  N   -0.321228
    10  H    0.279479
    11  H    0.279908
    12  C    0.089000
    13  C   -0.237382
    14  C   -0.138129
    15  C   -0.133131
    16  C   -0.173717
    17  C   -0.237605
    18  H    0.146063
    19  H    0.144274
    20  H    0.146062
    21  H    0.143064
    22  H    0.187383
    23  Br  -0.160078
    24  C    0.101805
    25  C   -0.275970
    26  C   -0.130206
    27  C   -0.126519
    28  C   -0.174315
    29  C   -0.193209
    30  H    0.153000
    31  H    0.141102
    32  H    0.143154
    33  H    0.138839
    34  H    0.143507
    35  N   -0.248010
    36  C    0.299472
    37  C   -0.321726
    38  C   -0.098000
    39  C   -0.194853
    40  C   -0.113379
    41  C   -0.294055
    42  H    0.255836
    43  H    0.142235
    44  H    0.143417
    45  H    0.140756
    46  H    0.141202
    47  H    0.160729
 Sum of Mulliken charges =  -0.00000

 Dipole moment (field-independent basis, Debye):
    X=              4.5264    Y=              3.1017    Z=              3.7386  Tot=              6.6398
 Quadrupole moment (field-independent basis, Debye-Ang):
   XX=           -152.9150   YY=           -156.6437   ZZ=           -153.7343
   XY=             -5.7391   XZ=              3.1443   YZ=             -7.6428

  Exact polarizability:     508.378       0.967     442.164     -21.862      -2.457     348.987
 Approx polarizability:     367.299       5.048     358.006     -22.040       0.157     302.123

 ******    1 imaginary frequencies (negative Signs) ******

                      1                      2                      3
                      A                      A                      A
 Frequencies --   -373.6760                19.2279                22.2012
 Red. masses --      5.9744                 4.1593                 5.1932
 Frc consts  --      0.4915                 0.0009                 0.0015
 IR Inten    --    652.6420                 0.5679                 0.3040

                      4                      5                      6
                      A                      A                      A
 Frequencies --     32.0146                40.6464                47.9157
 Red. masses --      4.9554                 5.0144                 4.5340
 Frc consts  --      0.0030                 0.0049                 0.0061
 IR Inten    --      0.5987                 0.0277                 0.5331

                      7                      8                      9
                      A                      A                      A
 Frequencies --     63.3688                66.9313                90.2189
 Red. masses --      3.9176                 3.9379                 3.3065
 Frc consts  --      0.0093                 0.0104                 0.0159
 IR Inten    --      1.7537                 2.0516                 2.3481

                     10                     11                     12
                      A                      A                      A
 Frequencies --     95.7619               108.5294               129.3358
 Red. masses --      5.0514                 5.4358                 7.7752
 Frc consts  --      0.0273                 0.0377                 0.0766
 IR Inten    --      2.1921                 1.0241                 2.6960

                     13                     14                     15
                      A                      A                      A
 Frequencies --    151.2473               162.7473               195.2150
 Red. masses --      5.6121                 2.9593                 4.8060
 Frc consts  --      0.0756                 0.0462                 0.1079
 IR Inten    --     22.1078                13.6858                 7.2265

                     16                     17                     18
                      A                      A                      A
 Frequencies --    215.0032               219.0550               231.2465
 Red. masses --      5.0956                 6.2125                 2.3903
 Frc consts  --      0.1388                 0.1756                 0.0753
 IR Inten    --     17.8099                 3.1323                 5.2519

                     19                     20                     21
                      A                      A                      A
 Frequencies --    251.3838               253.9856               260.7399
 Red. masses --      2.6596                 3.2856                 3.0292
 Frc consts  --      0.0990                 0.1249                 0.1213
 IR Inten    --     17.7679                 2.4690                10.7009

                     22                     23                     24
                      A                      A                      A
 Frequencies --    279.9446               300.4352               364.5870
 Red. masses --      3.4900                 3.5325                 6.7080
 Frc consts  --      0.1611                 0.1879                 0.5253
 IR Inten    --      4.8384                28.9503                 4.9642

                     25                     26                     27
                      A                      A                      A
 Frequencies --    380.8376               395.2126               423.6135
 Red. masses --      5.7447                 6.6337                 2.9825
 Frc consts  --      0.4909                 0.6105                 0.3153
 IR Inten    --     75.4284                 8.4643                 0.0710

                     28                     29                     30
                      A                      A                      A
 Frequencies --    424.2548               427.8522               489.2665
 Red. masses --      2.8746                 2.9573                 4.8210
 Frc consts  --      0.3048                 0.3190                 0.6799
 IR Inten    --      0.3895                 4.2462                35.5954

                     31                     32                     33
                      A                      A                      A
 Frequencies --    518.7014               530.7401               560.1330
 Red. masses --      3.9250                 2.8861                 4.0527
 Frc consts  --      0.6222                 0.4790                 0.7492
 IR Inten    --     32.6258                12.6773                35.0375

                     34                     35                     36
                      A                      A                      A
 Frequencies --    582.2873               597.1081               614.1964
 Red. masses --      3.3265                 1.2560                 2.2724
 Frc consts  --      0.6645                 0.2639                 0.5051
 IR Inten    --    120.9985               113.7440                33.5812

                     37                     38                     39
                      A                      A                      A
 Frequencies --    632.2156               636.1515               638.6388
 Red. masses --      6.1304                 6.0362                 6.3731
 Frc consts  --      1.4437                 1.4392                 1.5315
 IR Inten    --     32.4579                 3.0989                 2.4255

                     40                     41                     42
                      A                      A                      A
 Frequencies --    650.2977               680.5600               719.1483
 Red. masses --      3.9953                 3.8739                 1.8790
 Frc consts  --      0.9955                 1.0571                 0.5726
 IR Inten    --     58.8896                51.3982                68.3420

                     43                     44                     45
                      A                      A                      A
 Frequencies --    724.9527               727.1312               734.7507
 Red. masses --      2.0544                 1.7784                 2.1224
 Frc consts  --      0.6362                 0.5540                 0.6751
 IR Inten    --     27.5346                45.4310               272.7706

                     46                     47                     48
                      A                      A                      A
 Frequencies --    782.9647               785.5291               801.2405
 Red. masses --      3.7022                 2.2387                 2.2763
 Frc consts  --      1.3372                 0.8139                 0.8610
 IR Inten    --     93.0093               110.2119                10.1126

                     49                     50                     51
                      A                      A                      A
 Frequencies --    810.5057               821.0592               862.3425
 Red. masses --      3.3983                 4.9179                 1.2595
 Frc consts  --      1.3153                 1.9534                 0.5518
 IR Inten    --      3.7299               137.7546                 0.1299

                     52                     53                     54
                      A                      A                      A
 Frequencies --    877.2820               878.9881               880.5798
 Red. masses --      1.6161                 1.2876                 2.5382
 Frc consts  --      0.7328                 0.5861                 1.1596
 IR Inten    --     14.7487                 3.3330                11.1549

                     55                     56                     57
                      A                      A                      A
 Frequencies --    927.3708               934.3182               959.1333
 Red. masses --      5.7493                 1.4791                 1.4768
 Frc consts  --      2.9132                 0.7607                 0.8005
 IR Inten    --      6.2835                14.1403                 5.1012

                     58                     59                     60
                      A                      A                      A
 Frequencies --    970.0365               987.4663              1002.2991
 Red. masses --      1.4132                 1.1026                 1.3475
 Frc consts  --      0.7835                 0.6335                 0.7976
 IR Inten    --      3.1142               101.8805                 0.0416

                     61                     62                     63
                      A                      A                      A
 Frequencies --   1015.5498              1018.6489              1020.0545
 Red. masses --      1.3788                 1.2861                 4.2662
 Frc consts  --      0.8379                 0.7863                 2.6154
 IR Inten    --      0.8794                 0.8227                 5.1848

                     64                     65                     66
                      A                      A                      A
 Frequencies --   1020.2983              1026.1418              1027.0081
 Red. masses --      1.5637                 5.7519                 4.7840
 Frc consts  --      0.9591                 3.5684                 2.9730
 IR Inten    --      0.7324                 1.1938                 2.5342

                     67                     68                     69
                      A                      A                      A
 Frequencies --   1029.3891              1036.1168              1044.9137
 Red. masses --      1.3288                 1.3520                 3.7900
 Frc consts  --      0.8296                 0.8552                 2.4381
 IR Inten    --      0.3641                 1.0400                17.6450

                     70                     71                     72
                      A                      A                      A
 Frequencies --   1061.6856              1062.2431              1067.5062
 Red. masses --      1.6743                 2.0575                 2.0778
 Frc consts  --      1.1119                 1.3678                 1.3950
 IR Inten    --     92.4772                27.9899                12.3142

                     73                     74                     75
                      A                      A                      A
 Frequencies --   1078.2930              1096.2337              1111.8362
 Red. masses --      2.0575                 2.5142                 1.5651
 Frc consts  --      1.4095                 1.7801                 1.1399
 IR Inten    --     48.6939                 6.6753                 8.9315

                     76                     77                     78
                      A                      A                      A
 Frequencies --   1120.6605              1125.6633              1181.7121
 Red. masses --      1.5459                 1.5780                 1.1913
 Frc consts  --      1.1439                 1.1781                 0.9801
 IR Inten    --     18.9517                 7.5163                10.5197

                     79                     80                     81
                      A                      A                      A
 Frequencies --   1182.2523              1186.7429              1187.5635
 Red. masses --      1.1289                 1.3248                 1.6885
 Frc consts  --      0.9297                 1.0993                 1.4030
 IR Inten    --      3.1933                12.3383                37.6670

                     82                     83                     84
                      A                      A                      A
 Frequencies --   1192.0483              1208.7307              1210.3730
 Red. masses --      1.7412                 1.1562                 1.1225
 Frc consts  --      1.4578                 0.9953                 0.9689
 IR Inten    --     13.3930                56.5961                 0.3084

                     85                     86                     87
                      A                      A                      A
 Frequencies --   1219.4195              1249.3848              1277.7202
 Red. masses --      1.1296                 3.4097                 3.0017
 Frc consts  --      0.9897                 3.1359                 2.8873
 IR Inten    --     26.3689               683.2611               213.4654

                     88                     89                     90
                      A                      A                      A
 Frequencies --   1303.8530              1319.9642              1322.3718
 Red. masses --      4.4695                 4.7987                 4.7043
 Frc consts  --      4.4768                 4.9261                 4.8467
 IR Inten    --     67.0406                60.5078                75.1682

                     91                     92                     93
                      A                      A                      A
 Frequencies --   1347.1620              1354.6153              1360.1331
 Red. masses --      3.6233                 1.3166                 1.5235
 Frc consts  --      3.8744                 1.4234                 1.6605
 IR Inten    --    735.3998                 8.9348                 5.8785

                     94                     95                     96
                      A                      A                      A
 Frequencies --   1361.4351              1364.3150              1437.1809
 Red. masses --      1.5505                 1.4558                 2.2849
 Frc consts  --      1.6933                 1.5966                 2.7807
 IR Inten    --     15.9091                 6.2393               530.3980

                     97                     98                     99
                      A                      A                      A
 Frequencies --   1459.7751              1479.6830              1488.6885
 Red. masses --      1.6067                 2.1359                 2.2297
 Frc consts  --      2.0173                 2.7553                 2.9114
 IR Inten    --    198.1053               271.0478                38.4315

                    100                    101                    102
                      A                      A                      A
 Frequencies --   1492.1906              1494.8314              1506.0310
 Red. masses --      2.3087                 1.0468                 1.0439
 Frc consts  --      3.0287                 1.3781                 1.3951
 IR Inten    --     93.6818                12.9515                 7.3690

                    103                    104                    105
                      A                      A                      A
 Frequencies --   1541.0101              1544.8517              1547.3223
 Red. masses --      2.3297                 2.3360                 2.4506
 Frc consts  --      3.2596                 3.2847                 3.4569
 IR Inten    --     44.2468               142.2001               131.5763

                    106                    107                    108
                      A                      A                      A
 Frequencies --   1569.8575              1606.8010              1642.7603
 Red. masses --      2.0267                 1.1931                 5.5839
 Frc consts  --      2.9428                 1.8150                 8.8785
 IR Inten    --    739.9190               194.2653                13.4785

                    109                    110                    111
                      A                      A                      A
 Frequencies --   1650.2361              1660.3383              1669.2665
 Red. masses --      5.5682                 5.5356                 5.2257
 Frc consts  --      8.9342                 8.9910                 8.5792
 IR Inten    --      1.5985               128.7839                89.5510

                    112                    113                    114
                      A                      A                      A
 Frequencies --   1672.1531              1674.3581              1687.2743
 Red. masses --      4.7546                 5.8950                 5.4798
 Frc consts  --      7.8328                 9.7371                 9.1914
 IR Inten    --     25.6789                 0.3407               455.9601

                    115                    116                    117
                      A                      A                      A
 Frequencies --   3047.2921              3115.7237              3170.1371
 Red. masses --      1.0380                 1.1002                 1.1030
 Frc consts  --      5.6792                 6.2926                 6.5313
 IR Inten    --     44.4569                17.3391                17.1426

                    118                    119                    120
                      A                      A                      A
 Frequencies --   3187.2419              3188.6412              3193.9524
 Red. masses --      1.0881                 1.0870                 1.0874
 Frc consts  --      6.5127                 6.5114                 6.5360
 IR Inten    --     13.5514                 8.5680                 0.7676

                    121                    122                    123
                      A                      A                      A
 Frequencies --   3197.3834              3199.8742              3203.0251
 Red. masses --      1.0882                 1.0865                 1.0913
 Frc consts  --      6.5547                 6.5546                 6.5966
 IR Inten    --      2.4863                 0.1071                11.9290

                    124                    125                    126
                      A                      A                      A
 Frequencies --   3207.0266              3209.7164              3210.1792
 Red. masses --      1.0931                 1.0909                 1.0950
 Frc consts  --      6.6242                 6.6219                 6.6487
 IR Inten    --     29.4807                14.5928                42.4375

                    127                    128                    129
                      A                      A                      A
 Frequencies --   3221.0273              3221.5690              3222.1669
 Red. masses --      1.0988                 1.0963                 1.0979
 Frc consts  --      6.7167                 6.7040                 6.7162
 IR Inten    --     17.4861                29.4826                23.2787

                    130                    131                    132
                      A                      A                      A
 Frequencies --   3239.7207              3249.3110              3272.9252
 Red. masses --      1.0928                 1.0923                 1.0924
 Frc consts  --      6.7578                 6.7950                 6.8943
 IR Inten    --      5.0134                 5.4271                 6.1326

                    133                    134                    135
                      A                      A                      A
 Frequencies --   3490.5343              3611.0775              3637.2516
 Red. masses --      1.0546                 1.0944                 1.0763
 Frc consts  --      7.5703                 8.4080                 8.3894
 IR Inten    --     70.2221               113.9720               101.1087

 - Thermochemistry -
 -------------------
 Temperature   298.150 Kelvin.  Pressure   1.00000 Atm.
 Atom     1 has atomic number  6 and mass  12.00000

 Molecular mass:   408.08372 amu.
 Principal axes and moments of inertia in atomic units:
                           1         2         3
     Eigenvalues --  6816.50053********************
           X            0.99985   0.01696   0.00466
           Y           -0.01676   0.99906  -0.03994
           Z           -0.00534   0.03986   0.99919
 This molecule is an asymmetric top.
 Rotational symmetry number  1.
 Warning -- assumption of classical behavior for rotation
           may cause significant error
 Rotational temperatures (Kelvin)      0.01271     0.00601     0.00475
 Rotational constants (GHZ):           0.26476     0.12515     0.09907
    1 imaginary frequencies ignored.
 Zero-point vibrational energy    1004165.3 (Joules/Mol)
                                  240.00128 (Kcal/Mol)
 Warning -- explicit consideration of  35 degrees of freedom as
           vibrations may cause significant error
 Vibrational temperatures:     27.66    31.94    46.06    58.48    68.94
          (Kelvin)             91.17    96.30   129.80   137.78   156.15
                              186.09   217.61   234.16   280.87   309.34
                              315.17   332.71   361.69   365.43   375.15
                              402.78   432.26   524.56   547.94   568.62
                              609.49   610.41   615.58   703.95   746.30
                              763.62   805.91   837.78   859.11   883.69
                              909.62   915.28   918.86   935.63   979.17
                             1034.69  1043.05  1046.18  1057.14  1126.51
                             1130.20  1152.81  1166.14  1181.32  1240.72
                             1262.21  1264.67  1266.96  1334.28  1344.28
                             1379.98  1395.67  1420.74  1442.08  1461.15
                             1465.61  1467.63  1467.98  1476.39  1477.64
                             1481.06  1490.74  1503.40  1527.53  1528.33
                             1535.90  1551.42  1577.24  1599.68  1612.38
                             1619.58  1700.22  1701.00  1707.46  1708.64
                             1715.09  1739.09  1741.46  1754.47  1797.59
                             1838.35  1875.95  1899.13  1902.60  1938.27
                             1948.99  1956.93  1958.80  1962.95  2067.78
                             2100.29  2128.93  2141.89  2146.93  2150.73
                             2166.84  2217.17  2222.70  2226.25  2258.67
                             2311.83  2363.57  2374.32  2388.86  2401.70
                             2405.86  2409.03  2427.61  4384.37  4482.83
                             4561.12  4585.73  4587.74  4595.39  4600.32
                             4603.91  4608.44  4614.20  4618.07  4618.73
                             4634.34  4635.12  4635.98  4661.24  4675.03
                             4709.01  5022.10  5195.54  5233.19

 Zero-point correction=                           0.382466 (Hartree/Particle)
 Thermal correction to Energy=                    0.405830
 Thermal correction to Enthalpy=                  0.406774
 Thermal correction to Gibbs Free Energy=         0.326567
 Sum of electronic and zero-point Energies=          -3609.554415
 Sum of electronic and thermal Energies=             -3609.531052
 Sum of electronic and thermal Enthalpies=           -3609.530107
 Sum of electronic and thermal Free Energies=        -3609.610314

                     E (Thermal)             CV                S
                      KCal/Mol        Cal/Mol-Kelvin    Cal/Mol-Kelvin
 Total                  254.662             89.309            168.810
 Electronic               0.000              0.000              0.000
 Translational            0.889              2.981             43.910
 Rotational               0.889              2.981             35.836
 Vibrational            252.885             83.347             89.064
 Vibration     1          0.593              1.986              6.712
 Vibration     2          0.593              1.985              6.427
 Vibration     3          0.594              1.983              5.701
 Vibration     4          0.594              1.981              5.227
 Vibration     5          0.595              1.978              4.902
 Vibration     6          0.597              1.972              4.349
 Vibration     7          0.598              1.970              4.242
 Vibration     8          0.602              1.956              3.655
 Vibration     9          0.603              1.952              3.539
 Vibration    10          0.606              1.942              3.295
 Vibration    11          0.612              1.924              2.956
 Vibration    12          0.619              1.901              2.656
 Vibration    13          0.623              1.888              2.518
 Vibration    14          0.636              1.847              2.178
 Vibration    15          0.645              1.818              2.001
 Vibration    16          0.647              1.812              1.967
 Vibration    17          0.653              1.793              1.869
 Vibration    18          0.663              1.760              1.721
 Vibration    19          0.665              1.756              1.703
 Vibration    20          0.669              1.745              1.657
 Vibration    21          0.680              1.711              1.534
 Vibration    22          0.693              1.673              1.414
 Vibration    23          0.738              1.545              1.102
 Vibration    24          0.751              1.511              1.036
 Vibration    25          0.762              1.480              0.980
 Vibration    26          0.786              1.419              0.880
 Vibration    27          0.786              1.417              0.878
 Vibration    28          0.789              1.410              0.866
 Vibration    29          0.845              1.274              0.686
 Vibration    30          0.874              1.209              0.613
 Vibration    31          0.886              1.182              0.586
 Vibration    32          0.916              1.118              0.524
 Vibration    33          0.939              1.070              0.481
 Vibration    34          0.955              1.038              0.455
 Vibration    35          0.974              1.002              0.426

 Optimization completed.
    -- Stationary point found.
 Normal termination of Gaussian 16 at Mon Jun  6 18:14:27 2022.
