 Gaussian 16, Revision A.03,
 Gaussian 16:  ES64L-G16RevA.03 25-Dec-2016

 ----------------------------------------------------------------------
 # wB97XD def2tzvp, opt=(ts, noeigen, calcfc, maxcycles=70, maxstep=8),
  freq=noraman, scrf=(iefpcm, solvent=water)
 ----------------------------------------------------------------------

 ------------------------
 1_iteration/TS-178-1.out
 ------------------------
 Symbolic Z-matrix:
 Charge =  0 Multiplicity = 1

 SCF Done:  E(RwB97XD) =  -1057.07163957     A.U. after   15 cycles
 SCF Done:  E(RwB97XD) =  -1057.07179483     A.U. after   12 cycles
 SCF Done:  E(RwB97XD) =  -1057.07185950     A.U. after   12 cycles
 SCF Done:  E(RwB97XD) =  -1057.07190672     A.U. after   12 cycles
 SCF Done:  E(RwB97XD) =  -1057.07181576     A.U. after   12 cycles
 SCF Done:  E(RwB97XD) =  -1057.07193767     A.U. after   11 cycles
 SCF Done:  E(RwB97XD) =  -1057.07185171     A.U. after   12 cycles
 SCF Done:  E(RwB97XD) =  -1057.07193845     A.U. after   12 cycles
 SCF Done:  E(RwB97XD) =  -1057.07194279     A.U. after   11 cycles
 SCF Done:  E(RwB97XD) =  -1057.07194427     A.U. after   11 cycles
 SCF Done:  E(RwB97XD) =  -1057.07194535     A.U. after   10 cycles
 SCF Done:  E(RwB97XD) =  -1057.07194523     A.U. after    9 cycles
 SCF Done:  E(RwB97XD) =  -1057.07191233     A.U. after   12 cycles
 SCF Done:  E(RwB97XD) =  -1057.07194480     A.U. after   12 cycles
 SCF Done:  E(RwB97XD) =  -1057.07194505     A.U. after    8 cycles
 Optimization completed.
    -- Stationary point found.
 Normal termination of Gaussian 16 at Mon Mar 29 04:22:47 2021.

 ---------------------------------------------------------------------
 #N Geom=AllCheck Guess=TCheck SCRF=Check GenChk RwB97XD/def2TZVP Freq
 ---------------------------------------------------------------------

 Structure from the checkpoint file:  "/beegfs/scratch/user/q/tla25/Gau-50279.chk"
 ------------------------
 1_iteration/TS-178-1.out
 ------------------------
 Charge =  0 Multiplicity = 1

                         Standard orientation:
 ---------------------------------------------------------------------
 Center     Atomic      Atomic             Coordinates (Angstroms)
 Number     Number       Type             X           Y           Z
 ---------------------------------------------------------------------
      1          6           0       -1.140443   -0.602388   -0.491580
      2          6           0       -2.532385   -0.843736   -0.272757
      3          8           0       -3.143838   -1.675465   -0.965921
      4          6           0       -0.291298    0.226131    0.265125
      5          6           0       -0.807096    2.222781   -1.584482
      6          1           0       -1.506443    1.461164   -1.927941
      7          1           0       -1.224188    3.210849   -1.769885
      8          1           0        0.129886    2.113099   -2.124772
      9          7           0       -0.585332    2.013752   -0.154898
     10          1           0        0.139882    2.614284    0.223677
     11          1           0       -1.430948    2.221152    0.364222
     12          6           0        1.198691    0.012726    0.113229
     13          6           0        2.106080    0.945714   -0.368668
     14          6           0        3.457019    0.633000   -0.469867
     15          6           0        3.920079   -0.612164   -0.086085
     16          6           0        3.020380   -1.551330    0.402735
     17          6           0        1.677528   -1.240970    0.499483
     18          1           0        1.799451    1.929023   -0.692432
     19          1           0        4.143896    1.375641   -0.854707
     20          1           0        4.972282   -0.852697   -0.166095
     21          1           0        3.366302   -2.530666    0.707735
     22          1           0        0.979612   -1.978394    0.874899
     23         17           0       -0.601236    0.420697    2.050636
     24          6           0       -0.563190   -1.271551   -1.724545
     25          1           0        0.342212   -0.778480   -2.075492
     26          1           0       -0.314905   -2.324447   -1.553517
     27          1           0       -1.293708   -1.245301   -2.534018
     28          6           0       -3.358784   -0.117614    0.775895
     29          1           0       -4.398050   -0.152324    0.452995
     30          1           0       -3.281327   -0.630399    1.735980
     31          1           0       -3.074404    0.919510    0.939303
 ---------------------------------------------------------------------

 SCF Done:  E(RwB97XD) =  -1057.07194505     A.U. after    1 cycles

 The electronic state is 1-A.
 Alpha  occ. eigenvalues -- -101.69515 -19.19531 -14.50576 -10.40987 -10.34552
 Alpha  occ. eigenvalues --  -10.32333 -10.31696 -10.30191 -10.29648 -10.29629
 Alpha  occ. eigenvalues --  -10.29543 -10.29464 -10.26957 -10.26466 -10.25938
 Alpha  occ. eigenvalues --   -9.58132  -7.32754  -7.31926  -7.31883  -1.10188
 Alpha  occ. eigenvalues --   -1.06226  -0.98833  -0.95698  -0.88618  -0.86072
 Alpha  occ. eigenvalues --   -0.85621  -0.82102  -0.80048  -0.76905  -0.72558
 Alpha  occ. eigenvalues --   -0.71444  -0.67765  -0.65471  -0.61171  -0.59504
 Alpha  occ. eigenvalues --   -0.58652  -0.56786  -0.55720  -0.55299  -0.53795
 Alpha  occ. eigenvalues --   -0.52660  -0.51492  -0.51400  -0.49969  -0.49395
 Alpha  occ. eigenvalues --   -0.47973  -0.47823  -0.46789  -0.46542  -0.45177
 Alpha  occ. eigenvalues --   -0.44413  -0.43320  -0.43107  -0.41648  -0.39597
 Alpha  occ. eigenvalues --   -0.39406  -0.34512  -0.33752  -0.31401  -0.26939
 Alpha virt. eigenvalues --    0.03128   0.04543   0.05040   0.08659   0.09892
 Alpha virt. eigenvalues --    0.12371   0.13211   0.13904   0.15242   0.15678
 Alpha virt. eigenvalues --    0.16280   0.16583   0.17572   0.18018   0.18539

 Mulliken charges:
               1
     1  C   -0.258492
     2  C    0.210539
     3  O   -0.532618
     4  C    0.233603
     5  C   -0.300296
     6  H    0.166059
     7  H    0.169642
     8  H    0.160284
     9  N   -0.278480
    10  H    0.293291
    11  H    0.278790
    12  C    0.167818
    13  C   -0.185047
    14  C   -0.171280
    15  C   -0.145717
    16  C   -0.118908
    17  C   -0.311461
    18  H    0.141044
    19  H    0.146333
    20  H    0.147145
    21  H    0.146647
    22  H    0.159718
    23  Cl  -0.135002
    24  C   -0.374786
    25  H    0.137504
    26  H    0.116434
    27  H    0.126780
    28  C   -0.348002
    29  H    0.122624
    30  H    0.141473
    31  H    0.094361
 Sum of Mulliken charges =  -0.00000

 Dipole moment (field-independent basis, Debye):
    X=              5.9013    Y=              9.4668    Z=              0.3183  Tot=             11.1601
 Quadrupole moment (field-independent basis, Debye-Ang):
   XX=           -106.0177   YY=            -86.4332   ZZ=           -102.4071
   XY=            -17.8973   XZ=             -8.9812   YZ=            -10.4222

  Exact polarizability: 276.749  18.916 236.770  -3.325  -1.285 193.816
 Approx polarizability: 209.842  13.397 200.872  -2.007  -2.447 165.784

 ******    1 imaginary frequencies (negative Signs) ******

                      1                      2                      3
                      A                      A                      A
 Frequencies --   -357.7813                29.3795                67.5770
 Red. masses --      5.4712                 3.5598                 4.3254
 Frc consts  --      0.4126                 0.0018                 0.0116
 IR Inten    --    840.7139                 0.8160                 4.0033

                      4                      5                      6
                      A                      A                      A
 Frequencies --     81.2064                90.2073               135.5971
 Red. masses --      4.0882                 5.3343                 3.2163
 Frc consts  --      0.0159                 0.0256                 0.0348
 IR Inten    --      5.9865                 4.1592                 2.3260

                      7                      8                      9
                      A                      A                      A
 Frequencies --    147.6245               157.9396               185.8430
 Red. masses --      1.9013                 1.2602                 1.2449
 Frc consts  --      0.0244                 0.0185                 0.0253
 IR Inten    --      2.5205                 0.3086                 1.0400

                     10                     11                     12
                      A                      A                      A
 Frequencies --    205.1913               212.0979               223.5150
 Red. masses --      2.5471                 4.3323                 1.5877
 Frc consts  --      0.0632                 0.1148                 0.0467
 IR Inten    --      8.5863                 3.1381                 4.7131

                     13                     14                     15
                      A                      A                      A
 Frequencies --    259.5344               282.7327               303.8334
 Red. masses --      2.5758                 3.1270                 3.8426
 Frc consts  --      0.1022                 0.1473                 0.2090
 IR Inten    --      2.4289                 3.9548                 8.3787

                     16                     17                     18
                      A                      A                      A
 Frequencies --    338.0908               349.8045               373.8718
 Red. masses --      3.4368                 4.0610                 6.1975
 Frc consts  --      0.2315                 0.2928                 0.5104
 IR Inten    --     48.1815                 4.3061                15.8577

                     19                     20                     21
                      A                      A                      A
 Frequencies --    391.2087               421.2685               478.8392
 Red. masses --      3.4287                 2.8760                 3.7385
 Frc consts  --      0.3092                 0.3007                 0.5050
 IR Inten    --      9.6089                 1.6333                77.3725

                     22                     23                     24
                      A                      A                      A
 Frequencies --    534.4274               585.8025               607.3460
 Red. masses --      3.5853                 3.9947                 3.4964
 Frc consts  --      0.6033                 0.8077                 0.7599
 IR Inten    --     10.2281               146.8445                25.4013

                     25                     26                     27
                      A                      A                      A
 Frequencies --    634.8275               638.8181               679.2246
 Red. masses --      2.7354                 5.2507                 4.5470
 Frc consts  --      0.6495                 1.2625                 1.2359
 IR Inten    --     11.8448                 2.6405                86.8303

                     28                     29                     30
                      A                      A                      A
 Frequencies --    713.8628               725.6483               768.7959
 Red. masses --      1.7049                 1.6433                 2.3862
 Frc consts  --      0.5119                 0.5098                 0.8310
 IR Inten    --     52.3204                71.9126               208.3329

                     31                     32                     33
                      A                      A                      A
 Frequencies --    843.0845               869.9481               885.3657
 Red. masses --      2.9775                 1.2618                 3.3388
 Frc consts  --      1.2469                 0.5626                 1.5420
 IR Inten    --     48.1114                 0.6719                60.3837

                     34                     35                     36
                      A                      A                      A
 Frequencies --    955.8385               974.9341              1003.3595
 Red. masses --      1.4626                 1.8888                 1.2010
 Frc consts  --      0.7873                 1.0578                 0.7124
 IR Inten    --      2.2677                17.1682                93.9549

                     37                     38                     39
                      A                      A                      A
 Frequencies --   1012.4207              1023.0875              1028.5384
 Red. masses --      1.3798                 3.1043                 2.3692
 Frc consts  --      0.8332                 1.9145                 1.4767
 IR Inten    --     18.3508               124.7459               100.7729

                     40                     41                     42
                      A                      A                      A
 Frequencies --   1033.1627              1037.3631              1065.8195
 Red. masses --      1.3202                 1.6674                 1.4894
 Frc consts  --      0.8303                 1.0572                 0.9968
 IR Inten    --      0.0328                28.9598                 3.8951

                     43                     44                     45
                      A                      A                      A
 Frequencies --   1067.7275              1073.3430              1084.6486
 Red. masses --      2.1371                 1.6541                 2.0902
 Frc consts  --      1.4355                 1.1228                 1.4488
 IR Inten    --      1.0023                17.0991               115.8420

                     46                     47                     48
                      A                      A                      A
 Frequencies --   1117.5392              1128.8311              1187.3695
 Red. masses --      2.3365                 1.5885                 1.1348
 Frc consts  --      1.7193                 1.1926                 0.9427
 IR Inten    --     17.7710                 6.8003                 0.2120

                     49                     50                     51
                      A                      A                      A
 Frequencies --   1224.1885              1227.5109              1249.9712
 Red. masses --      1.4921                 1.9243                 1.4565
 Frc consts  --      1.3175                 1.7084                 1.3407
 IR Inten    --     18.5384                42.3314                27.5702

                     52                     53                     54
                      A                      A                      A
 Frequencies --   1321.6155              1341.7108              1365.0975
 Red. masses --      4.6961                 1.3230                 2.5879
 Frc consts  --      4.8328                 1.4032                 2.8413
 IR Inten    --     12.7070                10.0381                72.7744

                     55                     56                     57
                      A                      A                      A
 Frequencies --   1369.3152              1394.2721              1413.7958
 Red. masses --      1.4808                 1.7745                 1.2616
 Frc consts  --      1.6359                 2.0324                 1.4857
 IR Inten    --     18.4851               190.4248                24.4911

                     58                     59                     60
                      A                      A                      A
 Frequencies --   1417.6948              1458.7989              1467.1720
 Red. masses --      2.7375                 1.1824                 1.1298
 Frc consts  --      3.2417                 1.4826                 1.4329
 IR Inten    --   1041.8629                23.3346                 9.1136

                     61                     62                     63
                      A                      A                      A
 Frequencies --   1474.6997              1488.5815              1490.0515
 Red. masses --      1.0495                 1.1932                 1.8395
 Frc consts  --      1.3448                 1.5578                 2.4063
 IR Inten    --     12.4290                10.6288                32.4168

                     64                     65                     66
                      A                      A                      A
 Frequencies --   1496.3742              1501.6440              1508.4494
 Red. masses --      1.0387                 1.1155                 1.0740
 Frc consts  --      1.3704                 1.4820                 1.4398
 IR Inten    --     10.3854               149.9359                56.4383

                     67                     68                     69
                      A                      A                      A
 Frequencies --   1545.3840              1609.9757              1650.2724
 Red. masses --      2.2694                 7.8822                 2.1235
 Frc consts  --      3.1933                12.0375                 3.4072
 IR Inten    --     17.6096               769.4493                28.4274

                     70                     71                     72
                      A                      A                      A
 Frequencies --   1660.8423              1676.3890              3027.4816
 Red. masses --      1.6797                 5.0898                 1.0491
 Frc consts  --      2.7299                 8.4276                 5.6652
 IR Inten    --     46.5548                 1.0328                93.5514

                     73                     74                     75
                      A                      A                      A
 Frequencies --   3070.7779              3079.3153              3097.9802
 Red. masses --      1.0375                 1.0329                 1.0876
 Frc consts  --      5.7642                 5.7707                 6.1501
 IR Inten    --     14.0216                28.9733                44.5027

                     76                     77                     78
                      A                      A                      A
 Frequencies --   3140.5432              3144.4681              3161.4493
 Red. masses --      1.1004                 1.0995                 1.1048
 Frc consts  --      6.3946                 6.4054                 6.5061
 IR Inten    --     31.0316                20.4616                 2.4627

                     79                     80                     81
                      A                      A                      A
 Frequencies --   3164.8036              3180.2451              3199.6224
 Red. masses --      1.1024                 1.1060                 1.0862
 Frc consts  --      6.5058                 6.5904                 6.5518
 IR Inten    --     44.6756                13.0098                 0.6665

                     82                     83                     84
                      A                      A                      A
 Frequencies --   3207.6424              3216.1169              3224.7203
 Red. masses --      1.0891                 1.0936                 1.0976
 Frc consts  --      6.6023                 6.6646                 6.7249
 IR Inten    --      3.6468                19.5190                21.2254

                     85                     86                     87
                      A                      A                      A
 Frequencies --   3241.3199              3524.1261              3597.9252
 Red. masses --      1.0927                 1.0518                 1.0946
 Frc consts  --      6.7641                 7.6964                 8.3487
 IR Inten    --     14.6003                41.6419                58.5013

 - Thermochemistry -
 -------------------
 Temperature   298.150 Kelvin.  Pressure   1.00000 Atm.
 Atom     1 has atomic number  6 and mass  12.00000

 Molecular mass:   225.09204 amu.
 Principal axes and moments of inertia in atomic units:
                           1         2         3
     Eigenvalues --  2151.277544790.445244955.76731
           X            0.99985  -0.01694  -0.00192
           Y            0.01605   0.97333  -0.22887
           Z            0.00574   0.22880   0.97346
 This molecule is an asymmetric top.
 Rotational symmetry number  1.
 Warning -- assumption of classical behavior for rotation
           may cause significant error
 Rotational temperatures (Kelvin)      0.04026     0.01808     0.01748
 Rotational constants (GHZ):           0.83892     0.37674     0.36417
    1 imaginary frequencies ignored.
 Zero-point vibrational energy     679771.0 (Joules/Mol)
                                  162.46918 (Kcal/Mol)
 Warning -- explicit consideration of  23 degrees of freedom as
           vibrations may cause significant error
 Vibrational temperatures:     42.27    97.23   116.84   129.79   195.09
          (Kelvin)            212.40   227.24   267.39   295.22   305.16
                              321.59   373.41   406.79   437.15   486.44
                              503.29   537.92   562.86   606.11   688.94
                              768.92   842.84   873.84   913.38   919.12
                              977.25  1027.09  1044.05  1106.13  1213.01
                             1251.66  1273.84  1375.24  1402.71  1443.61
                             1456.65  1471.99  1479.84  1486.49  1492.53
                             1533.48  1536.22  1544.30  1560.57  1607.89
                             1624.14  1708.36  1761.33  1766.11  1798.43
                             1901.51  1930.42  1964.07  1970.14  2006.05
                             2034.14  2039.75  2098.89  2110.93  2121.76
                             2141.74  2143.85  2152.95  2160.53  2170.32
                             2223.46  2316.40  2374.37  2389.58  2411.95
                             4355.87  4418.16  4430.45  4457.30  4518.54
                             4524.19  4548.62  4553.45  4575.66  4603.54
                             4615.08  4627.27  4639.65  4663.54  5070.43
                             5176.61

 Zero-point correction=                           0.258911 (Hartree/Particle)
 Thermal correction to Energy=                    0.274373
 Thermal correction to Enthalpy=                  0.275317
 Thermal correction to Gibbs Free Energy=         0.216135
 Sum of electronic and zero-point Energies=          -1056.813034
 Sum of electronic and thermal Energies=             -1056.797572
 Sum of electronic and thermal Enthalpies=           -1056.796628
 Sum of electronic and thermal Free Energies=        -1056.855810

                     E (Thermal)             CV                S
                      KCal/Mol        Cal/Mol-Kelvin    Cal/Mol-Kelvin
 Total                  172.172             58.001            124.559
 Electronic               0.000              0.000              0.000
 Translational            0.889              2.981             42.136
 Rotational               0.889              2.981             32.302
 Vibrational            170.394             52.039             50.121
 Vibration     1          0.593              1.984              5.871
 Vibration     2          0.598              1.970              4.223
 Vibration     3          0.600              1.962              3.862
 Vibration     4          0.602              1.956              3.656
 Vibration     5          0.613              1.918              2.865
 Vibration     6          0.617              1.905              2.703
 Vibration     7          0.621              1.894              2.574
 Vibration     8          0.632              1.859              2.269
 Vibration     9          0.640              1.832              2.086
 Vibration    10          0.643              1.822              2.026
 Vibration    11          0.649              1.805              1.930
 Vibration    12          0.668              1.747              1.665
 Vibration    13          0.682              1.706              1.517
 Vibration    14          0.695              1.666              1.396
 Vibration    15          0.718              1.599              1.221
 Vibration    16          0.727              1.576              1.167
 Vibration    17          0.745              1.526              1.064
 Vibration    18          0.759              1.489              0.996
 Vibration    19          0.784              1.424              0.888
 Vibration    20          0.835              1.297              0.713
 Vibration    21          0.889              1.174              0.577
 Vibration    22          0.943              1.062              0.475
 Vibration    23          0.966              1.016              0.437

 Optimization completed.
    -- Stationary point found.
 Normal termination of Gaussian 16 at Mon Mar 29 05:33:14 2021.
