 Gaussian 16, Revision A.03,
 Gaussian 16:  ES64L-G16RevA.03 25-Dec-2016

 ----------------------------------------------------------------------
 # wB97XD def2tzvp, opt=(ts, noeigen, calcfc, maxcycles=70, maxstep=8),
  freq=noraman, scrf=(iefpcm, solvent=water)
 ----------------------------------------------------------------------

 ------------------------
 1_iteration/TS-149-1.out
 ------------------------
 Symbolic Z-matrix:
 Charge =  0 Multiplicity = 1

 SCF Done:  E(RwB97XD) =  -5760.75257142     A.U. after   15 cycles
 SCF Done:  E(RwB97XD) =  -5760.75266102     A.U. after   12 cycles
 SCF Done:  E(RwB97XD) =  -5760.75268729     A.U. after   12 cycles
 SCF Done:  E(RwB97XD) =  -5760.75269394     A.U. after    9 cycles
 SCF Done:  E(RwB97XD) =  -5760.75269396     A.U. after    9 cycles
 SCF Done:  E(RwB97XD) =  -5760.75269448     A.U. after    7 cycles
 SCF Done:  E(RwB97XD) =  -5760.75269428     A.U. after    7 cycles
 SCF Done:  E(RwB97XD) =  -5760.75269426     A.U. after    6 cycles
 Optimization completed.
    -- Stationary point found.
 Normal termination of Gaussian 16 at Sun Feb  7 00:02:44 2021.

 ---------------------------------------------------------------------
 #N Geom=AllCheck Guess=TCheck SCRF=Check GenChk RwB97XD/def2TZVP Freq
 ---------------------------------------------------------------------

 Structure from the checkpoint file:  "/beegfs/scratch/user/q/tla25/Gau-28731.chk"
 ------------------------
 1_iteration/TS-149-1.out
 ------------------------
 Charge =  0 Multiplicity = 1

                         Standard orientation:
 ---------------------------------------------------------------------
 Center     Atomic      Atomic             Coordinates (Angstroms)
 Number     Number       Type             X           Y           Z
 ---------------------------------------------------------------------
      1          6           0        0.840473   -0.355721   -0.105709
      2          6           0        2.240900    0.056976   -0.054324
      3          8           0        2.558464    1.164960    0.402937
      4          6           0       -0.203290    0.519016    0.111238
      5          6           0        0.380805    0.314336    2.929432
      6          1           0        0.899151   -0.524204    2.460310
      7          1           0       -0.530739   -0.050811    3.395671
      8          1           0        1.029278    0.737313    3.696885
      9          7           0        0.077731    1.294276    1.895113
     10          1           0       -0.623955    1.972750    2.166423
     11          1           0        0.930993    1.777049    1.622721
     12          6           0       -1.627752    0.064230    0.030760
     13          6           0       -2.109318   -0.316259   -1.223671
     14          6           0       -3.409325   -0.758016   -1.377540
     15          6           0       -4.258339   -0.824785   -0.279449
     16          6           0       -3.791242   -0.442544    0.965306
     17          6           0       -2.483896    0.002311    1.120311
     18          1           0       -1.452311   -0.265431   -2.082559
     19          1           0       -3.762311   -1.050595   -2.358059
     20          1           0       -5.277402   -1.169698   -0.397979
     21          1           0       -4.441989   -0.485980    1.829066
     22          1           0       -2.154085    0.292362    2.105037
     23         35           0       -0.093485    2.298168   -0.798019
     24         35           0        0.472569   -2.238051   -0.154208
     25          7           0        3.185209   -0.796970   -0.497775
     26          6           0        4.590871   -0.472937   -0.439232
     27          1           0        2.903815   -1.670003   -0.904853
     28          1           0        4.888345   -0.218308    0.579091
     29          1           0        5.159963   -1.340662   -0.764651
     30          1           0        4.835712    0.371671   -1.086758
 ---------------------------------------------------------------------

 SCF Done:  E(RwB97XD) =  -5760.75269426     A.U. after    1 cycles

 The electronic state is 1-A.
 Alpha  occ. eigenvalues -- -483.13006-483.12516 -62.67818 -62.67343 -56.46936
 Alpha  occ. eigenvalues --  -56.46587 -56.46575 -56.46464 -56.46110 -56.46094
 Alpha  occ. eigenvalues --  -19.21203 -14.48071 -14.45356 -10.40489 -10.38898
 Alpha  occ. eigenvalues --  -10.31803 -10.31653 -10.31643 -10.30986 -10.30025
 Alpha  occ. eigenvalues --  -10.29793 -10.29576 -10.29533 -10.29479  -8.81916
 Alpha  occ. eigenvalues --   -8.81428  -6.64059  -6.63574  -6.62945  -6.62907
 Alpha  occ. eigenvalues --   -6.62463  -6.62408  -2.74448  -2.74130  -2.74098
 Alpha  occ. eigenvalues --   -2.73950  -2.73652  -2.73609  -2.73198  -2.73197
 Alpha  occ. eigenvalues --   -2.72710  -2.72709  -1.13964  -1.03807  -1.02165
 Alpha  occ. eigenvalues --   -0.98349  -0.94237  -0.89462  -0.86064  -0.85744
 Alpha  occ. eigenvalues --   -0.82117  -0.80176  -0.78708  -0.73395  -0.71332
 Alpha  occ. eigenvalues --   -0.68615  -0.66449  -0.63614  -0.61351  -0.58291
 Alpha  occ. eigenvalues --   -0.57534  -0.56293  -0.55598  -0.54926  -0.54600
 Alpha  occ. eigenvalues --   -0.52718  -0.51706  -0.51405  -0.51264  -0.48639
 Alpha  occ. eigenvalues --   -0.47837  -0.47461  -0.47143  -0.45843  -0.44776
 Alpha  occ. eigenvalues --   -0.43618  -0.42599  -0.40060  -0.38895  -0.38100
 Alpha  occ. eigenvalues --   -0.36841  -0.34606  -0.34401  -0.33834  -0.32855
 Alpha  occ. eigenvalues --   -0.27747
 Alpha virt. eigenvalues --    0.00914   0.03794   0.04705   0.06368   0.09773
 Alpha virt. eigenvalues --    0.10725   0.12699   0.13887   0.14645   0.14716
 Alpha virt. eigenvalues --    0.15358   0.16104   0.16841   0.17968   0.18164

 Mulliken charges:
               1
     1  C   -0.374728
     2  C    0.436192
     3  O   -0.553797
     4  C    0.273873
     5  C   -0.280612
     6  H    0.150059
     7  H    0.149481
     8  H    0.156649
     9  N   -0.358214
    10  H    0.289949
    11  H    0.282612
    12  C    0.182737
    13  C   -0.310680
    14  C   -0.115596
    15  C   -0.145134
    16  C   -0.166883
    17  C   -0.163721
    18  H    0.160454
    19  H    0.147043
    20  H    0.147362
    21  H    0.145375
    22  H    0.130239
    23  Br  -0.144941
    24  Br  -0.131080
    25  N   -0.317849
    26  C   -0.249229
    27  H    0.256826
    28  H    0.130659
    29  H    0.143311
    30  H    0.129646
 Sum of Mulliken charges =  -0.00000

 Dipole moment (field-independent basis, Debye):
    X=             -1.9122    Y=             -1.5869    Z=              3.6892  Tot=              4.4480
 Quadrupole moment (field-independent basis, Debye-Ang):
   XX=           -106.2712   YY=           -125.2026   ZZ=           -104.1728
   XY=             -7.2088   XZ=             -5.1067   YZ=              8.7179

  Exact polarizability: 302.812   7.207 260.971 -11.921  11.559 251.992
 Approx polarizability: 228.345   8.636 217.285  -8.692  11.276 215.229

 ******    1 imaginary frequencies (negative Signs) ******

                      1                      2                      3
                      A                      A                      A
 Frequencies --   -352.1374                31.2822                51.0734
 Red. masses --      5.4755                 4.1472                 4.8564
 Frc consts  --      0.4000                 0.0024                 0.0075
 IR Inten    --    497.5922                 0.5250                 2.4713

                      4                      5                      6
                      A                      A                      A
 Frequencies --     64.5788                70.7481                78.0710
 Red. masses --      5.5927                 3.3343                 1.4253
 Frc consts  --      0.0137                 0.0098                 0.0051
 IR Inten    --      6.7574                 1.7025                 3.3999

                      7                      8                      9
                      A                      A                      A
 Frequencies --    110.0876               122.4611               132.9822
 Red. masses --      4.5369                 2.8071                 2.6005
 Frc consts  --      0.0324                 0.0248                 0.0271
 IR Inten    --      1.0800                 0.5774                 5.2470

                     10                     11                     12
                      A                      A                      A
 Frequencies --    146.5438               156.1995               160.8124
 Red. masses --      2.6677                 3.5787                 7.1348
 Frc consts  --      0.0338                 0.0514                 0.1087
 IR Inten    --     24.2698                 7.9852                 2.6614

                     13                     14                     15
                      A                      A                      A
 Frequencies --    185.2252               210.2888               240.2979
 Red. masses --      2.0959                 5.4898                 3.3448
 Frc consts  --      0.0424                 0.1430                 0.1138
 IR Inten    --      1.7834                 7.1219                 8.0790

                     16                     17                     18
                      A                      A                      A
 Frequencies --    261.8604               280.2671               289.8464
 Red. masses --      4.6297                 4.9914                 5.1034
 Frc consts  --      0.1870                 0.2310                 0.2526
 IR Inten    --      8.7414                 9.3758                17.8943

                     19                     20                     21
                      A                      A                      A
 Frequencies --    310.4148               338.2475               402.9073
 Red. masses --      3.1866                 4.3111                 2.4150
 Frc consts  --      0.1809                 0.2906                 0.2310
 IR Inten    --     15.2327                52.8772                65.2853

                     22                     23                     24
                      A                      A                      A
 Frequencies --    419.6520               430.0997               504.2603
 Red. masses --      2.8693                 2.0099                 4.0574
 Frc consts  --      0.2977                 0.2191                 0.6079
 IR Inten    --      0.0434                44.1050                42.5542

                     25                     26                     27
                      A                      A                      A
 Frequencies --    553.4632               599.5158               638.7075
 Red. masses --      4.3336                 3.8826                 5.9908
 Frc consts  --      0.7821                 0.8222                 1.4399
 IR Inten    --    164.1334                23.3616                20.3202

                     28                     29                     30
                      A                      A                      A
 Frequencies --    660.7392               710.5838               724.5040
 Red. masses --      2.7463                 2.7336                 1.4718
 Frc consts  --      0.7064                 0.8132                 0.4552
 IR Inten    --    166.1478               104.5953               207.5188

                     31                     32                     33
                      A                      A                      A
 Frequencies --    761.7321               784.2903               804.1401
 Red. masses --      5.3791                 8.0972                 2.3224
 Frc consts  --      1.8389                 2.9345                 0.8848
 IR Inten    --     25.1264                45.7853                 0.1536

                     34                     35                     36
                      A                      A                      A
 Frequencies --    870.5764               882.7159               957.2879
 Red. masses --      1.2631                 4.1084                 1.4457
 Frc consts  --      0.5640                 1.8861                 0.7806
 IR Inten    --      0.5058                 5.2073                 0.9321

                     37                     38                     39
                      A                      A                      A
 Frequencies --    995.4981              1012.8363              1013.3268
 Red. masses --      1.1129                 2.1809                 1.8162
 Frc consts  --      0.6498                 1.3181                 1.0988
 IR Inten    --     50.6018                16.5778                 3.7988

                     40                     41                     42
                      A                      A                      A
 Frequencies --   1026.4399              1033.4708              1068.8987
 Red. masses --      5.7649                 1.3203                 2.3195
 Frc consts  --      3.5786                 0.8308                 1.5614
 IR Inten    --      1.9589                 0.2962                18.6537

                     43                     44                     45
                      A                      A                      A
 Frequencies --   1076.0102              1099.6565              1128.2994
 Red. masses --      3.7465                 1.2587                 2.0442
 Frc consts  --      2.5557                 0.8968                 1.5333
 IR Inten    --     80.2843                49.6444                 3.4899

                     46                     47                     48
                      A                      A                      A
 Frequencies --   1139.3392              1156.8799              1187.7666
 Red. masses --      3.0170                 1.2911                 1.1685
 Frc consts  --      2.3075                 1.0181                 0.9713
 IR Inten    --     10.2983                 0.8558                 1.1482

                     49                     50                     51
                      A                      A                      A
 Frequencies --   1189.7088              1213.2158              1218.9952
 Red. masses --      1.6856                 1.6432                 2.2073
 Frc consts  --      1.4057                 1.4250                 1.9325
 IR Inten    --     14.3403                65.9822                38.0171

                     52                     53                     54
                      A                      A                      A
 Frequencies --   1234.5762              1295.2628              1322.5045
 Red. masses --      1.2607                 2.0780                 5.0045
 Frc consts  --      1.1322                 2.0541                 5.1571
 IR Inten    --      5.2593               285.5418                25.4236

                     55                     56                     57
                      A                      A                      A
 Frequencies --   1359.1228              1378.7142              1450.9458
 Red. masses --      1.2721                 1.3526                 1.9272
 Frc consts  --      1.3845                 1.5149                 2.3905
 IR Inten    --     21.2129                 7.3567               511.4412

                     58                     59                     60
                      A                      A                      A
 Frequencies --   1457.9031              1476.0295              1478.0710
 Red. masses --      1.3334                 1.1550                 1.5072
 Frc consts  --      1.6698                 1.4827                 1.9401
 IR Inten    --     16.1634                86.8930                99.2596

                     61                     62                     63
                      A                      A                      A
 Frequencies --   1487.7207              1491.4150              1505.5629
 Red. masses --      1.0409                 2.2254                 1.0797
 Frc consts  --      1.3574                 2.9165                 1.4419
 IR Inten    --     15.3800                59.9162                20.7466

                     64                     65                     66
                      A                      A                      A
 Frequencies --   1510.9024              1551.7421              1558.6550
 Red. masses --      1.0378                 2.3163                 2.2017
 Frc consts  --      1.3959                 3.2861                 3.1514
 IR Inten    --      5.7453                84.8825               669.1363

                     67                     68                     69
                      A                      A                      A
 Frequencies --   1619.6653              1654.1552              1662.3072
 Red. masses --      1.4403                 5.1862                 3.0782
 Frc consts  --      2.2261                 8.3608                 5.0116
 IR Inten    --    342.0757                27.5076               156.2588

                     70                     71                     72
                      A                      A                      A
 Frequencies --   1677.1370              3052.0890              3063.9080
 Red. masses --      5.6689                 1.0364                 1.0347
 Frc consts  --      9.3947                 5.6882                 5.7229
 IR Inten    --      1.1593                75.7383                41.1994

                     73                     74                     75
                      A                      A                      A
 Frequencies --   3111.6658              3132.6819              3163.9846
 Red. masses --      1.1035                 1.1036                 1.1019
 Frc consts  --      6.2953                 6.3810                 6.4995
 IR Inten    --     38.7107                13.1552                22.0449

                     76                     77                     78
                      A                      A                      A
 Frequencies --   3172.6069              3199.6793              3207.4495
 Red. masses --      1.1037                 1.0863                 1.0895
 Frc consts  --      6.5452                 6.5525                 6.6036
 IR Inten    --     21.0729                 0.4448                 5.6390

                     79                     80                     81
                      A                      A                      A
 Frequencies --   3216.1066              3225.1718              3268.5413
 Red. masses --      1.0941                 1.0984                 1.0904
 Frc consts  --      6.6675                 6.7314                 6.8632
 IR Inten    --     21.1974                17.8309                10.6084

                     82                     83                     84
                      A                      A                      A
 Frequencies --   3474.0514              3593.6979              3677.2293
 Red. masses --      1.0568                 1.0915                 1.0782
 Frc consts  --      7.5151                 8.3053                 8.5902
 IR Inten    --     69.6504                91.5039                93.8651

 - Thermochemistry -
 -------------------
 Temperature   298.150 Kelvin.  Pressure   1.00000 Atm.
 Atom     1 has atomic number  6 and mass  12.00000

 Molecular mass:   347.94729 amu.
 Principal axes and moments of inertia in atomic units:
                           1         2         3
     Eigenvalues --  4462.339996332.157208369.24732
           X            0.99968   0.02531  -0.00247
           Y           -0.02516   0.99859   0.04677
           Z            0.00365  -0.04669   0.99890
 This molecule is an asymmetric top.
 Rotational symmetry number  1.
 Warning -- assumption of classical behavior for rotation
           may cause significant error
 Rotational temperatures (Kelvin)      0.01941     0.01368     0.01035
 Rotational constants (GHZ):           0.40444     0.28501     0.21564
    1 imaginary frequencies ignored.
 Zero-point vibrational energy     623482.1 (Joules/Mol)
                                  149.01579 (Kcal/Mol)
 Warning -- explicit consideration of  25 degrees of freedom as
           vibrations may cause significant error
 Vibrational temperatures:     45.01    73.48    92.91   101.79   112.33
          (Kelvin)            158.39   176.19   191.33   210.84   224.74
                              231.37   266.50   302.56   345.74   376.76
                              403.24   417.02   446.62   486.66   579.69
                              603.79   618.82   725.52   796.31   862.57
                              918.96   950.66  1022.37  1042.40  1095.96
                             1128.42  1156.98  1252.57  1270.03  1377.32
                             1432.30  1457.25  1457.95  1476.82  1486.93
                             1537.91  1548.14  1582.16  1623.37  1639.25
                             1664.49  1708.93  1711.73  1745.55  1753.86
                             1776.28  1863.59  1902.79  1955.47  1983.66
                             2087.59  2097.60  2123.68  2126.61  2140.50
                             2145.81  2166.17  2173.85  2232.61  2242.56
                             2330.34  2379.96  2391.69  2413.03  4391.28
                             4408.28  4476.99  4507.23  4552.27  4564.67
                             4603.62  4614.80  4627.26  4640.30  4702.70
                             4998.39  5170.53  5290.71

 Zero-point correction=                           0.237472 (Hartree/Particle)
 Thermal correction to Energy=                    0.254971
 Thermal correction to Enthalpy=                  0.255915
 Thermal correction to Gibbs Free Energy=         0.190074
 Sum of electronic and zero-point Energies=          -5760.515222
 Sum of electronic and thermal Energies=             -5760.497723
 Sum of electronic and thermal Enthalpies=           -5760.496779
 Sum of electronic and thermal Free Energies=        -5760.562621

                     E (Thermal)             CV                S
                      KCal/Mol        Cal/Mol-Kelvin    Cal/Mol-Kelvin
 Total                  159.997             61.737            138.576
 Electronic               0.000              0.000              0.000
 Translational            0.889              2.981             43.435
 Rotational               0.889              2.981             33.824
 Vibrational            158.219             55.776             61.316
 Vibration     1          0.594              1.983              5.746
 Vibration     2          0.595              1.977              4.775
 Vibration     3          0.597              1.971              4.312
 Vibration     4          0.598              1.968              4.132
 Vibration     5          0.599              1.964              3.939
 Vibration     6          0.606              1.941              3.267
 Vibration     7          0.610              1.930              3.061
 Vibration     8          0.613              1.920              2.902
 Vibration     9          0.617              1.906              2.717
 Vibration    10          0.620              1.896              2.595
 Vibration    11          0.622              1.890              2.540
 Vibration    12          0.631              1.860              2.275
 Vibration    13          0.642              1.825              2.041
 Vibration    14          0.657              1.779              1.801
 Vibration    15          0.669              1.743              1.649
 Vibration    16          0.680              1.710              1.532
 Vibration    17          0.686              1.693              1.475
 Vibration    18          0.699              1.654              1.360
 Vibration    19          0.719              1.599              1.220
 Vibration    20          0.768              1.464              0.952
 Vibration    21          0.782              1.428              0.893
 Vibration    22          0.791              1.405              0.858
 Vibration    23          0.860              1.241              0.648
 Vibration    24          0.909              1.132              0.537
 Vibration    25          0.958              1.033              0.450

 Optimization completed.
    -- Stationary point found.
 Normal termination of Gaussian 16 at Sun Feb  7 01:18:05 2021.
