 Gaussian 16, Revision A.03,
 Gaussian 16:  ES64L-G16RevA.03 25-Dec-2016

 ----------------------------------------------------------------------
 # wB97XD def2tzvp, opt=(ts, noeigen, calcfc, maxcycles=70, maxstep=5),
  freq=noraman, scrf=(iefpcm, solvent=water)
 ----------------------------------------------------------------------

 ------------------------
 2_iteration/TS-110-2.out
 ------------------------
 Symbolic Z-matrix:
 Charge =  0 Multiplicity = 1

 SCF Done:  E(RwB97XD) =  -3265.76209370     A.U. after   15 cycles
 SCF Done:  E(RwB97XD) =  -3265.76209755     A.U. after   11 cycles
 SCF Done:  E(RwB97XD) =  -3265.76211737     A.U. after   10 cycles
 SCF Done:  E(RwB97XD) =  -3265.76211780     A.U. after    8 cycles
 SCF Done:  E(RwB97XD) =  -3265.76211768     A.U. after    7 cycles
 SCF Done:  E(RwB97XD) =  -3265.76211793     A.U. after    7 cycles
 SCF Done:  E(RwB97XD) =  -3265.76211788     A.U. after    6 cycles
 SCF Done:  E(RwB97XD) =  -3265.76211790     A.U. after    6 cycles
 Optimization completed.
    -- Stationary point found.
 Normal termination of Gaussian 16 at Sun Feb  7 17:59:40 2021.

 ---------------------------------------------------------------------
 #N Geom=AllCheck Guess=TCheck SCRF=Check GenChk RwB97XD/def2TZVP Freq
 ---------------------------------------------------------------------

 Structure from the checkpoint file:  "/beegfs/scratch/user/q/tla25/Gau-43594.chk"
 ------------------------
 2_iteration/TS-110-2.out
 ------------------------
 Charge =  0 Multiplicity = 1

                         Standard orientation:
 ---------------------------------------------------------------------
 Center     Atomic      Atomic             Coordinates (Angstroms)
 Number     Number       Type             X           Y           Z
 ---------------------------------------------------------------------
      1          6           0       -0.735849   -0.010245    0.205143
      2          6           0       -2.087362    0.535258    0.240608
      3          8           0       -2.292602    1.761076    0.107458
      4          6           0        0.385015    0.811557    0.466128
      5          6           0        1.180451    3.353941   -0.817216
      6          1           0        1.048274    3.946763   -1.723419
      7          1           0        0.879316    3.953702    0.038240
      8          1           0        2.232591    3.095406   -0.711019
      9          7           0        0.366060    2.137894   -0.860701
     10          1           0       -0.631097    2.340237   -0.742477
     11          1           0        0.468343    1.645344   -1.740068
     12          6           0        1.746554    0.156479    0.386044
     13          6           0        2.644071    0.312401   -0.662258
     14          6           0        3.875034   -0.331088   -0.649724
     15          6           0        4.230360   -1.145961    0.411390
     16          6           0        3.339285   -1.315969    1.462046
     17          6           0        2.114779   -0.670679    1.448079
     18          1           0        2.402320    0.922795   -1.519435
     19          1           0        4.554106   -0.192792   -1.481528
     20          1           0        5.189342   -1.647964    0.419589
     21          1           0        3.596417   -1.956319    2.296412
     22          1           0        1.423887   -0.826909    2.266619
     23          6           0        0.288760    1.722004    1.685173
     24          1           0        0.301110    1.108655    2.585225
     25          1           0        1.145297    2.393538    1.730710
     26          1           0       -0.629626    2.301964    1.677140
     27         35           0       -0.493940   -1.458633   -1.059285
     28          7           0       -3.144133   -0.302624    0.407572
     29          6           0       -3.044647   -1.622864    0.989391
     30          6           0       -4.488402    0.197756    0.222446
     31          1           0       -2.048761   -1.776601    1.396015
     32          1           0       -3.770515   -1.709649    1.802248
     33          1           0       -3.253566   -2.405363    0.255161
     34          1           0       -4.477549    1.042054   -0.460990
     35          1           0       -5.110683   -0.596125   -0.194163
     36          1           0       -4.932299    0.522378    1.169454
 ---------------------------------------------------------------------

 SCF Done:  E(RwB97XD) =  -3265.76211790     A.U. after    1 cycles

 The electronic state is 1-A.
 Alpha  occ. eigenvalues -- -483.11304 -62.66115 -56.45215 -56.44891 -56.44885
 Alpha  occ. eigenvalues --  -19.20520 -14.47703 -14.45497 -10.37848 -10.35675
 Alpha  occ. eigenvalues --  -10.31639 -10.30777 -10.30452 -10.30303 -10.29392
 Alpha  occ. eigenvalues --  -10.29192 -10.29177 -10.29131 -10.28994 -10.28957
 Alpha  occ. eigenvalues --  -10.27805  -8.80209  -6.62294  -6.61260  -6.61243
 Alpha  occ. eigenvalues --   -2.72690  -2.72392  -2.72378  -2.71541  -2.71541
 Alpha  occ. eigenvalues --   -1.13061  -1.03698  -1.02770  -0.97403  -0.92547
 Alpha  occ. eigenvalues --   -0.87502  -0.85405  -0.83822  -0.81617  -0.79832
 Alpha  occ. eigenvalues --   -0.79249  -0.75609  -0.72083  -0.70754  -0.66573
 Alpha  occ. eigenvalues --   -0.63941  -0.61753  -0.59979  -0.58095  -0.56510
 Alpha  occ. eigenvalues --   -0.56172  -0.55736  -0.55159  -0.54555  -0.53060
 Alpha  occ. eigenvalues --   -0.52245  -0.50898  -0.50622  -0.48772  -0.48316
 Alpha  occ. eigenvalues --   -0.48211  -0.47655  -0.47591  -0.46697  -0.46065
 Alpha  occ. eigenvalues --   -0.45563  -0.43907  -0.43645  -0.42494  -0.41264
 Alpha  occ. eigenvalues --   -0.38148  -0.36937  -0.34206  -0.33864  -0.33081
 Alpha  occ. eigenvalues --   -0.31632  -0.25691
 Alpha virt. eigenvalues --    0.04865   0.04995   0.05756   0.08674   0.10447
 Alpha virt. eigenvalues --    0.12119   0.13400   0.13749   0.14556   0.15571
 Alpha virt. eigenvalues --    0.16146   0.16672   0.17214   0.17509   0.18024

 Mulliken charges:
               1
     1  C   -0.363503
     2  C    0.355439
     3  O   -0.588045
     4  C    0.261108
     5  C   -0.301204
     6  H    0.154488
     7  H    0.162631
     8  H    0.158396
     9  N   -0.323230
    10  H    0.273457
    11  H    0.272479
    12  C    0.250899
    13  C   -0.245236
    14  C   -0.159872
    15  C   -0.148460
    16  C   -0.142340
    17  C   -0.308792
    18  H    0.153380
    19  H    0.142748
    20  H    0.144119
    21  H    0.143036
    22  H    0.151731
    23  C   -0.446562
    24  H    0.144343
    25  H    0.152091
    26  H    0.161648
    27  Br  -0.199609
    28  N   -0.109056
    29  C   -0.297091
    30  C   -0.292919
    31  H    0.156891
    32  H    0.136670
    33  H    0.139117
    34  H    0.139426
    35  H    0.137620
    36  H    0.134204
 Sum of Mulliken charges =  -0.00000

 Dipole moment (field-independent basis, Debye):
    X=              2.7005    Y=              2.7631    Z=             -0.1421  Tot=              3.8662
 Quadrupole moment (field-independent basis, Debye-Ang):
   XX=           -105.0227   YY=           -109.8469   ZZ=           -108.7892
   XY=              9.6557   XZ=             -4.6484   YZ=             -9.8097

  Exact polarizability: 309.831   1.037 268.571 -19.774 -16.644 236.259
 Approx polarizability: 230.179  -4.055 220.403 -14.073 -14.213 204.888

 ******    1 imaginary frequencies (negative Signs) ******

                      1                      2                      3
                      A                      A                      A
 Frequencies --   -355.2616                37.4646                47.6868
 Red. masses --      5.8371                 3.5617                 6.1343
 Frc consts  --      0.4341                 0.0029                 0.0082
 IR Inten    --    736.2008                 0.1930                 0.5572

                      4                      5                      6
                      A                      A                      A
 Frequencies --     64.3930                71.9701                92.3682
 Red. masses --      5.1447                 4.0567                 3.4671
 Frc consts  --      0.0126                 0.0124                 0.0174
 IR Inten    --      0.4910                11.1210                 0.6106

                      7                      8                      9
                      A                      A                      A
 Frequencies --    115.1497               132.4082               139.7165
 Red. masses --      3.0129                 1.6795                 1.6682
 Frc consts  --      0.0235                 0.0173                 0.0192
 IR Inten    --     15.3540                 9.9398                 1.0140

                     10                     11                     12
                      A                      A                      A
 Frequencies --    153.6447               168.4435               200.2346
 Red. masses --      1.9458                 2.0925                 3.3049
 Frc consts  --      0.0271                 0.0350                 0.0781
 IR Inten    --      1.4775                 0.6583                 0.1175

                     13                     14                     15
                      A                      A                      A
 Frequencies --    212.1847               216.1279               241.2518
 Red. masses --      1.9194                 3.3449                 1.8669
 Frc consts  --      0.0509                 0.0921                 0.0640
 IR Inten    --      6.5300                13.3951                 1.7707

                     16                     17                     18
                      A                      A                      A
 Frequencies --    260.5095               281.9623               292.1704
 Red. masses --      3.9873                 1.7115                 2.7609
 Frc consts  --      0.1594                 0.0802                 0.1389
 IR Inten    --     12.0552                11.4306                 8.4260

                     19                     20                     21
                      A                      A                      A
 Frequencies --    310.5862               323.8365               337.6171
 Red. masses --      1.6348                 2.8044                 3.0396
 Frc consts  --      0.0929                 0.1733                 0.2041
 IR Inten    --     11.7786                42.1073                10.2914

                     22                     23                     24
                      A                      A                      A
 Frequencies --    397.5289               421.0986               424.6102
 Red. masses --      4.2155                 3.4716                 3.0966
 Frc consts  --      0.3925                 0.3627                 0.3289
 IR Inten    --     33.9704                 6.3834                 2.2653

                     25                     26                     27
                      A                      A                      A
 Frequencies --    445.4569               495.4654               538.0094
 Red. masses --      3.1780                 3.6177                 4.6177
 Frc consts  --      0.3716                 0.5232                 0.7875
 IR Inten    --     11.0588                34.2377               173.1165

                     28                     29                     30
                      A                      A                      A
 Frequencies --    560.2060               626.9349               638.7775
 Red. masses --      3.7173                 4.3143                 6.3231
 Frc consts  --      0.6873                 0.9991                 1.5201
 IR Inten    --     50.3951                24.1516                 4.5196

                     31                     32                     33
                      A                      A                      A
 Frequencies --    668.7783               728.3036               738.6587
 Red. masses --      5.0549                 1.5803                 1.3460
 Frc consts  --      1.3321                 0.4939                 0.4327
 IR Inten    --     26.2588                91.0930                53.2782

                     34                     35                     36
                      A                      A                      A
 Frequencies --    764.4433               790.3104               809.2799
 Red. masses --      6.6397                 2.5741                 3.4351
 Frc consts  --      2.2861                 0.9473                 1.3255
 IR Inten    --     73.1083                31.6456                 9.2085

                     37                     38                     39
                      A                      A                      A
 Frequencies --    876.2652               904.3470               953.8835
 Red. masses --      1.2483                 5.1751                 1.4249
 Frc consts  --      0.5647                 2.4937                 0.7639
 IR Inten    --      0.1459                25.7128                 5.2501

                     40                     41                     42
                      A                      A                      A
 Frequencies --    983.1127              1012.0813              1025.2910
 Red. masses --      2.7257                 1.3724                 5.4464
 Frc consts  --      1.5522                 0.8283                 3.3733
 IR Inten    --     67.0965                 0.3955                 3.0426

                     43                     44                     45
                      A                      A                      A
 Frequencies --   1029.1699              1040.4169              1053.1226
 Red. masses --      1.3104                 1.3007                 1.8581
 Frc consts  --      0.8177                 0.8295                 1.2141
 IR Inten    --      1.1901                 4.7808                42.5075

                     46                     47                     48
                      A                      A                      A
 Frequencies --   1063.9017              1069.2957              1075.2918
 Red. masses --      2.4971                 1.5271                 2.0179
 Frc consts  --      1.6653                 1.0288                 1.3747
 IR Inten    --     24.6310               113.3190                16.0182

                     49                     50                     51
                      A                      A                      A
 Frequencies --   1093.5582              1110.8536              1133.2900
 Red. masses --      1.3563                 1.7410                 1.3261
 Frc consts  --      0.9556                 1.2658                 1.0035
 IR Inten    --     20.8264               125.5562                 5.6875

                     52                     53                     54
                      A                      A                      A
 Frequencies --   1134.0655              1137.3690              1171.3373
 Red. masses --      1.5971                 1.6078                 1.4045
 Frc consts  --      1.2102                 1.2254                 1.1354
 IR Inten    --     22.4861                60.8598                 5.0074

                     55                     56                     57
                      A                      A                      A
 Frequencies --   1186.9280              1222.6045              1231.2451
 Red. masses --      1.1329                 2.5852                 1.2063
 Frc consts  --      0.9404                 2.2767                 1.0774
 IR Inten    --      0.5590               228.2542                 2.3894

                     58                     59                     60
                      A                      A                      A
 Frequencies --   1253.6889              1262.3942              1317.4654
 Red. masses --      2.4140                 1.8739                 5.0735
 Frc consts  --      2.2355                 1.7595                 5.1884
 IR Inten    --    105.5380                81.1314                32.2277

                     61                     62                     63
                      A                      A                      A
 Frequencies --   1324.5186              1355.4000              1375.7813
 Red. masses --      5.0861                 1.3479                 1.3716
 Frc consts  --      5.2572                 1.4590                 1.5296
 IR Inten    --     10.8648                45.7020                10.4194

                     64                     65                     66
                      A                      A                      A
 Frequencies --   1397.2346              1414.3102              1437.1497
 Red. masses --      2.8553                 1.2843                 2.0630
 Frc consts  --      3.2843                 1.5136                 2.5105
 IR Inten    --    683.5014                73.6733               223.1105

                     67                     68                     69
                      A                      A                      A
 Frequencies --   1449.2163              1464.6857              1473.9362
 Red. masses --      1.1611                 1.1977                 1.2642
 Frc consts  --      1.4367                 1.5139                 1.6182
 IR Inten    --     10.2792                 8.0558                86.3614

                     70                     71                     72
                      A                      A                      A
 Frequencies --   1484.1636              1488.2182              1493.6352
 Red. masses --      1.0535                 1.8718                 1.1928
 Frc consts  --      1.3672                 2.4425                 1.5678
 IR Inten    --     12.5034                41.6932                26.0630

                     73                     74                     75
                      A                      A                      A
 Frequencies --   1497.9984              1499.0814              1503.1861
 Red. masses --      1.0437                 1.0427                 1.0576
 Frc consts  --      1.3799                 1.3806                 1.4079
 IR Inten    --     11.7792                 7.0442                26.5653

                     76                     77                     78
                      A                      A                      A
 Frequencies --   1505.8789              1512.8556              1531.5473
 Red. masses --      1.0794                 1.0478                 1.6536
 Frc consts  --      1.4422                 1.4130                 2.2854
 IR Inten    --     21.7982                12.4431               278.5967

                     79                     80                     81
                      A                      A                      A
 Frequencies --   1551.3951              1601.0127              1653.0088
 Red. masses --      2.2584                 4.6697                 5.0759
 Frc consts  --      3.2025                 7.0522                 8.1717
 IR Inten    --     15.2412               639.4250                 2.0096

                     82                     83                     84
                      A                      A                      A
 Frequencies --   1675.8340              1681.5623              3030.0562
 Red. masses --      1.8517                 1.8483                 1.0439
 Frc consts  --      3.0639                 3.0793                 5.6471
 IR Inten    --     42.7887                19.8834                86.1465

                     85                     86                     87
                      A                      A                      A
 Frequencies --   3037.8191              3067.9648              3080.8446
 Red. masses --      1.0387                 1.0364                 1.0369
 Frc consts  --      5.6478                 5.7478                 5.7988
 IR Inten    --    126.0263                59.5805                29.8148

                     88                     89                     90
                      A                      A                      A
 Frequencies --   3091.5890              3100.6344              3144.9217
 Red. masses --      1.1022                 1.0974                 1.1023
 Frc consts  --      6.2067                 6.2159                 6.4235
 IR Inten    --     76.7846                21.1981                21.8974

                     91                     92                     93
                      A                      A                      A
 Frequencies --   3151.0267              3171.4967              3173.7412
 Red. masses --      1.1019                 1.0985                 1.1044
 Frc consts  --      6.4461                 6.5101                 6.5543
 IR Inten    --     21.9300                10.3279                18.1066

                     94                     95                     96
                      A                      A                      A
 Frequencies --   3174.7487              3186.8674              3196.4459
 Red. masses --      1.0992                 1.1020                 1.0858
 Frc consts  --      6.5272                 6.5943                 6.5366
 IR Inten    --     10.7214                 8.2322                 0.8197

                     97                     98                     99
                      A                      A                      A
 Frequencies --   3204.1990              3213.3500              3222.5049
 Red. masses --      1.0891                 1.0933                 1.0978
 Frc consts  --      6.5878                 6.6515                 6.7167
 IR Inten    --      4.5260                29.4620                24.4520

                    100                    101                    102
                      A                      A                      A
 Frequencies --   3244.4924              3370.1083              3574.5095
 Red. masses --      1.0917                 1.0694                 1.0808
 Frc consts  --      6.7710                 7.1562                 8.1364
 IR Inten    --     17.4846               247.4976                42.7559

 - Thermochemistry -
 -------------------
 Temperature   298.150 Kelvin.  Pressure   1.00000 Atm.
 Atom     1 has atomic number  6 and mass  12.00000

 Molecular mass:   298.06807 amu.
 Principal axes and moments of inertia in atomic units:
                           1         2         3
     Eigenvalues --  3172.112746498.024697791.58497
           X            0.99989   0.00652  -0.01306
           Y           -0.00755   0.99673  -0.08041
           Z            0.01249   0.08050   0.99668
 This molecule is an asymmetric top.
 Rotational symmetry number  1.
 Warning -- assumption of classical behavior for rotation
           may cause significant error
 Rotational temperatures (Kelvin)      0.02730     0.01333     0.01112
 Rotational constants (GHZ):           0.56894     0.27774     0.23163
    1 imaginary frequencies ignored.
 Zero-point vibrational energy     800884.9 (Joules/Mol)
                                  191.41608 (Kcal/Mol)
 Warning -- explicit consideration of  27 degrees of freedom as
           vibrations may cause significant error
 Vibrational temperatures:     53.90    68.61    92.65   103.55   132.90
          (Kelvin)            165.67   190.51   201.02   221.06   242.35
                              288.09   305.29   310.96   347.11   374.82
                              405.68   420.37   446.86   465.93   485.76
                              571.96   605.87   610.92   640.91   712.86
                              774.08   806.01   902.02   919.06   962.22
                             1047.87  1062.77  1099.86  1137.08  1164.37
                             1260.75  1301.15  1372.43  1414.48  1456.16
                             1475.17  1480.75  1496.93  1515.21  1530.72
                             1538.48  1547.11  1573.39  1598.27  1630.55
                             1631.67  1636.42  1685.29  1707.72  1759.06
                             1771.49  1803.78  1816.30  1895.54  1905.69
                             1950.12  1979.44  2010.31  2034.88  2067.74
                             2085.10  2107.36  2120.67  2135.38  2141.21
                             2149.01  2155.29  2156.84  2162.75  2166.62
                             2176.66  2203.56  2232.11  2303.50  2378.31
                             2411.15  2419.39  4359.58  4370.74  4414.12
                             4432.65  4448.11  4461.12  4524.84  4533.62
                             4563.08  4566.31  4567.76  4585.19  4598.97
                             4610.13  4623.29  4636.47  4668.10  4848.83
                             5142.92

 Zero-point correction=                           0.305041 (Hartree/Particle)
 Thermal correction to Energy=                    0.323271
 Thermal correction to Enthalpy=                  0.324215
 Thermal correction to Gibbs Free Energy=         0.258278
 Sum of electronic and zero-point Energies=          -3265.457077
 Sum of electronic and thermal Energies=             -3265.438847
 Sum of electronic and thermal Enthalpies=           -3265.437903
 Sum of electronic and thermal Free Energies=        -3265.503840

                     E (Thermal)             CV                S
                      KCal/Mol        Cal/Mol-Kelvin    Cal/Mol-Kelvin
 Total                  202.855             67.177            138.776
 Electronic               0.000              0.000              0.000
 Translational            0.889              2.981             42.973
 Rotational               0.889              2.981             33.440
 Vibrational            201.078             61.215             62.362
 Vibration     1          0.594              1.982              5.389
 Vibration     2          0.595              1.978              4.911
 Vibration     3          0.597              1.971              4.318
 Vibration     4          0.598              1.967              4.099
 Vibration     5          0.602              1.955              3.609
 Vibration     6          0.608              1.937              3.180
 Vibration     7          0.613              1.921              2.911
 Vibration     8          0.615              1.914              2.808
 Vibration     9          0.619              1.899              2.627
 Vibration    10          0.625              1.881              2.453
 Vibration    11          0.638              1.840              2.131
 Vibration    12          0.643              1.822              2.025
 Vibration    13          0.645              1.816              1.991
 Vibration    14          0.658              1.777              1.794
 Vibration    15          0.669              1.745              1.658
 Vibration    16          0.681              1.707              1.522
 Vibration    17          0.688              1.688              1.461
 Vibration    18          0.699              1.654              1.359
 Vibration    19          0.708              1.628              1.291
 Vibration    20          0.718              1.600              1.223
 Vibration    21          0.764              1.475              0.972
 Vibration    22          0.784              1.424              0.888
 Vibration    23          0.787              1.417              0.876
 Vibration    24          0.805              1.371              0.810
 Vibration    25          0.851              1.260              0.670
 Vibration    26          0.893              1.166              0.570
 Vibration    27          0.916              1.117              0.523

 Optimization completed.
    -- Stationary point found.
 Normal termination of Gaussian 16 at Sun Feb  7 19:43:16 2021.
