 Gaussian 16, Revision A.03,
 Gaussian 16:  ES64L-G16RevA.03 25-Dec-2016

 ----------------------------------------------------------------------
 # wB97XD def2tzvp, opt=(ts, noeigen, calcfc, maxcycles=70, maxstep=3),
  freq=noraman, scrf=(iefpcm, solvent=water)
 ----------------------------------------------------------------------

 ------------------------
 0_iteration/TS-189-0.out
 ------------------------
 Symbolic Z-matrix:
 Charge =  0 Multiplicity = 1

 SCF Done:  E(RwB97XD) =  -3646.74670188     A.U. after   16 cycles
 SCF Done:  E(RwB97XD) =  -3646.74663095     A.U. after   12 cycles
 SCF Done:  E(RwB97XD) =  -3646.74661108     A.U. after   12 cycles
 SCF Done:  E(RwB97XD) =  -3646.74663335     A.U. after   10 cycles
 SCF Done:  E(RwB97XD) =  -3646.74671093     A.U. after   12 cycles
 SCF Done:  E(RwB97XD) =  -3646.74686166     A.U. after   12 cycles
 SCF Done:  E(RwB97XD) =  -3646.74707596     A.U. after   12 cycles
 SCF Done:  E(RwB97XD) =  -3646.74731950     A.U. after   12 cycles
 SCF Done:  E(RwB97XD) =  -3646.74758040     A.U. after   12 cycles
 SCF Done:  E(RwB97XD) =  -3646.74784357     A.U. after   11 cycles
 SCF Done:  E(RwB97XD) =  -3646.74848070     A.U. after   11 cycles
 SCF Done:  E(RwB97XD) =  -3646.74848119     A.U. after   10 cycles
 SCF Done:  E(RwB97XD) =  -3646.74848123     A.U. after    7 cycles
 SCF Done:  E(RwB97XD) =  -3646.74848159     A.U. after    8 cycles
 SCF Done:  E(RwB97XD) =  -3646.74848143     A.U. after    8 cycles
 SCF Done:  E(RwB97XD) =  -3646.74848080     A.U. after    9 cycles
 SCF Done:  E(RwB97XD) =  -3646.74848149     A.U. after    9 cycles
 SCF Done:  E(RwB97XD) =  -3646.74848160     A.U. after    7 cycles
 SCF Done:  E(RwB97XD) =  -3646.74848173     A.U. after    7 cycles
 Optimization completed on the basis of negligible forces.
    -- Stationary point found.
 Normal termination of Gaussian 16 at Tue Apr 13 11:51:46 2021.

 ---------------------------------------------------------------------
 #N Geom=AllCheck Guess=TCheck SCRF=Check GenChk RwB97XD/def2TZVP Freq
 ---------------------------------------------------------------------

 Structure from the checkpoint file:  "/beegfs/scratch/user/q/tla25/Gau-121669.chk"
 ------------------------
 0_iteration/TS-189-0.out
 ------------------------
 Charge =  0 Multiplicity = 1

                         Standard orientation:
 ---------------------------------------------------------------------
 Center     Atomic      Atomic             Coordinates (Angstroms)
 Number     Number       Type             X           Y           Z
 ---------------------------------------------------------------------
      1          6           0        0.823448   -0.141013   -0.174433
      2          6           0        2.231891    0.229180   -0.220191
      3          8           0        2.581298    1.414078   -0.102702
      4          6           0       -0.193368    0.798489   -0.223081
      5          6           0        0.478356    1.414710    2.506125
      6          1           0       -0.383175    1.302536    3.158989
      7          1           0        0.895195    0.428270    2.288597
      8          1           0        1.236632    2.005243    3.019111
      9          7           0        0.098100    2.035255    1.243640
     10          1           0       -0.646912    2.716246    1.328598
     11          1           0        0.913314    2.468229    0.819190
     12          6           0       -1.629140    0.366699   -0.159054
     13          6           0       -2.220463   -0.116782   -1.325783
     14          6           0       -3.524501   -0.577352   -1.316499
     15          6           0       -4.263779   -0.556764   -0.140916
     16          6           0       -3.683936   -0.075083    1.020084
     17          6           0       -2.372948    0.382555    1.011752
     18          1           0       -1.649177   -0.137558   -2.244723
     19          1           0       -3.965501   -0.952900   -2.230904
     20          1           0       -5.285635   -0.913589   -0.133122
     21          1           0       -4.248386   -0.053346    1.943348
     22          1           0       -1.942857    0.736776    1.935131
     23         17           0       -0.038362    2.112898   -1.480254
     24         35           0        0.380812   -1.961148    0.230795
     25          7           0        3.155716   -0.743967   -0.369816
     26          6           0        4.569786   -0.454661   -0.383210
     27          1           0        2.851845   -1.690347   -0.507329
     28          1           0        4.867887    0.074662    0.523093
     29          1           0        5.114649   -1.394599   -0.434818
     30          1           0        4.846665    0.159770   -1.242594
 ---------------------------------------------------------------------

 SCF Done:  E(RwB97XD) =  -3646.74848173     A.U. after    1 cycles

 The electronic state is 1-A.
 Alpha  occ. eigenvalues -- -483.12899-101.69228 -62.67710 -56.46827 -56.46480
 Alpha  occ. eigenvalues --  -56.46468 -19.20889 -14.48407 -14.45117 -10.40965
 Alpha  occ. eigenvalues --  -10.38646 -10.31730 -10.31670 -10.31313 -10.30900
 Alpha  occ. eigenvalues --  -10.29966 -10.29781 -10.29579 -10.29540 -10.29487
 Alpha  occ. eigenvalues --   -9.57824  -8.81809  -7.32459  -7.31612  -7.31571
 Alpha  occ. eigenvalues --   -6.63948  -6.62841  -6.62801  -2.74338  -2.74022
 Alpha  occ. eigenvalues --   -2.73989  -2.73095  -2.73094  -1.13650  -1.04349
 Alpha  occ. eigenvalues --   -1.01926  -0.98876  -0.95679  -0.91296  -0.86881
 Alpha  occ. eigenvalues --   -0.85859  -0.82208  -0.80341  -0.78907  -0.73387
 Alpha  occ. eigenvalues --   -0.71330  -0.68526  -0.66374  -0.63736  -0.61414
 Alpha  occ. eigenvalues --   -0.58821  -0.57841  -0.56493  -0.55915  -0.54858
 Alpha  occ. eigenvalues --   -0.54580  -0.52872  -0.51990  -0.51513  -0.51248
 Alpha  occ. eigenvalues --   -0.48666  -0.47876  -0.47453  -0.47069  -0.46561
 Alpha  occ. eigenvalues --   -0.45473  -0.43774  -0.43044  -0.40296  -0.40201
 Alpha  occ. eigenvalues --   -0.39249  -0.38062  -0.34445  -0.34377  -0.33788
 Alpha  occ. eigenvalues --   -0.33317  -0.27639
 Alpha virt. eigenvalues --    0.02022   0.04303   0.05139   0.06891   0.10594
 Alpha virt. eigenvalues --    0.11064   0.12830   0.13924   0.14594   0.14864
 Alpha virt. eigenvalues --    0.15332   0.16222   0.17060   0.17881   0.18224

 Mulliken charges:
               1
     1  C   -0.372513
     2  C    0.412266
     3  O   -0.558784
     4  C    0.308276
     5  C   -0.289095
     6  H    0.158940
     7  H    0.151464
     8  H    0.157223
     9  N   -0.344633
    10  H    0.292288
    11  H    0.281279
    12  C    0.138881
    13  C   -0.286980
    14  C   -0.129867
    15  C   -0.132786
    16  C   -0.173414
    17  C   -0.123879
    18  H    0.151581
    19  H    0.146899
    20  H    0.147590
    21  H    0.144425
    22  H    0.116147
    23  Cl  -0.144061
    24  Br  -0.136715
    25  N   -0.319955
    26  C   -0.249798
    27  H    0.254847
    28  H    0.129488
    29  H    0.142409
    30  H    0.128474
 Sum of Mulliken charges =  -0.00000

 Dipole moment (field-independent basis, Debye):
    X=             -2.2982    Y=             -0.0185    Z=              4.0842  Tot=              4.6865
 Quadrupole moment (field-independent basis, Debye-Ang):
   XX=           -101.7743   YY=           -113.0030   ZZ=           -104.8363
   XY=             -8.8231   XZ=             -1.3964   YZ=             12.3836

  Exact polarizability: 291.608   6.311 242.074  -9.593   9.461 235.422
 Approx polarizability: 219.797   8.488 206.198  -7.333   6.877 202.974

 ******    1 imaginary frequencies (negative Signs) ******

                      1                      2                      3
                      A                      A                      A
 Frequencies --   -338.4922                20.6268                47.6484
 Red. masses --      5.6477                 3.9739                 4.4018
 Frc consts  --      0.3813                 0.0010                 0.0059
 IR Inten    --    506.3445                 0.8193                 5.0102

                      4                      5                      6
                      A                      A                      A
 Frequencies --     64.3694                67.6845                72.3488
 Red. masses --      3.8922                 1.4243                 3.5574
 Frc consts  --      0.0095                 0.0038                 0.0110
 IR Inten    --      1.2430                 0.2663                11.9060

                      7                      8                      9
                      A                      A                      A
 Frequencies --    115.0747               119.3933               129.4914
 Red. masses --      2.8023                 3.6842                 2.2143
 Frc consts  --      0.0219                 0.0309                 0.0219
 IR Inten    --      4.1873                 3.4061                 6.4948

                     10                     11                     12
                      A                      A                      A
 Frequencies --    155.8113               169.5552               185.9949
 Red. masses --      4.2875                 2.3922                 2.4087
 Frc consts  --      0.0613                 0.0405                 0.0491
 IR Inten    --     11.3375                21.2459                10.5848

                     13                     14                     15
                      A                      A                      A
 Frequencies --    190.9172               211.3055               247.1769
 Red. masses --      9.0328                 3.0352                 6.2825
 Frc consts  --      0.1940                 0.0798                 0.2262
 IR Inten    --      0.0621                 5.4759                 4.6826

                     16                     17                     18
                      A                      A                      A
 Frequencies --    275.8275               290.9401               304.3471
 Red. masses --      4.8438                 4.6869                 3.3474
 Frc consts  --      0.2171                 0.2337                 0.1827
 IR Inten    --      5.2906                10.9459                10.4707

                     19                     20                     21
                      A                      A                      A
 Frequencies --    330.9380               354.8435               401.2552
 Red. masses --      5.3546                 6.1430                 2.2968
 Frc consts  --      0.3455                 0.4557                 0.2179
 IR Inten    --     11.5711                74.3254                66.2494

                     22                     23                     24
                      A                      A                      A
 Frequencies --    416.0301               430.6203               505.3246
 Red. masses --      2.8514                 2.0896                 4.3591
 Frc consts  --      0.2908                 0.2283                 0.6558
 IR Inten    --      0.1250                40.9048                51.7503

                     25                     26                     27
                      A                      A                      A
 Frequencies --    560.1833               602.5839               638.9434
 Red. masses --      3.6848                 3.3763                 6.0644
 Frc consts  --      0.6813                 0.7223                 1.4587
 IR Inten    --    152.2342                61.3542                18.6137

                     28                     29                     30
                      A                      A                      A
 Frequencies --    669.7683               718.3759               728.1056
 Red. masses --      2.3467                 2.5195                 1.9240
 Frc consts  --      0.6202                 0.7661                 0.6010
 IR Inten    --     80.7261                 5.3180               323.7651

                     31                     32                     33
                      A                      A                      A
 Frequencies --    765.1504               781.8866               807.8592
 Red. masses --      5.7072                 8.1863                 2.4420
 Frc consts  --      1.9686                 2.9487                 0.9390
 IR Inten    --     57.5437                52.4513                 2.4043

                     34                     35                     36
                      A                      A                      A
 Frequencies --    871.4793               888.9901               958.1632
 Red. masses --      1.2577                 4.1887                 1.4498
 Frc consts  --      0.5628                 1.9504                 0.7842
 IR Inten    --      0.3619                 7.5296                 1.3923

                     37                     38                     39
                      A                      A                      A
 Frequencies --    999.6274              1013.0810              1017.8888
 Red. masses --      1.1278                 1.3816                 3.6322
 Frc consts  --      0.6640                 0.8354                 2.2173
 IR Inten    --     46.2625                 0.3024                18.5374

                     40                     41                     42
                      A                      A                      A
 Frequencies --   1027.9551              1033.9249              1066.1731
 Red. masses --      5.5962                 1.3241                 2.2334
 Frc consts  --      3.4841                 0.8340                 1.4958
 IR Inten    --      1.9335                 0.0532                17.0128

                     43                     44                     45
                      A                      A                      A
 Frequencies --   1076.8398              1107.7241              1124.8456
 Red. masses --      3.7171                 1.2901                 1.5762
 Frc consts  --      2.5395                 0.9327                 1.1750
 IR Inten    --     69.9106                40.0126                 6.4179

                     46                     47                     48
                      A                      A                      A
 Frequencies --   1141.9747              1157.3436              1186.6866
 Red. masses --      5.1647                 1.2920                 1.1336
 Frc consts  --      3.9684                 1.0196                 0.9405
 IR Inten    --      7.1131                 0.8224                 0.2352

                     49                     50                     51
                      A                      A                      A
 Frequencies --   1188.9679              1204.0721              1218.9584
 Red. masses --      1.7332                 1.4503                 1.2101
 Frc consts  --      1.4435                 1.2388                 1.0594
 IR Inten    --     19.5362                62.8822                13.7263

                     52                     53                     54
                      A                      A                      A
 Frequencies --   1223.4343              1307.6590              1323.5334
 Red. masses --      2.9280                 2.2411                 4.4076
 Frc consts  --      2.5822                 2.2579                 4.5491
 IR Inten    --     45.3774               360.7698                19.2648

                     55                     56                     57
                      A                      A                      A
 Frequencies --   1353.3878              1364.5210              1435.7902
 Red. masses --      1.2693                 1.4310                 1.9347
 Frc consts  --      1.3698                 1.5698                 2.3499
 IR Inten    --     30.0276                 3.2770               430.7236

                     58                     59                     60
                      A                      A                      A
 Frequencies --   1456.2023              1461.1327              1475.4768
 Red. masses --      1.2455                 1.8690                 1.0514
 Frc consts  --      1.5561                 2.3509                 1.3486
 IR Inten    --    101.1854               193.2704                12.9920

                     61                     62                     63
                      A                      A                      A
 Frequencies --   1490.0275              1490.4710              1504.9537
 Red. masses --      1.5167                 1.3406                 1.0485
 Frc consts  --      1.9839                 1.7546                 1.3992
 IR Inten    --     12.2352                21.9543                 6.2630

                     64                     65                     66
                      A                      A                      A
 Frequencies --   1506.4717              1548.8866              1569.6090
 Red. masses --      1.0700                 2.3977                 2.0279
 Frc consts  --      1.4307                 3.3891                 2.9436
 IR Inten    --     18.2750                12.8499               749.0584

                     67                     68                     69
                      A                      A                      A
 Frequencies --   1609.1329              1653.8213              1655.6718
 Red. masses --      1.3437                 4.7074                 3.9034
 Frc consts  --      2.0499                 7.5859                 6.3043
 IR Inten    --    300.4452                78.4738               145.6231

                     70                     71                     72
                      A                      A                      A
 Frequencies --   1676.7570              3051.1202              3057.5413
 Red. masses --      5.9388                 1.0361                 1.0379
 Frc consts  --      9.8376                 5.6831                 5.7165
 IR Inten    --      0.3571                76.9209                35.2620

                     73                     74                     75
                      A                      A                      A
 Frequencies --   3110.1962              3130.5791              3161.0962
 Red. masses --      1.1037                 1.1001                 1.1020
 Frc consts  --      6.2906                 6.3526                 6.4881
 IR Inten    --     39.9863                12.5392                21.8219

                     76                     77                     78
                      A                      A                      A
 Frequencies --   3174.1949              3200.3935              3209.0499
 Red. masses --      1.1040                 1.0863                 1.0896
 Frc consts  --      6.5539                 6.5555                 6.6111
 IR Inten    --     19.4133                 0.1223                 7.2860

                     79                     80                     81
                      A                      A                      A
 Frequencies --   3217.8627              3225.9520              3264.4607
 Red. masses --      1.0939                 1.0982                 1.0908
 Frc consts  --      6.6737                 6.7338                 6.8491
 IR Inten    --     20.0560                15.7410                 7.5894

                     82                     83                     84
                      A                      A                      A
 Frequencies --   3495.0291              3600.7152              3680.0779
 Red. masses --      1.0539                 1.0944                 1.0781
 Frc consts  --      7.5852                 8.3602                 8.6021
 IR Inten    --     60.5103               101.3883                87.9485

 - Thermochemistry -
 -------------------
 Temperature   298.150 Kelvin.  Pressure   1.00000 Atm.
 Atom     1 has atomic number  6 and mass  12.00000

 Molecular mass:   303.99780 amu.
 Principal axes and moments of inertia in atomic units:
                           1         2         3
     Eigenvalues --  3307.706646132.688097336.09659
           X            0.99996   0.00830  -0.00153
           Y           -0.00814   0.99614   0.08738
           Z            0.00225  -0.08736   0.99617
 This molecule is an asymmetric top.
 Rotational symmetry number  1.
 Warning -- assumption of classical behavior for rotation
           may cause significant error
 Rotational temperatures (Kelvin)      0.02619     0.01412     0.01181
 Rotational constants (GHZ):           0.54562     0.29428     0.24601
    1 imaginary frequencies ignored.
 Zero-point vibrational energy     624153.3 (Joules/Mol)
                                  149.17622 (Kcal/Mol)
 Warning -- explicit consideration of  25 degrees of freedom as
           vibrations may cause significant error
 Vibrational temperatures:     29.68    68.56    92.61    97.38   104.09
          (Kelvin)            165.57   171.78   186.31   224.18   243.95
                              267.61   274.69   304.02   355.63   396.85
                              418.60   437.89   476.15   510.54   577.32
                              598.57   619.57   727.05   805.98   866.98
                              919.30   963.65  1033.58  1047.58  1100.88
                             1124.96  1162.33  1253.86  1279.06  1378.58
                             1438.24  1457.60  1464.51  1479.00  1487.59
                             1533.99  1549.33  1593.77  1618.40  1643.05
                             1665.16  1707.38  1710.66  1732.39  1753.81
                             1760.25  1881.43  1904.27  1947.22  1963.24
                             2065.78  2095.15  2102.24  2122.88  2143.82
                             2144.46  2165.29  2167.48  2228.50  2258.32
                             2315.18  2379.48  2382.14  2412.48  4389.88
                             4399.12  4474.88  4504.21  4548.11  4566.96
                             4604.65  4617.11  4629.79  4641.43  4696.83
                             5028.57  5180.63  5294.81

 Zero-point correction=                           0.237727 (Hartree/Particle)
 Thermal correction to Energy=                    0.255070
 Thermal correction to Enthalpy=                  0.256014
 Thermal correction to Gibbs Free Energy=         0.190531
 Sum of electronic and zero-point Energies=          -3646.510754
 Sum of electronic and thermal Energies=             -3646.493412
 Sum of electronic and thermal Enthalpies=           -3646.492468
 Sum of electronic and thermal Free Energies=        -3646.557951

                     E (Thermal)             CV                S
                      KCal/Mol        Cal/Mol-Kelvin    Cal/Mol-Kelvin
 Total                  160.059             61.464            137.821
 Electronic               0.000              0.000              0.000
 Translational            0.889              2.981             43.032
 Rotational               0.889              2.981             33.364
 Vibrational            158.281             55.502             61.425
 Vibration     1          0.593              1.986              6.573
 Vibration     2          0.595              1.978              4.913
 Vibration     3          0.597              1.971              4.319
 Vibration     4          0.598              1.970              4.220
 Vibration     5          0.598              1.967              4.088
 Vibration     6          0.608              1.937              3.181
 Vibration     7          0.609              1.933              3.110
 Vibration     8          0.612              1.924              2.954
 Vibration     9          0.620              1.896              2.600
 Vibration    10          0.625              1.880              2.440
 Vibration    11          0.632              1.859              2.267
 Vibration    12          0.634              1.852              2.219
 Vibration    13          0.643              1.824              2.032
 Vibration    14          0.661              1.767              1.751
 Vibration    15          0.677              1.718              1.559
 Vibration    16          0.687              1.691              1.468
 Vibration    17          0.695              1.665              1.393
 Vibration    18          0.713              1.614              1.256
 Vibration    19          0.731              1.565              1.145
 Vibration    20          0.767              1.467              0.958
 Vibration    21          0.779              1.435              0.906
 Vibration    22          0.792              1.404              0.857
 Vibration    23          0.861              1.238              0.645
 Vibration    24          0.916              1.117              0.523
 Vibration    25          0.961              1.026              0.445

 Optimization completed on the basis of negligible forces.
    -- Stationary point found.
 Normal termination of Gaussian 16 at Tue Apr 13 12:24:11 2021.
