 Gaussian 16, Revision A.03,
 Gaussian 16:  ES64L-G16RevA.03 25-Dec-2016

 ----------------------------------------------------------------------
 # wB97XD def2tzvp, opt=(ts, noeigen, calcfc, maxcycles=70, maxstep=1),
  freq=noraman, scrf=(iefpcm, solvent=water)
 ----------------------------------------------------------------------

 ------------------------
 4_iteration/TS-159-4.out
 ------------------------
 Symbolic Z-matrix:
 Charge =  0 Multiplicity = 1

 SCF Done:  E(RwB97XD) =  -3838.48604643     A.U. after   15 cycles
 Optimization completed.
    -- Stationary point found.
 Normal termination of Gaussian 16 at Mon Feb  8 06:09:12 2021.

 ---------------------------------------------------------------------
 #N Geom=AllCheck Guess=TCheck SCRF=Check GenChk RwB97XD/def2TZVP Freq
 ---------------------------------------------------------------------

 Structure from the checkpoint file:  "/beegfs/scratch/user/q/tla25/Gau-54915.chk"
 ------------------------
 4_iteration/TS-159-4.out
 ------------------------
 Charge =  0 Multiplicity = 1

                         Standard orientation:
 ---------------------------------------------------------------------
 Center     Atomic      Atomic             Coordinates (Angstroms)
 Number     Number       Type             X           Y           Z
 ---------------------------------------------------------------------
      1          6           0       -0.158320   -0.437521    0.022470
      2          6           0        1.178880    0.137899    0.073590
      3          8           0        1.348099    1.323169    0.367840
      4          6           0       -1.307690    0.327509    0.074650
      5          6           0       -0.899410    0.474659    2.930590
      6          1           0       -0.418421    1.050319    3.721680
      7          1           0       -1.791110   -0.004111    3.327810
      8          1           0       -0.206370   -0.297481    2.592210
      9          7           0       -1.234621    1.315529    1.789730
     10          1           0       -2.025351    1.927308    1.953200
     11          1           0       -0.430151    1.876869    1.523370
     12          6           0       -2.656280   -0.318122   -0.013810
     13          6           0       -2.971170   -0.973392   -1.206300
     14          6           0       -4.197560   -1.587982   -1.372480
     15          6           0       -5.137880   -1.557302   -0.350080
     16          6           0       -4.836640   -0.903412    0.831260
     17          6           0       -3.604260   -0.283892    0.998630
     18          1           0       -2.243120   -0.998542   -2.007100
     19          1           0       -4.421090   -2.092082   -2.303870
     20          1           0       -6.099150   -2.037903   -0.478380
     21          1           0       -5.560660   -0.867773    1.634960
     22          1           0       -3.407660    0.219758    1.931790
     23         35           0       -1.350261    1.979769   -1.021510
     24         17           0       -0.303530   -2.184771    0.206580
     25          7           0        2.215690   -0.706610   -0.209170
     26          6           0        3.594670   -0.472370   -0.154740
     27          6           0        4.169729    0.761850    0.148150
     28          6           0        5.552309    0.886230    0.175800
     29          6           0        6.378170   -0.192449   -0.096390
     30          6           0        5.803540   -1.419499   -0.401410
     31          6           0        4.428570   -1.560100   -0.429730
     32          1           0        1.953810   -1.647460   -0.453290
     33          1           0        3.538209    1.609290    0.356320
     34          1           0        5.984299    1.850611    0.413430
     35          1           0        7.454300   -0.080999   -0.073330
     36          1           0        6.428970   -2.276239   -0.618490
     37          1           0        3.990410   -2.522770   -0.667210
 ---------------------------------------------------------------------

 SCF Done:  E(RwB97XD) =  -3838.48604643     A.U. after    1 cycles

 The electronic state is 1-A.
 Alpha  occ. eigenvalues -- -483.12930-101.70009 -62.67755 -56.46882 -56.46520
 Alpha  occ. eigenvalues --  -56.46503 -19.22103 -14.48183 -14.47171 -10.40706
 Alpha  occ. eigenvalues --  -10.40102 -10.34133 -10.32526 -10.31929 -10.31742
 Alpha  occ. eigenvalues --  -10.30126 -10.29876 -10.29623 -10.29583 -10.29527
 Alpha  occ. eigenvalues --  -10.29207 -10.29080 -10.29053 -10.28469 -10.28454
 Alpha  occ. eigenvalues --   -9.58533  -8.81841  -7.33176  -7.32330  -7.32286
 Alpha  occ. eigenvalues --   -6.64006  -6.62867  -6.62810  -2.74382  -2.74074
 Alpha  occ. eigenvalues --   -2.74028  -2.73107  -2.73106  -1.15083  -1.05025
 Alpha  occ. eigenvalues --   -1.03904  -0.99147  -0.96912  -0.95470  -0.91860
 Alpha  occ. eigenvalues --   -0.86230  -0.85934  -0.85562  -0.85286  -0.82083
 Alpha  occ. eigenvalues --   -0.78848  -0.76041  -0.72575  -0.71432  -0.71226
 Alpha  occ. eigenvalues --   -0.67772  -0.65719  -0.63704  -0.63008  -0.60605
 Alpha  occ. eigenvalues --   -0.58693  -0.58246  -0.57478  -0.56129  -0.55814
 Alpha  occ. eigenvalues --   -0.54362  -0.53982  -0.53029  -0.52455  -0.52091
 Alpha  occ. eigenvalues --   -0.51691  -0.51445  -0.50549  -0.49029  -0.48219
 Alpha  occ. eigenvalues --   -0.47371  -0.46453  -0.45254  -0.44962  -0.44040
 Alpha  occ. eigenvalues --   -0.43246  -0.43090  -0.42415  -0.41347  -0.40422
 Alpha  occ. eigenvalues --   -0.38143  -0.37112  -0.34894  -0.34455  -0.33929
 Alpha  occ. eigenvalues --   -0.33150  -0.30870  -0.27786
 Alpha virt. eigenvalues --    0.01225   0.02345   0.04663   0.05218   0.05873
 Alpha virt. eigenvalues --    0.07952   0.10766   0.11253   0.12723   0.13861
 Alpha virt. eigenvalues --    0.14018   0.14816   0.15307   0.16259   0.16888

 Mulliken charges:
               1
     1  C   -0.362750
     2  C    0.488358
     3  O   -0.542984
     4  C    0.294027
     5  C   -0.278639
     6  H    0.156862
     7  H    0.148867
     8  H    0.152539
     9  N   -0.368150
    10  H    0.290105
    11  H    0.283045
    12  C    0.178580
    13  C   -0.308180
    14  C   -0.115674
    15  C   -0.145061
    16  C   -0.166452
    17  C   -0.186364
    18  H    0.161307
    19  H    0.147516
    20  H    0.147778
    21  H    0.146113
    22  H    0.137953
    23  Br  -0.119313
    24  Cl  -0.144811
    25  N   -0.271303
    26  C    0.303739
    27  C   -0.289348
    28  C   -0.112627
    29  C   -0.192554
    30  C   -0.097679
    31  C   -0.310541
    32  H    0.240276
    33  H    0.163640
    34  H    0.142528
    35  H    0.141782
    36  H    0.144661
    37  H    0.142750
 Sum of Mulliken charges =  -0.00000

 Dipole moment (field-independent basis, Debye):
    X=             -3.8168    Y=             -1.2194    Z=              3.9895  Tot=              5.6543
 Quadrupole moment (field-independent basis, Debye-Ang):
   XX=           -124.8623   YY=           -139.4147   ZZ=           -131.2784
   XY=             -3.9883   XZ=             -8.8177   YZ=             11.7934

  Exact polarizability: 437.670   5.203 326.496 -17.104  24.739 273.784
 Approx polarizability: 313.740   6.675 280.784 -12.310  22.094 237.238

 ******    1 imaginary frequencies (negative Signs) ******

                      1                      2                      3
                      A                      A                      A
 Frequencies --   -359.7828                19.3427                21.6731
 Red. masses --      5.4053                 3.9372                 4.8996
 Frc consts  --      0.4122                 0.0009                 0.0014
 IR Inten    --    664.2626                 0.4345                 0.5261

                      4                      5                      6
                      A                      A                      A
 Frequencies --     33.3645                47.7852                74.0750
 Red. masses --      4.4466                 6.5072                 6.1865
 Frc consts  --      0.0029                 0.0088                 0.0200
 IR Inten    --      1.0633                 1.9656                 5.2243

                      7                      8                      9
                      A                      A                      A
 Frequencies --     78.5550                94.8573               122.4962
 Red. masses --      6.1208                 7.1037                 3.2273
 Frc consts  --      0.0223                 0.0377                 0.0285
 IR Inten    --      2.1458                 1.7395                 1.6608

                     10                     11                     12
                      A                      A                      A
 Frequencies --    134.9776               142.5550               159.5591
 Red. masses --      3.9635                 2.0976                 2.8650
 Frc consts  --      0.0425                 0.0251                 0.0430
 IR Inten    --      8.9037                11.1028                 2.0843

                     13                     14                     15
                      A                      A                      A
 Frequencies --    177.0413               206.1946               225.2157
 Red. masses --      6.2838                 4.4016                 2.9238
 Frc consts  --      0.1160                 0.1103                 0.0874
 IR Inten    --      1.0310                 1.1992                23.9639

                     16                     17                     18
                      A                      A                      A
 Frequencies --    243.7856               251.9112               263.4120
 Red. masses --      4.8918                 5.9242                 6.2204
 Frc consts  --      0.1713                 0.2215                 0.2543
 IR Inten    --      3.7856                 2.8557                10.1184

                     19                     20                     21
                      A                      A                      A
 Frequencies --    270.8924               303.2379               340.7417
 Red. masses --      6.1073                 3.4144                 7.7510
 Frc consts  --      0.2641                 0.1850                 0.5302
 IR Inten    --      6.3401                42.6861                12.9958

                     22                     23                     24
                      A                      A                      A
 Frequencies --    363.7106               420.4246               423.2645
 Red. masses --      7.3039                 2.8922                 2.9777
 Frc consts  --      0.5693                 0.3012                 0.3143
 IR Inten    --     10.5250                 0.5651                 0.1189

                     25                     26                     27
                      A                      A                      A
 Frequencies --    448.8974               507.0708               527.4722
 Red. masses --      9.2472                 4.6089                 2.7947
 Frc consts  --      1.0979                 0.6982                 0.4581
 IR Inten    --     12.7866                17.5245                20.0211

                     28                     29                     30
                      A                      A                      A
 Frequencies --    542.0193               560.6791               588.9855
 Red. masses --      3.8188                 5.2912                 1.1524
 Frc consts  --      0.6610                 0.9800                 0.2355
 IR Inten    --     48.2315               162.3210               109.4304

                     31                     32                     33
                      A                      A                      A
 Frequencies --    625.6096               635.3631               641.8850
 Red. masses --      4.2182                 6.4228                 5.8377
 Frc consts  --      0.9727                 1.5276                 1.4171
 IR Inten    --     19.3578                 3.3450                15.2578

                     34                     35                     36
                      A                      A                      A
 Frequencies --    667.9241               716.1117               718.9485
 Red. masses --      2.2643                 4.1208                 1.8875
 Frc consts  --      0.5952                 1.2451                 0.5748
 IR Inten    --    100.8042               113.6376                61.0505

                     37                     38                     39
                      A                      A                      A
 Frequencies --    725.4772               775.3534               785.5506
 Red. masses --      1.4809                 6.6887                 1.8854
 Frc consts  --      0.4592                 2.3692                 0.6855
 IR Inten    --    242.0949                23.6465               107.8003

                     40                     41                     42
                      A                      A                      A
 Frequencies --    788.5028               810.1172               862.4039
 Red. masses --      5.3156                 2.8400                 1.2595
 Frc consts  --      1.9472                 1.0982                 0.5519
 IR Inten    --     59.4201                15.7369                 0.0392

                     43                     44                     45
                      A                      A                      A
 Frequencies --    872.2119               876.9073               920.9176
 Red. masses --      1.2476                 5.6360                 5.7550
 Frc consts  --      0.5592                 2.5534                 2.8756
 IR Inten    --      0.6393                17.0818                 1.3997

                     46                     47                     48
                      A                      A                      A
 Frequencies --    936.5592               959.9431               991.3149
 Red. masses --      1.4634                 1.4404                 1.1011
 Frc consts  --      0.7563                 0.7821                 0.6375
 IR Inten    --     12.6222                 0.8305                69.1194

                     49                     50                     51
                      A                      A                      A
 Frequencies --   1003.1690              1013.9541              1020.3023
 Red. masses --      1.3502                 1.3627                 1.4167
 Frc consts  --      0.8005                 0.8255                 0.8690
 IR Inten    --      0.0880                 2.9764                 1.2763

                     52                     53                     54
                      A                      A                      A
 Frequencies --   1021.0237              1026.0396              1033.7024
 Red. masses --      4.2058                 5.7591                 1.3175
 Frc consts  --      2.5833                 3.5722                 0.8295
 IR Inten    --      2.7386                 2.9886                 0.2895

                     55                     56                     57
                      A                      A                      A
 Frequencies --   1060.2652              1067.1623              1068.8536
 Red. masses --      2.5076                 2.1457                 1.9180
 Frc consts  --      1.6609                 1.4398                 1.2910
 IR Inten    --     20.2688                35.2400                74.4227

                     58                     59                     60
                      A                      A                      A
 Frequencies --   1083.1413              1091.1274              1126.1776
 Red. masses --      3.2956                 2.0042                 1.6190
 Frc consts  --      2.2780                 1.4058                 1.2098
 IR Inten    --      6.8048                56.1016                13.2946

                     61                     62                     63
                      A                      A                      A
 Frequencies --   1128.9757              1183.5995              1187.4037
 Red. masses --      1.6271                 1.1239                 1.1423
 Frc consts  --      1.2219                 0.9277                 0.9489
 IR Inten    --      5.2334                 3.5079                 0.4492

                     64                     65                     66
                      A                      A                      A
 Frequencies --   1208.2266              1211.5346              1212.8903
 Red. masses --      2.1191                 1.1578                 1.8725
 Frc consts  --      1.8226                 1.0013                 1.6230
 IR Inten    --     77.4559                40.4699                42.5695

                     67                     68                     69
                      A                      A                      A
 Frequencies --   1225.2232              1265.5477              1278.6221
 Red. masses --      1.1622                 3.0942                 3.3241
 Frc consts  --      1.0279                 2.9198                 3.2019
 IR Inten    --      1.0132               554.9992                65.1074

                     70                     71                     72
                      A                      A                      A
 Frequencies --   1320.9887              1350.2486              1352.4764
 Red. masses --      4.8483                 4.0704                 1.3123
 Frc consts  --      4.9847                 4.3723                 1.4144
 IR Inten    --     23.3154               594.6802                11.5850

                     73                     74                     75
                      A                      A                      A
 Frequencies --   1364.1735              1370.3628              1448.3693
 Red. masses --      1.4810                 1.3907                 2.7271
 Frc consts  --      1.6239                 1.5387                 3.3706
 IR Inten    --     43.6800                 4.5881               624.4339

                     76                     77                     78
                      A                      A                      A
 Frequencies --   1474.5995              1483.9937              1487.9407
 Red. masses --      1.5052                 2.2047                 1.0622
 Frc consts  --      1.9284                 2.8606                 1.3856
 IR Inten    --    153.6540               313.4386                24.1068

                     79                     80                     81
                      A                      A                      A
 Frequencies --   1490.6521              1508.7577              1546.3363
 Red. masses --      2.1537                 1.0374                 2.3305
 Frc consts  --      2.8196                 1.3914                 3.2833
 IR Inten    --     47.3148                 8.7017               139.0948

                     82                     83                     84
                      A                      A                      A
 Frequencies --   1550.2504              1579.3221              1630.6034
 Red. masses --      2.4385                 2.1344                 1.2212
 Frc consts  --      3.4529                 3.1367                 1.9132
 IR Inten    --     23.7475               983.5602               174.9802

                     85                     86                     87
                      A                      A                      A
 Frequencies --   1653.6710              1663.3340              1672.1450
 Red. masses --      5.5834                 4.9546                 4.1494
 Frc consts  --      8.9959                 8.0764                 6.8357
 IR Inten    --      6.5664               132.6532                24.2410

                     88                     89                     90
                      A                      A                      A
 Frequencies --   1676.1573              1689.0504              3065.4791
 Red. masses --      5.8385                 5.3520                 1.0343
 Frc consts  --      9.6645                 8.9960                 5.7263
 IR Inten    --      1.0011               255.4739                39.2543

                     91                     92                     93
                      A                      A                      A
 Frequencies --   3135.0530              3171.0325              3187.5099
 Red. masses --      1.1039                 1.1040                 1.0885
 Frc consts  --      6.3925                 6.5408                 6.5159
 IR Inten    --     12.3294                20.1124                12.1123

                     94                     95                     96
                      A                      A                      A
 Frequencies --   3197.8584              3200.1506              3207.5890
 Red. masses --      1.0882                 1.0863                 1.0932
 Frc consts  --      6.5567                 6.5545                 6.6267
 IR Inten    --      1.9285                 0.5538                28.1401

                     97                     98                     99
                      A                      A                      A
 Frequencies --   3207.6997              3216.3328              3222.1627
 Red. masses --      1.0894                 1.0941                 1.0980
 Frc consts  --      6.6045                 6.6682                 6.7168
 IR Inten    --      4.8715                20.8230                22.9401

                    100                    101                    102
                      A                      A                      A
 Frequencies --   3225.5880              3261.2843              3273.9892
 Red. masses --      1.0983                 1.0911                 1.0924
 Frc consts  --      6.7329                 6.8375                 6.8989
 IR Inten    --     18.4409                10.7859                 5.9274

                    103                    104                    105
                      A                      A                      A
 Frequencies --   3483.9320              3593.5669              3637.9745
 Red. masses --      1.0560                 1.0926                 1.0765
 Frc consts  --      7.5521                 8.3132                 8.3942
 IR Inten    --     54.6658                88.5709                88.0798

 - Thermochemistry -
 -------------------
 Temperature   298.150 Kelvin.  Pressure   1.00000 Atm.
 Atom     1 has atomic number  6 and mass  12.00000

 Molecular mass:   366.01345 amu.
 Principal axes and moments of inertia in atomic units:
                           1         2         3
     Eigenvalues --  3897.31480********************
           X            0.99990   0.01253  -0.00702
           Y           -0.01176   0.99488   0.10039
           Z            0.00825  -0.10030   0.99492
 This molecule is an asymmetric top.
 Rotational symmetry number  1.
 Warning -- assumption of classical behavior for rotation
           may cause significant error
 Rotational temperatures (Kelvin)      0.02222     0.00612     0.00558
 Rotational constants (GHZ):           0.46307     0.12758     0.11621
    1 imaginary frequencies ignored.
 Zero-point vibrational energy     765746.8 (Joules/Mol)
                                  183.01789 (Kcal/Mol)
 Warning -- explicit consideration of  29 degrees of freedom as
           vibrations may cause significant error
 Vibrational temperatures:     27.83    31.18    48.00    68.75   106.58
          (Kelvin)            113.02   136.48   176.24   194.20   205.10
                              229.57   254.72   296.67   324.04   350.75
                              362.44   378.99   389.75   436.29   490.25
                              523.30   604.90   608.98   645.86   729.56
                              758.91   779.84   806.69   847.42   900.11
                              914.15   923.53   960.99  1030.33  1034.41
                             1043.80  1115.56  1130.23  1134.48  1165.58
                             1240.81  1254.92  1261.67  1325.00  1347.50
                             1381.14  1426.28  1443.34  1458.85  1467.99
                             1469.03  1476.24  1487.27  1525.49  1535.41
                             1537.84  1558.40  1569.89  1620.32  1624.34
                             1702.94  1708.41  1738.37  1743.13  1745.08
                             1762.82  1820.84  1839.65  1900.61  1942.71
                             1945.91  1962.74  1971.65  2083.88  2121.62
                             2135.14  2140.81  2144.72  2170.77  2224.83
                             2230.46  2272.29  2346.07  2379.26  2393.17
                             2405.84  2411.62  2430.17  4410.54  4510.64
                             4562.41  4586.12  4601.01  4604.30  4615.01
                             4615.16  4627.59  4635.97  4640.90  4692.26
                             4710.54  5012.60  5170.34  5234.23

 Zero-point correction=                           0.291658 (Hartree/Particle)
 Thermal correction to Energy=                    0.311635
 Thermal correction to Enthalpy=                  0.312579
 Thermal correction to Gibbs Free Energy=         0.239874
 Sum of electronic and zero-point Energies=          -3838.194389
 Sum of electronic and thermal Energies=             -3838.174412
 Sum of electronic and thermal Enthalpies=           -3838.173467
 Sum of electronic and thermal Free Energies=        -3838.246172

                     E (Thermal)             CV                S
                      KCal/Mol        Cal/Mol-Kelvin    Cal/Mol-Kelvin
 Total                  195.554             74.118            153.021
 Electronic               0.000              0.000              0.000
 Translational            0.889              2.981             43.586
 Rotational               0.889              2.981             35.103
 Vibrational            193.776             68.157             74.332
 Vibration     1          0.593              1.986              6.701
 Vibration     2          0.593              1.985              6.475
 Vibration     3          0.594              1.983              5.619
 Vibration     4          0.595              1.978              4.907
 Vibration     5          0.599              1.966              4.042
 Vibration     6          0.600              1.964              3.927
 Vibration     7          0.603              1.953              3.557
 Vibration     8          0.610              1.930              3.061
 Vibration     9          0.613              1.918              2.874
 Vibration    10          0.616              1.911              2.769
 Vibration    11          0.621              1.892              2.555
 Vibration    12          0.628              1.871              2.359
 Vibration    13          0.641              1.831              2.077
 Vibration    14          0.650              1.803              1.917
 Vibration    15          0.659              1.773              1.775
 Vibration    16          0.664              1.760              1.717
 Vibration    17          0.670              1.740              1.639
 Vibration    18          0.675              1.727              1.591
 Vibration    19          0.695              1.668              1.399
 Vibration    20          0.720              1.594              1.209
 Vibration    21          0.737              1.547              1.106
 Vibration    22          0.783              1.426              0.891
 Vibration    23          0.785              1.420              0.881
 Vibration    24          0.808              1.363              0.799
 Vibration    25          0.862              1.234              0.641
 Vibration    26          0.882              1.189              0.593
 Vibration    27          0.897              1.157              0.561
 Vibration    28          0.916              1.116              0.522
 Vibration    29          0.946              1.055              0.469

 Optimization completed.
    -- Stationary point found.
 Normal termination of Gaussian 16 at Mon Feb  8 08:25:34 2021.
