 Gaussian 16, Revision A.03,
 Gaussian 16:  ES64L-G16RevA.03 25-Dec-2016

 ----------------------------------------------------------------------
 # wB97XD def2tzvp, opt=(ts, noeigen, calcfc, maxcycles=70, maxstep=8),
  freq=noraman, scrf=(iefpcm, solvent=water)
 ----------------------------------------------------------------------

 ------------------------
 1_iteration/TS-164-1.out
 ------------------------
 Symbolic Z-matrix:
 Charge =  0 Multiplicity = 1

 SCF Done:  E(RwB97XD) =  -1324.05606625     A.U. after   15 cycles
 SCF Done:  E(RwB97XD) =  -1324.05613660     A.U. after   12 cycles
 SCF Done:  E(RwB97XD) =  -1324.05613745     A.U. after    9 cycles
 SCF Done:  E(RwB97XD) =  -1324.05613747     A.U. after    6 cycles
 Optimization completed.
    -- Stationary point found.
 Normal termination of Gaussian 16 at Sat Apr 17 06:31:52 2021.

 ---------------------------------------------------------------------
 #N Geom=AllCheck Guess=TCheck SCRF=Check GenChk RwB97XD/def2TZVP Freq
 ---------------------------------------------------------------------

 Structure from the checkpoint file:  "/beegfs/scratch/user/q/tla25/Gau-389622.chk"
 ------------------------
 1_iteration/TS-164-1.out
 ------------------------
 Charge =  0 Multiplicity = 1

                         Standard orientation:
 ---------------------------------------------------------------------
 Center     Atomic      Atomic             Coordinates (Angstroms)
 Number     Number       Type             X           Y           Z
 ---------------------------------------------------------------------
      1          6           0       -0.814835    0.405105   -0.229461
      2          6           0       -2.201695    0.802428   -0.285236
      3          8           0       -2.611648    1.928494   -0.516002
      4          6           0       -0.402551   -0.930533   -0.221142
      5          6           0       -1.161220   -1.069634    2.551139
      6          1           0       -2.020694   -1.311699    3.175194
      7          1           0       -0.248818   -1.264371    3.108038
      8          1           0       -1.207084   -0.008936    2.287711
      9          7           0       -1.172616   -1.841768    1.318443
     10          1           0       -0.724841   -2.745609    1.407788
     11          1           0       -2.118413   -1.967221    0.979575
     12          6           0        1.054124   -1.254851   -0.049226
     13          6           0        1.766163   -2.031606   -0.955411
     14          6           0        3.120418   -2.273958   -0.769376
     15          6           0        3.780511   -1.755474    0.331558
     16          6           0        3.076588   -0.984590    1.247162
     17          6           0        1.730608   -0.734157    1.055465
     18          1           0        1.270844   -2.443335   -1.822189
     19          1           0        3.657013   -2.873303   -1.493652
     20          1           0        4.835746   -1.947900    0.477115
     21          1           0        3.578751   -0.570002    2.111780
     22          1           0        1.206747   -0.105664    1.760419
     23         17           0       -1.206063   -2.064258   -1.398126
     24          6           0        0.177291    1.516209   -0.218644
     25          6           0        0.170591    2.478403    0.791185
     26          6           0        1.093618    3.511776    0.804668
     27          6           0        2.052107    3.604773   -0.196119
     28          6           0        2.066219    2.662645   -1.214086
     29          6           0        1.132293    1.636791   -1.227286
     30          1           0       -0.565947    2.408141    1.582853
     31          1           0        1.071094    4.242513    1.603930
     32          1           0        2.778806    4.407403   -0.183672
     33          1           0        2.802717    2.728778   -2.005568
     34          1           0        1.147330    0.908505   -2.029139
     35          8           0       -3.069584   -0.200827   -0.004318
     36          6           0       -4.453945    0.113021   -0.078361
     37          1           0       -4.979453   -0.811550    0.146818
     38          1           0       -4.718877    0.879402    0.650019
     39          1           0       -4.721378    0.460191   -1.076381
 ---------------------------------------------------------------------

 SCF Done:  E(RwB97XD) =  -1324.05613747     A.U. after    1 cycles

 The electronic state is 1-A.
 Alpha  occ. eigenvalues -- -101.69096 -19.28682 -19.21599 -14.48589 -10.40747
 Alpha  occ. eigenvalues --  -10.40054 -10.32847 -10.31719 -10.31410 -10.29766
 Alpha  occ. eigenvalues --  -10.29683 -10.29605 -10.29512 -10.29410 -10.29381
 Alpha  occ. eigenvalues --  -10.28569 -10.28542 -10.28450 -10.28247 -10.28237
 Alpha  occ. eigenvalues --  -10.27274  -9.57719  -7.32334  -7.31515  -7.31475
 Alpha  occ. eigenvalues --   -1.20018  -1.10295  -1.04478  -0.98756  -0.96272
 Alpha  occ. eigenvalues --   -0.95315  -0.89316  -0.86534  -0.85638  -0.84539
 Alpha  occ. eigenvalues --   -0.83736  -0.80113  -0.79051  -0.74159  -0.71076
 Alpha  occ. eigenvalues --   -0.69920  -0.69438  -0.67756  -0.64882  -0.63647
 Alpha  occ. eigenvalues --   -0.61612  -0.60720  -0.58389  -0.57915  -0.56938
 Alpha  occ. eigenvalues --   -0.56482  -0.55608  -0.55076  -0.54183  -0.53586
 Alpha  occ. eigenvalues --   -0.52633  -0.52077  -0.51624  -0.50644  -0.50369
 Alpha  occ. eigenvalues --   -0.48661  -0.48196  -0.47901  -0.47376  -0.45912
 Alpha  occ. eigenvalues --   -0.45456  -0.44103  -0.43882  -0.43094  -0.42353
 Alpha  occ. eigenvalues --   -0.42216  -0.39976  -0.38810  -0.37777  -0.35964
 Alpha  occ. eigenvalues --   -0.34765  -0.34165  -0.33227  -0.32677  -0.27423
 Alpha virt. eigenvalues --    0.01071   0.04335   0.05652   0.05992   0.07362
 Alpha virt. eigenvalues --    0.08534   0.10652   0.12416   0.13198   0.13716
 Alpha virt. eigenvalues --    0.14065   0.15638   0.15839   0.16345   0.17023

 Mulliken charges:
               1
     1  C   -0.330864
     2  C    0.386280
     3  O   -0.480809
     4  C    0.303847
     5  C   -0.310434
     6  H    0.163634
     7  H    0.165888
     8  H    0.140494
     9  N   -0.308654
    10  H    0.286634
    11  H    0.282048
    12  C    0.063667
    13  C   -0.233296
    14  C   -0.139554
    15  C   -0.131014
    16  C   -0.175514
    17  C   -0.233541
    18  H    0.141574
    19  H    0.144527
    20  H    0.146150
    21  H    0.143530
    22  H    0.192845
    23  Cl  -0.139718
    24  C    0.280067
    25  C   -0.267453
    26  C   -0.148036
    27  C   -0.139966
    28  C   -0.168939
    29  C   -0.218561
    30  H    0.145556
    31  H    0.137001
    32  H    0.140063
    33  H    0.136472
    34  H    0.142346
    35  O   -0.316655
    36  C   -0.199925
    37  H    0.139167
    38  H    0.129886
    39  H    0.131258
 Sum of Mulliken charges =  -0.00000

 Dipole moment (field-independent basis, Debye):
    X=              1.4204    Y=             -6.9419    Z=              5.9060  Tot=              9.2244
 Quadrupole moment (field-independent basis, Debye-Ang):
   XX=           -115.8463   YY=           -131.8698   ZZ=           -119.5283
   XY=             11.4668   XZ=             -9.5174   YZ=              0.0254

  Exact polarizability: 347.869   2.096 327.182  -8.456  23.959 286.353
 Approx polarizability: 270.096   3.476 261.573  -7.388  23.759 247.851

 ******    1 imaginary frequencies (negative Signs) ******

                      1                      2                      3
                      A                      A                      A
 Frequencies --   -344.9239                35.1181                42.8719
 Red. masses --      6.0595                 4.7642                 4.8869
 Frc consts  --      0.4248                 0.0035                 0.0053
 IR Inten    --    589.9084                 0.6406                 1.9250

                      4                      5                      6
                      A                      A                      A
 Frequencies --     60.2676                67.9773                76.2870
 Red. masses --      3.5455                 4.1980                 3.5552
 Frc consts  --      0.0076                 0.0114                 0.0122
 IR Inten    --      0.5602                 0.7839                 3.1916

                      7                      8                      9
                      A                      A                      A
 Frequencies --     81.0529                94.4253               115.7727
 Red. masses --      4.6348                 4.0841                 3.3849
 Frc consts  --      0.0179                 0.0215                 0.0267
 IR Inten    --      6.0144                 3.0615                 0.7262

                     10                     11                     12
                      A                      A                      A
 Frequencies --    154.8786               161.8174               174.9115
 Red. masses --      3.0807                 2.1283                 2.0458
 Frc consts  --      0.0435                 0.0328                 0.0369
 IR Inten    --      1.4841                 1.3041                 1.6433

                     13                     14                     15
                      A                      A                      A
 Frequencies --    182.0311               203.3612               234.6220
 Red. masses --      2.6522                 3.3070                 1.3832
 Frc consts  --      0.0518                 0.0806                 0.0449
 IR Inten    --      5.6916                18.2364                 0.4102

                     16                     17                     18
                      A                      A                      A
 Frequencies --    242.7647               268.2880               275.1118
 Red. masses --      5.2109                 4.6956                 4.2336
 Frc consts  --      0.1809                 0.1991                 0.1888
 IR Inten    --      2.8752                 6.2966                 4.3522

                     19                     20                     21
                      A                      A                      A
 Frequencies --    297.9803               304.4503               318.6806
 Red. masses --      5.3152                 4.5324                 3.5394
 Frc consts  --      0.2781                 0.2475                 0.2118
 IR Inten    --      6.5083                 4.8613                36.1562

                     22                     23                     24
                      A                      A                      A
 Frequencies --    355.7806               376.0291               424.4963
 Red. masses --      8.5218                 5.1057                 2.9492
 Frc consts  --      0.6355                 0.4254                 0.3131
 IR Inten    --     26.2914                34.7971                 1.5524

                     25                     26                     27
                      A                      A                      A
 Frequencies --    428.3659               433.0484               502.7197
 Red. masses --      3.1073                 5.5265                 4.8882
 Frc consts  --      0.3359                 0.6106                 0.7279
 IR Inten    --      0.4813                34.8373                24.9172

                     28                     29                     30
                      A                      A                      A
 Frequencies --    531.0826               584.4833               617.3420
 Red. masses --      3.4686                 4.4222                 2.4096
 Frc consts  --      0.5764                 0.8901                 0.5411
 IR Inten    --     31.2856               119.5088                25.3258

                     31                     32                     33
                      A                      A                      A
 Frequencies --    634.5995               639.2744               660.6369
 Red. masses --      6.1912                 6.2893                 4.6127
 Frc consts  --      1.4690                 1.5144                 1.1861
 IR Inten    --      9.9409                 2.4781                63.3255

                     34                     35                     36
                      A                      A                      A
 Frequencies --    681.9026               725.1597               727.4778
 Red. masses --      2.6095                 1.6881                 1.6783
 Frc consts  --      0.7149                 0.5230                 0.5233
 IR Inten    --     34.7471                65.2729                73.4284

                     37                     38                     39
                      A                      A                      A
 Frequencies --    742.5334               794.8380               798.6915
 Red. masses --      2.7149                 3.2479                 2.7378
 Frc consts  --      0.8819                 1.2089                 1.0290
 IR Inten    --    150.2610                86.7215                 8.3686

                     40                     41                     42
                      A                      A                      A
 Frequencies --    809.6690               828.1477               875.3953
 Red. masses --      5.5696                 4.3168                 1.2519
 Frc consts  --      2.1512                 1.7443                 0.5652
 IR Inten    --     42.7952               144.0748                 1.8254

                     43                     44                     45
                      A                      A                      A
 Frequencies --    879.6209               915.8094               941.3377
 Red. masses --      1.2453                 4.3412                 2.6875
 Frc consts  --      0.5677                 2.1452                 1.4031
 IR Inten    --      1.1412                28.3817                 4.0284

                     46                     47                     48
                      A                      A                      A
 Frequencies --    963.2881               972.6615              1010.4798
 Red. masses --      1.9239                 1.5971                 1.3748
 Frc consts  --      1.0518                 0.8903                 0.8271
 IR Inten    --     11.1877                 8.5842                 0.8805

                     49                     50                     51
                      A                      A                      A
 Frequencies --   1019.1599              1020.4029              1023.4949
 Red. masses --      1.1663                 1.3468                 1.3092
 Frc consts  --      0.7138                 0.8262                 0.8080
 IR Inten    --     44.1139                 3.1765                 1.4191

                     52                     53                     54
                      A                      A                      A
 Frequencies --   1026.7415              1027.5952              1036.8438
 Red. masses --      5.7092                 4.5155                 1.3415
 Frc consts  --      3.5461                 2.8093                 0.8497
 IR Inten    --      0.8618                 1.8341                 0.8621

                     55                     56                     57
                      A                      A                      A
 Frequencies --   1059.6589              1062.9622              1067.7107
 Red. masses --      1.9805                 1.7141                 1.9321
 Frc consts  --      1.3102                 1.1411                 1.2977
 IR Inten    --     49.1531                73.3090                31.3749

                     58                     59                     60
                      A                      A                      A
 Frequencies --   1091.1798              1105.4418              1111.6851
 Red. masses --      2.7982                 3.7272                 1.6785
 Frc consts  --      1.9630                 2.6835                 1.2222
 IR Inten    --      8.2350               126.4442                13.0411

                     61                     62                     63
                      A                      A                      A
 Frequencies --   1126.0101              1180.3913              1182.1595
 Red. masses --      1.6218                 1.1308                 1.2838
 Frc consts  --      1.2115                 0.9283                 1.0571
 IR Inten    --     11.9771                 0.8768                 2.4400

                     64                     65                     66
                      A                      A                      A
 Frequencies --   1186.7185              1196.5535              1207.7658
 Red. masses --      1.1270                 2.0769                 1.4873
 Frc consts  --      0.9351                 1.7520                 1.2783
 IR Inten    --      0.2735                97.5160                48.7993

                     67                     68                     69
                      A                      A                      A
 Frequencies --   1208.7092              1218.1644              1225.1323
 Red. masses --      1.1502                 1.1463                 2.0161
 Frc consts  --      0.9901                 1.0022                 1.7829
 IR Inten    --      9.7499                36.1577               107.3790

                     70                     71                     72
                      A                      A                      A
 Frequencies --   1237.6208              1309.4215              1323.4846
 Red. masses --      5.0275                 4.4644                 4.4324
 Frc consts  --      4.5371                 4.5100                 4.5743
 IR Inten    --    376.8055                49.6509                15.6319

                     73                     74                     75
                      A                      A                      A
 Frequencies --   1338.2088              1353.9270              1360.3261
 Red. masses --      1.5503                 2.5772                 1.6662
 Frc consts  --      1.6357                 2.7835                 1.8166
 IR Inten    --    127.6678               390.0658               107.5130

                     76                     77                     78
                      A                      A                      A
 Frequencies --   1364.4693              1429.8167              1464.8932
 Red. masses --      1.4807                 3.6058                 1.3100
 Frc consts  --      1.6243                 4.3432                 1.6563
 IR Inten    --     28.0227               588.6825                44.2201

                     79                     80                     81
                      A                      A                      A
 Frequencies --   1479.1124              1481.3580              1489.1641
 Red. masses --      1.2070                 1.0486                 2.2193
 Frc consts  --      1.5559                 1.3558                 2.8997
 IR Inten    --     51.6843                13.1150                18.3918

                     82                     83                     84
                      A                      A                      A
 Frequencies --   1494.1749              1496.5728              1501.0747
 Red. masses --      2.2271                 1.0831                 1.0429
 Frc consts  --      2.9295                 1.4293                 1.3846
 IR Inten    --     53.0546                34.0820                19.1570

                     85                     86                     87
                      A                      A                      A
 Frequencies --   1504.5081              1543.1299              1546.1803
 Red. masses --      1.0437                 2.3457                 2.3802
 Frc consts  --      1.3919                 3.2910                 3.3527
 IR Inten    --     11.2058                33.8796                51.2403

                     88                     89                     90
                      A                      A                      A
 Frequencies --   1626.4749              1644.8868              1653.1027
 Red. masses --      1.0988                 5.7552                 5.7452
 Frc consts  --      1.7127                 9.1746                 9.2503
 IR Inten    --     97.0974                 2.4530                 5.5414

                     91                     92                     93
                      A                      A                      A
 Frequencies --   1669.8279              1675.4204              1699.2737
 Red. masses --      6.0607                 5.9050                10.6485
 Frc consts  --      9.9567                 9.7660                18.1162
 IR Inten    --     43.9628                 0.0317              1046.4069

                     94                     95                     96
                      A                      A                      A
 Frequencies --   3049.4290              3065.1850              3127.1572
 Red. masses --      1.0407                 1.0305                 1.0970
 Frc consts  --      5.7016                 5.7046                 6.3203
 IR Inten    --     33.2524                65.0974                10.1154

                     97                     98                     99
                      A                      A                      A
 Frequencies --   3141.9019              3173.4359              3178.2416
 Red. masses --      1.1067                 1.1057                 1.1037
 Frc consts  --      6.4369                 6.5604                 6.5684
 IR Inten    --     35.6957                23.1267                14.0933

                    100                    101                    102
                      A                      A                      A
 Frequencies --   3186.9704              3191.1110              3200.2635
 Red. masses --      1.0857                 1.0878                 1.0865
 Frc consts  --      6.4971                 6.5267                 6.5564
 IR Inten    --      8.4678                 0.2848                 0.1598

                    103                    104                    105
                      A                      A                      A
 Frequencies --   3200.8450              3207.1088              3210.0360
 Red. masses --      1.0915                 1.0952                 1.0909
 Frc consts  --      6.5886                 6.6368                 6.6232
 IR Inten    --     16.9267                49.6140                16.0275

                    106                    107                    108
                      A                      A                      A
 Frequencies --   3218.2904              3221.9272              3243.3359
 Red. masses --      1.0988                 1.0963                 1.0921
 Frc consts  --      6.7053                 6.7050                 6.7688
 IR Inten    --     19.8005                24.7280                 6.1559

                    109                    110                    111
                      A                      A                      A
 Frequencies --   3244.7797              3532.9344              3623.3864
 Red. masses --      1.0931                 1.0503                 1.0977
 Frc consts  --      6.7808                 7.7238                 8.4914
 IR Inten    --      3.0981                61.5145                86.0764

 - Thermochemistry -
 -------------------
 Temperature   298.150 Kelvin.  Pressure   1.00000 Atm.
 Atom     1 has atomic number  6 and mass  12.00000

 Molecular mass:   303.10261 amu.
 Principal axes and moments of inertia in atomic units:
                           1         2         3
     Eigenvalues --  5078.521256292.617568967.20078
           X            0.99984   0.00920  -0.01528
           Y           -0.00936   0.99990  -0.01036
           Z            0.01519   0.01050   0.99983
 This molecule is an asymmetric top.
 Rotational symmetry number  1.
 Warning -- assumption of classical behavior for rotation
           may cause significant error
 Rotational temperatures (Kelvin)      0.01705     0.01376     0.00966
 Rotational constants (GHZ):           0.35537     0.28680     0.20126
    1 imaginary frequencies ignored.
 Zero-point vibrational energy     833407.1 (Joules/Mol)
                                  199.18908 (Kcal/Mol)
 Warning -- explicit consideration of  29 degrees of freedom as
           vibrations may cause significant error
 Vibrational temperatures:     50.53    61.68    86.71    97.80   109.76
          (Kelvin)            116.62   135.86   166.57   222.84   232.82
                              251.66   261.90   292.59   337.57   349.28
                              386.01   395.82   428.73   438.04   458.51
                              511.89   541.02   610.76   616.32   623.06
                              723.30   764.11   840.94   888.22   913.05
                              919.77   950.51   981.11  1043.34  1046.68
                             1068.34  1143.59  1149.14  1164.93  1191.52
                             1259.50  1265.58  1317.65  1354.37  1385.96
                             1399.44  1453.86  1466.34  1468.13  1472.58
                             1477.25  1478.48  1491.79  1524.61  1529.37
                             1536.20  1569.96  1590.48  1599.47  1620.08
                             1698.32  1700.86  1707.42  1721.57  1737.71
                             1739.06  1752.67  1762.69  1780.66  1883.97
                             1904.20  1925.38  1948.00  1957.21  1963.17
                             2057.19  2107.65  2128.11  2131.34  2142.58
                             2149.78  2153.23  2159.71  2164.65  2220.22
                             2224.61  2340.13  2366.63  2378.45  2402.51
                             2410.56  2444.88  4387.45  4410.12  4499.28
                             4520.50  4565.87  4572.78  4585.34  4591.30
                             4604.47  4605.30  4614.31  4618.53  4630.40
                             4635.63  4666.44  4668.51  5083.10  5213.24

 Zero-point correction=                           0.317428 (Hartree/Particle)
 Thermal correction to Energy=                    0.337158
 Thermal correction to Enthalpy=                  0.338102
 Thermal correction to Gibbs Free Energy=         0.268597
 Sum of electronic and zero-point Energies=          -1323.738709
 Sum of electronic and thermal Energies=             -1323.718979
 Sum of electronic and thermal Enthalpies=           -1323.718035
 Sum of electronic and thermal Free Energies=        -1323.787540

                     E (Thermal)             CV                S
                      KCal/Mol        Cal/Mol-Kelvin    Cal/Mol-Kelvin
 Total                  211.570             74.378            146.286
 Electronic               0.000              0.000              0.000
 Translational            0.889              2.981             43.023
 Rotational               0.889              2.981             34.015
 Vibrational            209.793             68.417             69.247
 Vibration     1          0.594              1.982              5.517
 Vibration     2          0.595              1.980              5.122
 Vibration     3          0.597              1.973              4.448
 Vibration     4          0.598              1.969              4.211
 Vibration     5          0.599              1.965              3.984
 Vibration     6          0.600              1.962              3.865
 Vibration     7          0.603              1.953              3.566
 Vibration     8          0.608              1.936              3.170
 Vibration     9          0.620              1.897              2.611
 Vibration    10          0.622              1.889              2.528
 Vibration    11          0.627              1.873              2.382
 Vibration    12          0.630              1.864              2.307
 Vibration    13          0.639              1.835              2.102
 Vibration    14          0.654              1.788              1.843
 Vibration    15          0.659              1.775              1.783
 Vibration    16          0.673              1.731              1.607
 Vibration    17          0.677              1.719              1.564
 Vibration    18          0.691              1.677              1.428
 Vibration    19          0.695              1.665              1.392
 Vibration    20          0.705              1.638              1.317
 Vibration    21          0.731              1.563              1.140
 Vibration    22          0.747              1.521              1.055
 Vibration    23          0.786              1.417              0.877
 Vibration    24          0.790              1.408              0.864
 Vibration    25          0.794              1.398              0.849
 Vibration    26          0.858              1.244              0.651
 Vibration    27          0.886              1.181              0.585
 Vibration    28          0.941              1.065              0.477
 Vibration    29          0.977              0.995              0.421

 Optimization completed.
    -- Stationary point found.
 Normal termination of Gaussian 16 at Sat Apr 17 07:50:53 2021.
