 Gaussian 16, Revision A.03,
 Gaussian 16:  ES64L-G16RevA.03 25-Dec-2016

 ----------------------------------------------------------------------
 # wB97XD def2tzvp, opt=(ts, noeigen, calcfc, maxcycles=70, maxstep=8),
  freq=noraman, scrf=(iefpcm, solvent=water)
 ----------------------------------------------------------------------

 ------------------------
 1_iteration/TS-157-1.out
 ------------------------
 Symbolic Z-matrix:
 Charge =  0 Multiplicity = 1

 SCF Done:  E(RwB97XD) =  -3646.74722454     A.U. after   15 cycles
 SCF Done:  E(RwB97XD) =  -3646.74736120     A.U. after   12 cycles
 SCF Done:  E(RwB97XD) =  -3646.74748831     A.U. after   12 cycles
 SCF Done:  E(RwB97XD) =  -3646.74750322     A.U. after   10 cycles
 SCF Done:  E(RwB97XD) =  -3646.74748905     A.U. after   10 cycles
 SCF Done:  E(RwB97XD) =  -3646.74750566     A.U. after   10 cycles
 SCF Done:  E(RwB97XD) =  -3646.74750584     A.U. after    7 cycles
 SCF Done:  E(RwB97XD) =  -3646.74750586     A.U. after    6 cycles
 Optimization completed on the basis of negligible forces.
    -- Stationary point found.
 Normal termination of Gaussian 16 at Sun Feb  7 04:14:07 2021.

 ---------------------------------------------------------------------
 #N Geom=AllCheck Guess=TCheck SCRF=Check GenChk RwB97XD/def2TZVP Freq
 ---------------------------------------------------------------------

 Structure from the checkpoint file:  "/beegfs/scratch/user/q/tla25/Gau-70840.chk"
 ------------------------
 1_iteration/TS-157-1.out
 ------------------------
 Charge =  0 Multiplicity = 1

                         Standard orientation:
 ---------------------------------------------------------------------
 Center     Atomic      Atomic             Coordinates (Angstroms)
 Number     Number       Type             X           Y           Z
 ---------------------------------------------------------------------
      1          6           0        0.873257   -0.645388   -0.159717
      2          6           0        2.287610   -0.295744   -0.096726
      3          8           0        2.656992    0.789910    0.375866
      4          6           0       -0.138717    0.255399    0.101888
      5          6           0        0.412836   -0.118021    2.894014
      6          1           0       -0.529241   -0.483816    3.294752
      7          1           0        0.926890   -0.940510    2.393553
      8          1           0        1.038569    0.235363    3.713758
      9          7           0        0.181421    0.933261    1.912876
     10          1           0       -0.474670    1.641881    2.219459
     11          1           0        1.064532    1.375435    1.666001
     12          6           0       -1.574736   -0.158615    0.011313
     13          6           0       -2.044389   -0.566658   -1.239100
     14          6           0       -3.358955   -0.957388   -1.408057
     15          6           0       -4.235031   -0.944430   -0.329669
     16          6           0       -3.780548   -0.532284    0.910281
     17          6           0       -2.459070   -0.137845    1.080373
     18          1           0       -1.366841   -0.576009   -2.083241
     19          1           0       -3.701911   -1.272318   -2.385220
     20          1           0       -5.265124   -1.250233   -0.459719
     21          1           0       -4.452575   -0.512173    1.758459
     22          1           0       -2.143767    0.183181    2.060537
     23         35           0        0.017800    2.064687   -0.730003
     24         17           0        0.475660   -2.359775   -0.273287
     25          7           0        3.187775   -1.194731   -0.543992
     26          6           0        4.608711   -0.949894   -0.473612
     27          1           0        2.859380   -2.051560   -0.949884
     28          1           0        4.903023   -0.110091   -1.106581
     29          1           0        4.915497   -0.728469    0.549844
     30          1           0        5.130892   -1.842337   -0.810800
 ---------------------------------------------------------------------

 SCF Done:  E(RwB97XD) =  -3646.74750586     A.U. after    1 cycles

 The electronic state is 1-A.
 Alpha  occ. eigenvalues -- -483.12543-101.69585 -62.67371 -56.46491 -56.46137
 Alpha  occ. eigenvalues --  -56.46121 -19.21100 -14.48153 -14.45274 -10.40412
 Alpha  occ. eigenvalues --  -10.38751 -10.31907 -10.31805 -10.31674 -10.30968
 Alpha  occ. eigenvalues --  -10.30043 -10.29783 -10.29564 -10.29520 -10.29467
 Alpha  occ. eigenvalues --   -9.58105  -8.81457  -7.32746  -7.31901  -7.31864
 Alpha  occ. eigenvalues --   -6.63604  -6.62490  -6.62436  -2.73980  -2.73681
 Alpha  occ. eigenvalues --   -2.73638  -2.72737  -2.72737  -1.13862  -1.03905
 Alpha  occ. eigenvalues --   -1.02232  -0.98751  -0.96275  -0.91445  -0.86038
 Alpha  occ. eigenvalues --   -0.85776  -0.82871  -0.80260  -0.78751  -0.73436
 Alpha  occ. eigenvalues --   -0.71328  -0.68591  -0.66442  -0.63691  -0.61387
 Alpha  occ. eigenvalues --   -0.58661  -0.57548  -0.56736  -0.55795  -0.54891
 Alpha  occ. eigenvalues --   -0.54552  -0.52851  -0.52162  -0.51444  -0.51384
 Alpha  occ. eigenvalues --   -0.48732  -0.48282  -0.47563  -0.47415  -0.46273
 Alpha  occ. eigenvalues --   -0.44830  -0.43856  -0.42944  -0.42148  -0.40896
 Alpha  occ. eigenvalues --   -0.38344  -0.36933  -0.34640  -0.34390  -0.33896
 Alpha  occ. eigenvalues --   -0.32996  -0.27655
 Alpha virt. eigenvalues --    0.01320   0.03839   0.04737   0.07038   0.10763
 Alpha virt. eigenvalues --    0.11542   0.12854   0.14093   0.14849   0.14997
 Alpha virt. eigenvalues --    0.15575   0.16493   0.17018   0.17994   0.18600

 Mulliken charges:
               1
     1  C   -0.334757
     2  C    0.422474
     3  O   -0.556801
     4  C    0.280992
     5  C   -0.281528
     6  H    0.148107
     7  H    0.152906
     8  H    0.156531
     9  N   -0.355731
    10  H    0.289116
    11  H    0.282563
    12  C    0.190198
    13  C   -0.312931
    14  C   -0.113442
    15  C   -0.148054
    16  C   -0.163971
    17  C   -0.189653
    18  H    0.160898
    19  H    0.147048
    20  H    0.147364
    21  H    0.145733
    22  H    0.138209
    23  Br  -0.142080
    24  Cl  -0.152483
    25  N   -0.319289
    26  C   -0.248195
    27  H    0.253701
    28  H    0.129720
    29  H    0.130183
    30  H    0.143172
 Sum of Mulliken charges =  -0.00000

 Dipole moment (field-independent basis, Debye):
    X=             -2.0048    Y=             -1.8543    Z=              3.7796  Tot=              4.6629
 Quadrupole moment (field-independent basis, Debye-Ang):
   XX=           -101.6765   YY=           -118.1589   ZZ=            -97.9245
   XY=             -7.8588   XZ=             -4.5791   YZ=              7.7379

  Exact polarizability: 294.539   4.144 240.618 -12.427  14.527 242.775
 Approx polarizability: 221.740   6.850 204.087  -8.755  14.120 207.645

 ******    1 imaginary frequencies (negative Signs) ******

                      1                      2                      3
                      A                      A                      A
 Frequencies --   -359.1037                38.2524                51.9885
 Red. masses --      5.4747                 3.8557                 3.2696
 Frc consts  --      0.4160                 0.0033                 0.0052
 IR Inten    --    505.1984                 1.1821                 4.6758

                      4                      5                      6
                      A                      A                      A
 Frequencies --     59.4708                71.4867                76.9667
 Red. masses --      1.3025                 5.7146                 5.2399
 Frc consts  --      0.0027                 0.0172                 0.0183
 IR Inten    --      0.3012                 4.8465                 8.1553

                      7                      8                      9
                      A                      A                      A
 Frequencies --    112.2866               127.0984               139.0707
 Red. masses --      4.9966                 3.3365                 3.9345
 Frc consts  --      0.0371                 0.0318                 0.0448
 IR Inten    --      0.2318                 1.3499                16.6125

                     10                     11                     12
                      A                      A                      A
 Frequencies --    146.7407               155.1248               172.2544
 Red. masses --      1.8650                 2.0591                 4.7421
 Frc consts  --      0.0237                 0.0292                 0.0829
 IR Inten    --      8.6035                 7.3132                 4.0388

                     13                     14                     15
                      A                      A                      A
 Frequencies --    187.2761               237.1789               251.5213
 Red. masses --      3.2214                 4.8285                 6.8396
 Frc consts  --      0.0666                 0.1600                 0.2549
 IR Inten    --     13.0756                 4.8815                10.2784

                     16                     17                     18
                      A                      A                      A
 Frequencies --    263.0364               279.3118               300.7266
 Red. masses --      4.4643                 5.7408                 3.5180
 Frc consts  --      0.1820                 0.2639                 0.1875
 IR Inten    --      1.7990                10.0307                19.6162

                     19                     20                     21
                      A                      A                      A
 Frequencies --    313.1783               345.4086               421.6948
 Red. masses --      4.5104                 4.5209                 2.6989
 Frc consts  --      0.2606                 0.3178                 0.2828
 IR Inten    --     39.7444                51.3253                 3.7329

                     22                     23                     24
                      A                      A                      A
 Frequencies --    423.7858               455.4044               514.3336
 Red. masses --      1.3304                 7.8684                 3.7360
 Frc consts  --      0.1408                 0.9615                 0.5823
 IR Inten    --     75.3348                 6.9727                11.0643

                     25                     26                     27
                      A                      A                      A
 Frequencies --    560.7901               604.1774               639.9618
 Red. masses --      4.4603                 4.7971                 6.4167
 Frc consts  --      0.8264                 1.0317                 1.5484
 IR Inten    --    166.8426                26.4366                14.0130

                     28                     29                     30
                      A                      A                      A
 Frequencies --    675.6516               717.5365               727.9421
 Red. masses --      2.4195                 2.6471                 1.4600
 Frc consts  --      0.6508                 0.8030                 0.4558
 IR Inten    --    168.2649                52.5488               271.5331

                     31                     32                     33
                      A                      A                      A
 Frequencies --    770.4242               786.8546               808.9635
 Red. masses --      5.2920                 7.2353                 2.4995
 Frc consts  --      1.8507                 2.6393                 0.9637
 IR Inten    --     46.9900                51.2692                 7.6636

                     34                     35                     36
                      A                      A                      A
 Frequencies --    872.5562               884.3327               959.7874
 Red. masses --      1.2523                 4.0541                 1.4367
 Frc consts  --      0.5618                 1.8680                 0.7798
 IR Inten    --      0.3907                 3.5847                 0.3227

                     37                     38                     39
                      A                      A                      A
 Frequencies --    991.8086              1013.4228              1022.7775
 Red. masses --      1.0996                 1.3687                 4.1267
 Frc consts  --      0.6373                 0.8282                 2.5434
 IR Inten    --     58.5119                 1.9802                12.7593

                     40                     41                     42
                      A                      A                      A
 Frequencies --   1026.6747              1033.2556              1068.9918
 Red. masses --      5.0681                 1.3229                 2.1991
 Frc consts  --      3.1475                 0.8321                 1.4806
 IR Inten    --      3.8014                 0.7169                15.6765

                     43                     44                     45
                      A                      A                      A
 Frequencies --   1078.2841              1093.1585              1128.2636
 Red. masses --      4.0779                 1.2512                 1.7435
 Frc consts  --      2.7935                 0.8809                 1.3077
 IR Inten    --     74.9716                53.7372                 5.5158

                     46                     47                     48
                      A                      A                      A
 Frequencies --   1146.8547              1157.2777              1187.5643
 Red. masses --      3.9506                 1.3093                 1.1861
 Frc consts  --      3.0615                 1.0332                 0.9855
 IR Inten    --      8.7537                 0.5376                 1.9947

                     49                     50                     51
                      A                      A                      A
 Frequencies --   1188.9778              1212.3778              1220.7553
 Red. masses --      1.6481                 1.5161                 2.2974
 Frc consts  --      1.3727                 1.3130                 2.0172
 IR Inten    --     15.2904                63.6198                39.2876

                     52                     53                     54
                      A                      A                      A
 Frequencies --   1232.3707              1301.3713              1321.9368
 Red. masses --      1.3218                 2.1510                 4.7884
 Frc consts  --      1.1828                 2.1463                 4.9301
 IR Inten    --      6.3766               297.9678                40.4955

                     55                     56                     57
                      A                      A                      A
 Frequencies --   1358.3564              1374.9469              1447.3804
 Red. masses --      1.2816                 1.3657                 1.6192
 Frc consts  --      1.3932                 1.5212                 1.9986
 IR Inten    --     18.5452                 8.7956               342.0956

                     58                     59                     60
                      A                      A                      A
 Frequencies --   1456.7330              1472.4916              1476.4023
 Red. masses --      1.2131                 2.1067                 1.1147
 Frc consts  --      1.5167                 2.6913                 1.4316
 IR Inten    --     28.1697               280.3498                17.8922

                     61                     62                     63
                      A                      A                      A
 Frequencies --   1488.4656              1491.2743              1505.2455
 Red. masses --      1.0428                 2.2519                 1.0533
 Frc consts  --      1.3612                 2.9506                 1.4060
 IR Inten    --     18.6311                66.5349                 1.0070

                     64                     65                     66
                      A                      A                      A
 Frequencies --   1505.8149              1550.7030              1563.7017
 Red. masses --      1.0674                 2.3811                 2.1705
 Frc consts  --      1.4260                 3.3735                 3.1269
 IR Inten    --     28.5865                39.8028               739.7339

                     67                     68                     69
                      A                      A                      A
 Frequencies --   1625.6453              1653.5108              1665.3206
 Red. masses --      1.5050                 5.2952                 2.8183
 Frc consts  --      2.3433                 8.5299                 4.6051
 IR Inten    --    337.6741                22.8083               131.6782

                     70                     71                     72
                      A                      A                      A
 Frequencies --   1676.8450              3052.3328              3063.7980
 Red. masses --      5.5834                 1.0359                 1.0344
 Frc consts  --      9.2498                 5.6864                 5.7210
 IR Inten    --      1.8505                74.9277                42.7871

                     73                     74                     75
                      A                      A                      A
 Frequencies --   3111.2130              3133.7948              3162.9757
 Red. masses --      1.1041                 1.1038                 1.1020
 Frc consts  --      6.2968                 6.3866                 6.4959
 IR Inten    --     39.5811                11.7453                21.5645

                     76                     77                     78
                      A                      A                      A
 Frequencies --   3169.9872              3199.5554              3207.2371
 Red. masses --      1.1042                 1.0863                 1.0894
 Frc consts  --      6.5375                 6.5520                 6.6026
 IR Inten    --     19.9460                 0.5833                 5.2242

                     79                     80                     81
                      A                      A                      A
 Frequencies --   3215.8692              3225.0809              3263.7302
 Red. masses --      1.0941                 1.0983                 1.0909
 Frc consts  --      6.6666                 6.7308                 6.8462
 IR Inten    --     20.9381                18.5895                11.4044

                     82                     83                     84
                      A                      A                      A
 Frequencies --   3460.3867              3587.8968              3681.6423
 Red. masses --      1.0588                 1.0902                 1.0782
 Frc consts  --      7.4697                 8.2689                 8.6108
 IR Inten    --     75.4691                88.3777                95.1787

 - Thermochemistry -
 -------------------
 Temperature   298.150 Kelvin.  Pressure   1.00000 Atm.
 Atom     1 has atomic number  6 and mass  12.00000

 Molecular mass:   303.99780 amu.
 Principal axes and moments of inertia in atomic units:
                           1         2         3
     Eigenvalues --  3459.000966259.307237359.64484
           X            0.99998  -0.00552  -0.00240
           Y            0.00568   0.99743   0.07136
           Z            0.00200  -0.07138   0.99745
 This molecule is an asymmetric top.
 Rotational symmetry number  1.
 Warning -- assumption of classical behavior for rotation
           may cause significant error
 Rotational temperatures (Kelvin)      0.02504     0.01384     0.01177
 Rotational constants (GHZ):           0.52175     0.28833     0.24522
    1 imaginary frequencies ignored.
 Zero-point vibrational energy     624612.4 (Joules/Mol)
                                  149.28594 (Kcal/Mol)
 Warning -- explicit consideration of  25 degrees of freedom as
           vibrations may cause significant error
 Vibrational temperatures:     55.04    74.80    85.57   102.85   110.74
          (Kelvin)            161.56   182.87   200.09   211.13   223.19
                              247.84   269.45   341.25   361.88   378.45
                              401.87   432.68   450.59   496.97   606.72
                              609.73   655.23   740.01   806.85   869.28
                              920.76   972.11  1032.37  1047.35  1108.47
                             1132.11  1163.92  1255.41  1272.36  1380.92
                             1426.99  1458.09  1471.55  1477.16  1486.62
                             1538.04  1551.41  1572.81  1623.32  1650.07
                             1665.06  1708.64  1710.67  1744.34  1756.39
                             1773.11  1872.38  1901.97  1954.37  1978.24
                             2082.46  2095.91  2118.59  2124.21  2141.57
                             2145.61  2165.71  2166.53  2231.12  2249.82
                             2338.94  2379.03  2396.02  2412.61  4391.63
                             4408.12  4476.34  4508.83  4550.82  4560.90
                             4603.45  4614.50  4626.92  4640.17  4695.78
                             4978.72  5162.18  5297.06

 Zero-point correction=                           0.237902 (Hartree/Particle)
 Thermal correction to Energy=                    0.255194
 Thermal correction to Enthalpy=                  0.256138
 Thermal correction to Gibbs Free Energy=         0.191276
 Sum of electronic and zero-point Energies=          -3646.509604
 Sum of electronic and thermal Energies=             -3646.492312
 Sum of electronic and thermal Enthalpies=           -3646.491368
 Sum of electronic and thermal Free Energies=        -3646.556230

                     E (Thermal)             CV                S
                      KCal/Mol        Cal/Mol-Kelvin    Cal/Mol-Kelvin
 Total                  160.137             61.362            136.513
 Electronic               0.000              0.000              0.000
 Translational            0.889              2.981             43.032
 Rotational               0.889              2.981             33.432
 Vibrational            158.359             55.400             60.049
 Vibration     1          0.594              1.982              5.348
 Vibration     2          0.596              1.977              4.740
 Vibration     3          0.597              1.974              4.475
 Vibration     4          0.598              1.968              4.112
 Vibration     5          0.599              1.965              3.967
 Vibration     6          0.607              1.939              3.229
 Vibration     7          0.611              1.926              2.989
 Vibration     8          0.615              1.914              2.817
 Vibration     9          0.617              1.906              2.714
 Vibration    10          0.620              1.897              2.608
 Vibration    11          0.626              1.877              2.411
 Vibration    12          0.632              1.857              2.255
 Vibration    13          0.656              1.784              1.824
 Vibration    14          0.663              1.760              1.720
 Vibration    15          0.670              1.741              1.642
 Vibration    16          0.680              1.712              1.538
 Vibration    17          0.693              1.672              1.413
 Vibration    18          0.701              1.649              1.345
 Vibration    19          0.724              1.585              1.187
 Vibration    20          0.784              1.423              0.886
 Vibration    21          0.786              1.419              0.879
 Vibration    22          0.814              1.349              0.780
 Vibration    23          0.869              1.218              0.623
 Vibration    24          0.916              1.116              0.522
 Vibration    25          0.963              1.023              0.443

 Optimization completed on the basis of negligible forces.
    -- Stationary point found.
 Normal termination of Gaussian 16 at Sun Feb  7 05:25:27 2021.
