 Gaussian 16, Revision A.03,
 Gaussian 16:  ES64L-G16RevA.03 25-Dec-2016

 ----------------------------------------------------------------------
 # wB97XD def2tzvp, opt=(ts, noeigen, calcfc, maxcycles=70, maxstep=3),
  freq=noraman, scrf=(iefpcm, solvent=water)
 ----------------------------------------------------------------------

 ------------------------
 3_iteration/TS-111-3.out
 ------------------------
 Symbolic Z-matrix:
 Charge =  0 Multiplicity = 1

 SCF Done:  E(RwB97XD) =  -3418.20013627     A.U. after   14 cycles
 Optimization completed.
    -- Stationary point found.
 Normal termination of Gaussian 16 at Sun Feb  7 20:53:59 2021.

 ---------------------------------------------------------------------
 #N Geom=AllCheck Guess=TCheck SCRF=Check GenChk RwB97XD/def2TZVP Freq
 ---------------------------------------------------------------------

 Structure from the checkpoint file:  "/beegfs/scratch/user/q/tla25/Gau-52476.chk"
 ------------------------
 3_iteration/TS-111-3.out
 ------------------------
 Charge =  0 Multiplicity = 1

                         Standard orientation:
 ---------------------------------------------------------------------
 Center     Atomic      Atomic             Coordinates (Angstroms)
 Number     Number       Type             X           Y           Z
 ---------------------------------------------------------------------
      1          6           0        0.245580    0.003520    0.235889
      2          6           0       -1.099430    0.520420    0.261699
      3          8           0       -1.328600    1.740970    0.274609
      4          6           0        1.374390    0.837670    0.412179
      5          6           0        2.300340    3.122260   -1.269611
      6          1           0        2.101650    3.689340   -2.180361
      7          1           0        2.263540    3.800530   -0.420331
      8          1           0        3.296430    2.686660   -1.331081
      9          7           0        1.316520    2.058190   -1.079851
     10          1           0        0.384280    2.419850   -0.887431
     11          1           0        1.238230    1.467380   -1.898431
     12          6           0        2.741810    0.206660    0.305319
     13          6           0        3.348390   -0.079730   -0.914161
     14          6           0        4.599580   -0.672550   -0.968061
     15          6           0        5.266870   -1.005490    0.200919
     16          6           0        4.669740   -0.736180    1.422129
     17          6           0        3.423470   -0.129940    1.472559
     18          1           0        2.847210    0.142930   -1.845611
     19          1           0        5.050300   -0.878400   -1.930521
     20          1           0        6.243050   -1.471370    0.159619
     21          1           0        5.174630   -0.994180    2.344369
     22          1           0        2.978230    0.067580    2.437999
     23          6           0        1.315260    1.896370    1.505309
     24          1           0        1.275080    1.397560    2.473549
     25          1           0        2.207350    2.520630    1.485939
     26          1           0        0.428050    2.512090    1.414199
     27         35           0        0.488740   -1.790960   -0.425521
     28          7           0       -2.131140   -0.390910    0.262639
     29          6           0       -3.507780   -0.179910    0.162079
     30          6           0       -4.119230    1.075340    0.173069
     31          6           0       -5.500520    1.169950    0.068669
     32          6           0       -6.295590    0.040390   -0.041051
     33          6           0       -5.687800   -1.208550   -0.046611
     34          6           0       -4.313370   -1.319090    0.051669
     35          1           0       -1.853340   -1.358130    0.268369
     36          1           0       -3.513020    1.960940    0.264269
     37          1           0       -5.957140    2.152270    0.077619
     38          1           0       -7.371310    0.128740   -0.119241
     39          1           0       -6.287060   -2.106640   -0.130421
     40          1           0       -3.851200   -2.299790    0.042319
 ---------------------------------------------------------------------

 SCF Done:  E(RwB97XD) =  -3418.20013627     A.U. after    1 cycles

 The electronic state is 1-A.
 Alpha  occ. eigenvalues -- -483.12266 -62.67089 -56.46192 -56.45864 -56.45851
 Alpha  occ. eigenvalues --  -19.20837 -14.47857 -14.46208 -10.38959 -10.36436
 Alpha  occ. eigenvalues --  -10.33799 -10.31650 -10.30978 -10.30292 -10.29595
 Alpha  occ. eigenvalues --  -10.29470 -10.29326 -10.29303 -10.29211 -10.28997
 Alpha  occ. eigenvalues --  -10.28837 -10.28770 -10.28182 -10.28099 -10.27797
 Alpha  occ. eigenvalues --   -8.81193  -6.63292  -6.62247  -6.62207  -2.73688
 Alpha  occ. eigenvalues --   -2.73391  -2.73358  -2.72513  -2.72512  -1.13690
 Alpha  occ. eigenvalues --   -1.04078  -1.03513  -0.97709  -0.95536  -0.93031
 Alpha  occ. eigenvalues --   -0.88339  -0.85642  -0.85048  -0.84627  -0.84031
 Alpha  occ. eigenvalues --   -0.79343  -0.77836  -0.74405  -0.71945  -0.70876
 Alpha  occ. eigenvalues --   -0.70662  -0.67070  -0.65036  -0.62961  -0.62535
 Alpha  occ. eigenvalues --   -0.60228  -0.58493  -0.57567  -0.56290  -0.55738
 Alpha  occ. eigenvalues --   -0.54937  -0.54077  -0.53561  -0.52494  -0.52216
 Alpha  occ. eigenvalues --   -0.51535  -0.51295  -0.51043  -0.50133  -0.48825
 Alpha  occ. eigenvalues --   -0.48006  -0.47778  -0.46658  -0.46344  -0.45155
 Alpha  occ. eigenvalues --   -0.44643  -0.43872  -0.42929  -0.42662  -0.41636
 Alpha  occ. eigenvalues --   -0.39555  -0.39100  -0.37875  -0.34078  -0.33916
 Alpha  occ. eigenvalues --   -0.33671  -0.33260  -0.30217  -0.26205
 Alpha virt. eigenvalues --    0.02645   0.04786   0.05276   0.05445   0.07506
 Alpha virt. eigenvalues --    0.09269   0.10319   0.12779   0.13299   0.13685
 Alpha virt. eigenvalues --    0.14156   0.14756   0.15563   0.16670   0.16808

 Mulliken charges:
               1
     1  C   -0.339657
     2  C    0.484348
     3  O   -0.588840
     4  C    0.241597
     5  C   -0.283543
     6  H    0.153001
     7  H    0.157497
     8  H    0.154634
     9  N   -0.342726
    10  H    0.278708
    11  H    0.273445
    12  C    0.269631
    13  C   -0.317735
    14  C   -0.129390
    15  C   -0.146148
    16  C   -0.149712
    17  C   -0.265217
    18  H    0.147344
    19  H    0.144690
    20  H    0.145457
    21  H    0.143929
    22  H    0.144747
    23  C   -0.440552
    24  H    0.148282
    25  H    0.154183
    26  H    0.170020
    27  Br  -0.174880
    28  N   -0.276233
    29  C    0.297781
    30  C   -0.294755
    31  C   -0.112171
    32  C   -0.197923
    33  C   -0.099355
    34  C   -0.312291
    35  H    0.237413
    36  H    0.160942
    37  H    0.140533
    38  H    0.139982
    39  H    0.142813
    40  H    0.140153
 Sum of Mulliken charges =  -0.00000

 Dipole moment (field-independent basis, Debye):
    X=              5.7305    Y=              2.5374    Z=             -2.4061  Tot=              6.7131
 Quadrupole moment (field-independent basis, Debye-Ang):
   XX=           -125.1030   YY=           -127.6724   ZZ=           -130.5506
   XY=             11.3618   XZ=             -1.7951   YZ=             -6.1520

  Exact polarizability: 449.910  -4.191 324.990  -4.345  -0.749 259.522
 Approx polarizability: 315.013 -10.207 272.990  -1.426   0.634 229.618

 ******    1 imaginary frequencies (negative Signs) ******

                      1                      2                      3
                      A                      A                      A
 Frequencies --   -360.2527                17.7254                24.2535
 Red. masses --      5.8452                 4.7705                 4.4532
 Frc consts  --      0.4470                 0.0009                 0.0015
 IR Inten    --    949.7479                 0.7969                 0.1977

                      4                      5                      6
                      A                      A                      A
 Frequencies --     33.0036                48.8055                56.3777
 Red. masses --      4.2898                 6.0604                 5.2906
 Frc consts  --      0.0028                 0.0085                 0.0099
 IR Inten    --      1.9529                 2.2069                 1.7677

                      7                      8                      9
                      A                      A                      A
 Frequencies --     79.7041                93.9789               117.7795
 Red. masses --      5.9409                 4.8539                 2.0978
 Frc consts  --      0.0222                 0.0253                 0.0171
 IR Inten    --      8.7726                 7.7504                 1.7084

                     10                     11                     12
                      A                      A                      A
 Frequencies --    122.1552               144.2955               179.9807
 Red. masses --      4.3411                 1.5361                 5.0281
 Frc consts  --      0.0382                 0.0188                 0.0960
 IR Inten    --     14.5863                 0.7227                 2.4761

                     13                     14                     15
                      A                      A                      A
 Frequencies --    203.7291               214.3165               234.1560
 Red. masses --      2.3164                 4.8984                 4.9532
 Frc consts  --      0.0566                 0.1326                 0.1600
 IR Inten    --      2.7822                15.4801                 7.0258

                     16                     17                     18
                      A                      A                      A
 Frequencies --    244.3668               266.1584               275.1857
 Red. masses --      3.6936                 1.6206                 2.5631
 Frc consts  --      0.1300                 0.0676                 0.1144
 IR Inten    --      1.2915                 5.8168                11.6169

                     19                     20                     21
                      A                      A                      A
 Frequencies --    285.4141               335.9467               359.8514
 Red. masses --      3.1940                 3.6763                 4.4621
 Frc consts  --      0.1533                 0.2445                 0.3404
 IR Inten    --     42.2009                 5.8820                13.1288

                     22                     23                     24
                      A                      A                      A
 Frequencies --    380.6177               399.7749               418.8773
 Red. masses --      5.6585                 7.3358                 2.8696
 Frc consts  --      0.4830                 0.6908                 0.2966
 IR Inten    --     18.4670                 0.1998                 0.5628

                     25                     26                     27
                      A                      A                      A
 Frequencies --    423.0852               442.9887               517.8787
 Red. masses --      2.9961                 3.5289                 3.6411
 Frc consts  --      0.3160                 0.4080                 0.5754
 IR Inten    --      0.1433                26.5460                65.2763

                     28                     29                     30
                      A                      A                      A
 Frequencies --    529.3298               544.4145               569.1320
 Red. masses --      2.8998                 5.6888                 1.1519
 Frc consts  --      0.4787                 0.9934                 0.2198
 IR Inten    --     65.0029                67.8335                96.5580

                     31                     32                     33
                      A                      A                      A
 Frequencies --    576.1085               634.8360               638.7365
 Red. masses --      3.5616                 6.3380                 6.3331
 Frc consts  --      0.6965                 1.5050                 1.5223
 IR Inten    --     97.3332                 2.5917                 2.4931

                     34                     35                     36
                      A                      A                      A
 Frequencies --    645.7216               710.9679               718.4670
 Red. masses --      4.8379                 1.3102                 1.9002
 Frc consts  --      1.1885                 0.3902                 0.5779
 IR Inten    --     16.2907                51.8865                63.7496

                     37                     38                     39
                      A                      A                      A
 Frequencies --    725.9835               755.4216               767.7691
 Red. masses --      1.5106                 5.7192                 8.6344
 Frc consts  --      0.4691                 1.9229                 2.9988
 IR Inten    --     85.3809                22.1462                47.0934

                     40                     41                     42
                      A                      A                      A
 Frequencies --    783.1453               799.4272               852.8500
 Red. masses --      1.8116                 2.2796                 4.9066
 Frc consts  --      0.6546                 0.8583                 2.1027
 IR Inten    --    100.1921                23.3769                26.1173

                     43                     44                     45
                      A                      A                      A
 Frequencies --    861.5329               873.2893               874.3972
 Red. masses --      1.2655                 1.3595                 3.5165
 Frc consts  --      0.5534                 0.6109                 1.5841
 IR Inten    --      0.3343                 0.9133                 1.5284

                     46                     47                     48
                      A                      A                      A
 Frequencies --    931.9317               955.6866               981.9816
 Red. masses --      1.4646                 1.4226                 3.1031
 Frc consts  --      0.7494                 0.7656                 1.7630
 IR Inten    --     13.0269                 1.4875               118.7787

                     49                     50                     51
                      A                      A                      A
 Frequencies --   1000.7462              1011.4893              1016.3582
 Red. masses --      1.3446                 1.3786                 1.2839
 Frc consts  --      0.7934                 0.8310                 0.7814
 IR Inten    --      0.0627                 0.7197                 0.8182

                     52                     53                     54
                      A                      A                      A
 Frequencies --   1019.2077              1025.8195              1027.5810
 Red. masses --      5.6973                 2.0055                 1.8919
 Frc consts  --      3.4869                 1.2434                 1.1770
 IR Inten    --      9.5764                20.1443                 4.2847

                     55                     56                     57
                      A                      A                      A
 Frequencies --   1031.7376              1045.1053              1056.6217
 Red. masses --      1.3145                 2.1015                 1.6697
 Frc consts  --      0.8244                 1.3524                 1.0983
 IR Inten    --      0.6006               103.3622                30.7774

                     58                     59                     60
                      A                      A                      A
 Frequencies --   1060.6604              1066.0996              1073.0808
 Red. masses --      2.0334                 2.0405                 1.7967
 Frc consts  --      1.3478                 1.3664                 1.2190
 IR Inten    --     12.2142                52.9650                13.1224

                     61                     62                     63
                      A                      A                      A
 Frequencies --   1092.3667              1118.8533              1129.4339
 Red. masses --      2.3848                 1.6540                 1.8871
 Frc consts  --      1.6766                 1.2199                 1.4183
 IR Inten    --    215.2045                42.4814                 5.2551

                     64                     65                     66
                      A                      A                      A
 Frequencies --   1132.3378              1182.1676              1186.7578
 Red. masses --      1.8291                 1.1196                 1.1283
 Frc consts  --      1.3818                 0.9218                 0.9363
 IR Inten    --      7.1385                 4.0671                 0.7561

                     67                     68                     69
                      A                      A                      A
 Frequencies --   1208.8844              1220.6562              1230.3034
 Red. masses --      1.1436                 1.1815                 1.3290
 Frc consts  --      0.9847                 1.0372                 1.1852
 IR Inten    --     40.4600                19.7978                74.9275

                     70                     71                     72
                      A                      A                      A
 Frequencies --   1252.6141              1268.2614              1286.6117
 Red. masses --      3.5855                 2.9757                 4.2527
 Frc consts  --      3.3146                 2.8200                 4.1477
 IR Inten    --    487.4760               407.2494                 5.1956

                     73                     74                     75
                      A                      A                      A
 Frequencies --   1323.1028              1344.0558              1346.3783
 Red. masses --      4.8039                 1.4435                 3.3102
 Frc consts  --      4.9548                 1.5364                 3.5354
 IR Inten    --      6.4504               101.2588               762.1714

                     76                     77                     78
                      A                      A                      A
 Frequencies --   1360.5614              1366.7046              1394.0632
 Red. masses --      1.5718                 1.4059                 2.5640
 Frc consts  --      1.7143                 1.5473                 2.9359
 IR Inten    --      4.4632                 6.0312               482.1318

                     79                     80                     81
                      A                      A                      A
 Frequencies --   1410.1632              1464.0319              1478.1634
 Red. masses --      1.4228                 1.2015                 1.9779
 Frc consts  --      1.6669                 1.5173                 2.5463
 IR Inten    --    156.5099                22.0478               405.7018

                     82                     83                     84
                      A                      A                      A
 Frequencies --   1485.2411              1492.9806              1495.0863
 Red. masses --      1.3172                 1.7559                 1.0467
 Frc consts  --      1.7119                 2.3060                 1.3784
 IR Inten    --     25.0259                12.1781                12.5748

                     85                     86                     87
                      A                      A                      A
 Frequencies --   1506.2492              1509.9140              1545.8397
 Red. masses --      1.0324                 1.0831                 2.4113
 Frc consts  --      1.3801                 1.4548                 3.3950
 IR Inten    --     15.7763                33.6965               234.4161

                     88                     89                     90
                      A                      A                      A
 Frequencies --   1549.0851              1566.9656              1637.8990
 Red. masses --      2.3180                 2.2408                 5.2169
 Frc consts  --      3.2774                 3.2416                 8.2460
 IR Inten    --     28.7741               743.2133               469.4048

                     91                     92                     93
                      A                      A                      A
 Frequencies --   1652.4372              1661.3198              1672.1914
 Red. masses --      5.0781                 4.0923                 1.2828
 Frc consts  --      8.1697                 6.6546                 2.1134
 IR Inten    --      1.9635               114.9436                61.7738

                     94                     95                     96
                      A                      A                      A
 Frequencies --   1675.8738              1678.8950              3067.7333
 Red. masses --      5.9633                 3.4820                 1.0360
 Frc consts  --      9.8678                 5.7826                 5.7442
 IR Inten    --    165.1508                22.9909                58.4050

                     97                     98                     99
                      A                      A                      A
 Frequencies --   3080.3081              3144.6892              3148.4438
 Red. masses --      1.0390                 1.1021                 1.1018
 Frc consts  --      5.8086                 6.4211                 6.4347
 IR Inten    --     29.0124                18.3942                25.9337

                    100                    101                    102
                      A                      A                      A
 Frequencies --   3172.8514              3185.6752              3195.6883
 Red. masses --      1.1049                 1.0881                 1.0883
 Frc consts  --      6.5533                 6.5062                 6.5482
 IR Inten    --     15.1757                14.0571                 3.1206

                    103                    104                    105
                      A                      A                      A
 Frequencies --   3198.1685              3201.4743              3205.3786
 Red. masses --      1.0861                 1.1004                 1.0931
 Frc consts  --      6.5449                 6.6453                 6.6173
 IR Inten    --      0.6675                 2.7065                30.4111

                    106                    107                    108
                      A                      A                      A
 Frequencies --   3206.6889              3217.9845              3221.1064
 Red. masses --      1.0896                 1.0935                 1.0979
 Frc consts  --      6.6013                 6.6714                 6.7115
 IR Inten    --      6.9966                30.3623                24.4583

                    109                    110                    111
                      A                      A                      A
 Frequencies --   3227.2547              3231.0078              3277.8172
 Red. masses --      1.0933                 1.0961                 1.0918
 Frc consts  --      6.7087                 6.7418                 6.9112
 IR Inten    --     31.0990                 2.6198                 6.7078

                    112                    113                    114
                      A                      A                      A
 Frequencies --   3472.8581              3587.5384              3630.7720
 Red. masses --      1.0608                 1.0873                 1.0764
 Frc consts  --      7.5382                 8.2451                 8.3602
 IR Inten    --     77.5667                43.7927                91.3337

 - Thermochemistry -
 -------------------
 Temperature   298.150 Kelvin.  Pressure   1.00000 Atm.
 Atom     1 has atomic number  6 and mass  12.00000

 Molecular mass:   346.06807 amu.
 Principal axes and moments of inertia in atomic units:
                           1         2         3
     Eigenvalues --  3233.55903********************
           X            0.99995   0.01049   0.00015
           Y           -0.01048   0.99956  -0.02781
           Z           -0.00044   0.02781   0.99961
 This molecule is an asymmetric top.
 Rotational symmetry number  1.
 Warning -- assumption of classical behavior for rotation
           may cause significant error
 Rotational temperatures (Kelvin)      0.02679     0.00644     0.00567
 Rotational constants (GHZ):           0.55813     0.13409     0.11806
    1 imaginary frequencies ignored.
 Zero-point vibrational energy     865414.1 (Joules/Mol)
                                  206.83893 (Kcal/Mol)
 Warning -- explicit consideration of  30 degrees of freedom as
           vibrations may cause significant error
 Vibrational temperatures:     25.50    34.90    47.48    70.22    81.11
          (Kelvin)            114.68   135.21   169.46   175.75   207.61
                              258.95   293.12   308.35   336.90   351.59
                              382.94   395.93   410.65   483.35   517.75
                              547.62   575.19   602.67   608.73   637.36
                              745.11   761.59   783.29   818.85   828.89
                              913.39   919.00   929.05  1022.92  1033.71
                             1044.53  1086.88  1104.65  1126.77  1150.20
                             1227.06  1239.55  1256.47  1258.06  1340.84
                             1375.02  1412.85  1439.85  1455.31  1462.31
                             1466.41  1475.93  1478.46  1484.44  1503.67
                             1520.24  1526.05  1533.88  1543.92  1571.67
                             1609.78  1625.00  1629.18  1700.88  1707.48
                             1739.32  1756.25  1770.13  1802.23  1824.75
                             1851.15  1903.65  1933.80  1937.14  1957.54
                             1966.38  2005.75  2028.91  2106.42  2126.75
                             2136.93  2148.07  2151.10  2167.16  2172.43
                             2224.12  2228.79  2254.51  2356.57  2377.49
                             2390.27  2405.91  2411.21  2415.56  4413.78
                             4431.88  4524.51  4529.91  4565.03  4583.48
                             4597.88  4601.45  4606.21  4611.82  4613.71
                             4629.96  4634.45  4643.30  4648.70  4716.05
                             4996.67  5161.67  5223.87

 Zero-point correction=                           0.329619 (Hartree/Particle)
 Thermal correction to Energy=                    0.349739
 Thermal correction to Enthalpy=                  0.350683
 Thermal correction to Gibbs Free Energy=         0.277965
 Sum of electronic and zero-point Energies=          -3417.870517
 Sum of electronic and thermal Energies=             -3417.850398
 Sum of electronic and thermal Enthalpies=           -3417.849453
 Sum of electronic and thermal Free Energies=        -3417.922171

                     E (Thermal)             CV                S
                      KCal/Mol        Cal/Mol-Kelvin    Cal/Mol-Kelvin
 Total                  219.464             75.823            153.047
 Electronic               0.000              0.000              0.000
 Translational            0.889              2.981             43.419
 Rotational               0.889              2.981             34.852
 Vibrational            217.687             69.861             74.777
 Vibration     1          0.593              1.986              6.874
 Vibration     2          0.593              1.985              6.251
 Vibration     3          0.594              1.983              5.640
 Vibration     4          0.595              1.978              4.865
 Vibration     5          0.596              1.975              4.580
 Vibration     6          0.600              1.963              3.898
 Vibration     7          0.603              1.953              3.575
 Vibration     8          0.608              1.935              3.136
 Vibration     9          0.610              1.931              3.066
 Vibration    10          0.616              1.909              2.746
 Vibration    11          0.629              1.867              2.329
 Vibration    12          0.639              1.835              2.099
 Vibration    13          0.644              1.819              2.007
 Vibration    14          0.654              1.789              1.847
 Vibration    15          0.660              1.772              1.771
 Vibration    16          0.672              1.735              1.621
 Vibration    17          0.677              1.719              1.563
 Vibration    18          0.683              1.701              1.501
 Vibration    19          0.717              1.604              1.231
 Vibration    20          0.734              1.555              1.123
 Vibration    21          0.750              1.511              1.037
 Vibration    22          0.766              1.471              0.963
 Vibration    23          0.782              1.429              0.896
 Vibration    24          0.785              1.420              0.882
 Vibration    25          0.803              1.376              0.817
 Vibration    26          0.873              1.210              0.615
 Vibration    27          0.884              1.185              0.589
 Vibration    28          0.900              1.152              0.556
 Vibration    29          0.925              1.098              0.506
 Vibration    30          0.933              1.083              0.493

 Optimization completed.
    -- Stationary point found.
 Normal termination of Gaussian 16 at Sun Feb  7 23:24:21 2021.
