 Gaussian 16, Revision A.03,
 Gaussian 16:  ES64L-G16RevA.03 25-Dec-2016

 ----------------------------------------------------------------------
 # wB97XD def2tzvp, opt=(ts, noeigen, calcfc, maxcycles=70, maxstep=5),
  freq=noraman, scrf=(iefpcm, solvent=water)
 ----------------------------------------------------------------------

 ------------------------
 2_iteration/TS-141-2.out
 ------------------------
 Symbolic Z-matrix:
 Charge =  0 Multiplicity = 1

 SCF Done:  E(RwB97XD) =  -3226.44925100     A.U. after   16 cycles
 SCF Done:  E(RwB97XD) =  -3226.44935007     A.U. after   12 cycles
 SCF Done:  E(RwB97XD) =  -3226.44933356     A.U. after   11 cycles
 SCF Done:  E(RwB97XD) =  -3226.44935535     A.U. after   11 cycles
 SCF Done:  E(RwB97XD) =  -3226.44935592     A.U. after   10 cycles
 SCF Done:  E(RwB97XD) =  -3226.44935595     A.U. after    8 cycles
 SCF Done:  E(RwB97XD) =  -3226.44935594     A.U. after    7 cycles
 Optimization completed.
    -- Stationary point found.
 Normal termination of Gaussian 16 at Sun Feb  7 14:51:02 2021.

 ---------------------------------------------------------------------
 #N Geom=AllCheck Guess=TCheck SCRF=Check GenChk RwB97XD/def2TZVP Freq
 ---------------------------------------------------------------------

 Structure from the checkpoint file:  "/beegfs/scratch/user/q/tla25/Gau-6932.chk"
 ------------------------
 2_iteration/TS-141-2.out
 ------------------------
 Charge =  0 Multiplicity = 1

                         Standard orientation:
 ---------------------------------------------------------------------
 Center     Atomic      Atomic             Coordinates (Angstroms)
 Number     Number       Type             X           Y           Z
 ---------------------------------------------------------------------
      1          6           0        0.678295   -0.866631   -0.762785
      2          6           0        2.142569   -0.967402   -0.714679
      3          8           0        2.729871   -1.916959   -1.243728
      4          6           0       -0.088324   -0.012560   -0.022706
      5          6           0        0.783450   -1.474828    2.283327
      6          1           0        0.960394   -2.072153    1.384319
      7          1           0        1.703290   -1.437829    2.862627
      8          1           0        0.006000   -1.947986    2.877740
      9          7           0        0.374952   -0.134728    1.872117
     10          1           0       -0.430473    0.212606    2.378551
     11          1           0        1.125101    0.532527    1.987713
     12          6           0       -1.578740   -0.122205   -0.024470
     13          6           0       -2.369708    0.686649   -0.835759
     14          6           0       -3.740596    0.496502   -0.900561
     15          6           0       -4.345940   -0.499514   -0.148588
     16          6           0       -3.566594   -1.314401    0.657716
     17          6           0       -2.194171   -1.130374    0.713740
     18          1           0       -1.910591    1.465175   -1.428894
     19          1           0       -4.337202    1.132486   -1.541830
     20          1           0       -5.417947   -0.642057   -0.194134
     21          1           0       -4.023877   -2.102455    1.241971
     22          1           0       -1.601181   -1.799863    1.320792
     23         35           0        0.377553    2.068340   -0.005067
     24          6           0        0.022111   -1.919102   -1.633022
     25          1           0       -1.018386   -1.682433   -1.841948
     26          1           0        0.550376   -1.990650   -2.584521
     27          1           0        0.055203   -2.911118   -1.173406
     28          7           0        2.852437   -0.035715   -0.017520
     29          6           0        4.297343   -0.079464    0.002510
     30          1           0        2.427091    0.867542    0.111797
     31          1           0        4.658164    0.719211    0.647860
     32          1           0        4.640757   -1.033031    0.401815
     33          1           0        4.730084    0.046894   -0.993822
 ---------------------------------------------------------------------

 SCF Done:  E(RwB97XD) =  -3226.44935594     A.U. after    1 cycles

 The electronic state is 1-A.
 Alpha  occ. eigenvalues -- -483.11327 -62.66179 -56.45244 -56.44965 -56.44958
 Alpha  occ. eigenvalues --  -19.20191 -14.49163 -14.44477 -10.39573 -10.37586
 Alpha  occ. eigenvalues --  -10.31885 -10.31555 -10.30528 -10.29965 -10.29765
 Alpha  occ. eigenvalues --  -10.29638 -10.29584 -10.29533 -10.27360 -10.27013
 Alpha  occ. eigenvalues --   -8.80265  -6.62240  -6.61373  -6.61351  -2.72635
 Alpha  occ. eigenvalues --   -2.72410  -2.72391  -2.71692  -2.71691  -1.12923
 Alpha  occ. eigenvalues --   -1.04542  -1.01190  -0.98054  -0.92450  -0.86279
 Alpha  occ. eigenvalues --   -0.85913  -0.85092  -0.80166  -0.79310  -0.77188
 Alpha  occ. eigenvalues --   -0.72082  -0.71277  -0.67736  -0.65766  -0.63816
 Alpha  occ. eigenvalues --   -0.61359  -0.58286  -0.57725  -0.56102  -0.55895
 Alpha  occ. eigenvalues --   -0.55233  -0.53623  -0.52343  -0.51741  -0.51219
 Alpha  occ. eigenvalues --   -0.50564  -0.49193  -0.48476  -0.47261  -0.47066
 Alpha  occ. eigenvalues --   -0.45413  -0.45173  -0.44761  -0.44370  -0.42425
 Alpha  occ. eigenvalues --   -0.42230  -0.37408  -0.36577  -0.34835  -0.34407
 Alpha  occ. eigenvalues --   -0.33519  -0.33047  -0.27530
 Alpha virt. eigenvalues --    0.00341   0.04107   0.05242   0.07016   0.10119
 Alpha virt. eigenvalues --    0.12553   0.12939   0.13691   0.14069   0.15170
 Alpha virt. eigenvalues --    0.15951   0.17015   0.17397   0.17762   0.18165

 Mulliken charges:
               1
     1  C   -0.162438
     2  C    0.263374
     3  O   -0.525373
     4  C    0.229440
     5  C   -0.311199
     6  H    0.159287
     7  H    0.164742
     8  H    0.167494
     9  N   -0.314974
    10  H    0.297396
    11  H    0.277474
    12  C    0.075736
    13  C   -0.227839
    14  C   -0.140394
    15  C   -0.136260
    16  C   -0.148276
    17  C   -0.231412
    18  H    0.151513
    19  H    0.146238
    20  H    0.147892
    21  H    0.146175
    22  H    0.158612
    23  Br  -0.288176
    24  C   -0.354598
    25  H    0.140718
    26  H    0.127187
    27  H    0.116580
    28  N   -0.305533
    29  C   -0.261853
    30  H    0.243460
    31  H    0.139309
    32  H    0.132069
    33  H    0.123624
 Sum of Mulliken charges =  -0.00000

 Dipole moment (field-independent basis, Debye):
    X=             -3.8923    Y=              1.3896    Z=              7.4937  Tot=              8.5578
 Quadrupole moment (field-independent basis, Debye-Ang):
   XX=           -102.4672   YY=           -118.8657   ZZ=           -101.3178
   XY=             13.9476   XZ=             11.3350   YZ=            -11.2768

  Exact polarizability: 303.363  -3.257 275.311  -2.107  -9.329 224.851
 Approx polarizability: 226.630  -2.690 224.911  -0.976  -7.855 191.238

 ******    1 imaginary frequencies (negative Signs) ******

                      1                      2                      3
                      A                      A                      A
 Frequencies --   -401.9556                25.9221                64.9825
 Red. masses --      6.1958                 3.9622                 3.3387
 Frc consts  --      0.5898                 0.0016                 0.0083
 IR Inten    --    392.7514                 0.5038                 2.7864

                      4                      5                      6
                      A                      A                      A
 Frequencies --     74.0962                80.0529               121.6173
 Red. masses --      4.0140                 4.3589                 2.2589
 Frc consts  --      0.0130                 0.0165                 0.0197
 IR Inten    --      4.2013                12.1434                 7.1662

                      7                      8                      9
                      A                      A                      A
 Frequencies --    128.1970               133.5113               146.8642
 Red. masses --      1.4470                 1.4400                 2.5325
 Frc consts  --      0.0140                 0.0151                 0.0322
 IR Inten    --      3.1505                 3.8967                 2.5947

                     10                     11                     12
                      A                      A                      A
 Frequencies --    151.0338               157.5957               165.3224
 Red. masses --      2.4893                 1.1766                 4.5708
 Frc consts  --      0.0335                 0.0172                 0.0736
 IR Inten    --      8.1200                 7.2249                13.5336

                     13                     14                     15
                      A                      A                      A
 Frequencies --    174.6109               188.6814               212.4536
 Red. masses --      2.8208                 4.4847                 4.6219
 Frc consts  --      0.0507                 0.0941                 0.1229
 IR Inten    --      4.6816                32.6438                53.8728

                     16                     17                     18
                      A                      A                      A
 Frequencies --    233.9990               286.8570               301.9812
 Red. masses --      3.3347                 4.2162                 3.4000
 Frc consts  --      0.1076                 0.2044                 0.1827
 IR Inten    --     12.7037                 0.6493                19.0648

                     19                     20                     21
                      A                      A                      A
 Frequencies --    332.3016               352.8515               379.9331
 Red. masses --      3.4227                 4.4865                 4.0535
 Frc consts  --      0.2227                 0.3291                 0.3447
 IR Inten    --     26.6067                 3.7809                31.3805

                     22                     23                     24
                      A                      A                      A
 Frequencies --    418.2293               471.1492               523.3427
 Red. masses --      2.8606                 4.7465                 2.5313
 Frc consts  --      0.2948                 0.6208                 0.4085
 IR Inten    --      0.4816                64.8776                21.6729

                     25                     26                     27
                      A                      A                      A
 Frequencies --    547.2034               588.4904               599.4063
 Red. masses --      1.5431                 2.8459                 3.8195
 Frc consts  --      0.2722                 0.5807                 0.8085
 IR Inten    --    123.9425                11.9758               143.2604

                     28                     29                     30
                      A                      A                      A
 Frequencies --    640.7031               664.6194               688.5541
 Red. masses --      6.0527                 2.4662                 2.8754
 Frc consts  --      1.4639                 0.6418                 0.8032
 IR Inten    --     18.3380               183.3088               122.8354

                     31                     32                     33
                      A                      A                      A
 Frequencies --    723.2949               793.1169               802.4032
 Red. masses --      1.5318                 6.8553                 2.2699
 Frc consts  --      0.4722                 2.5407                 0.8611
 IR Inten    --    114.3219                66.1419                44.4301

                     34                     35                     36
                      A                      A                      A
 Frequencies --    821.0463               874.6413               902.3454
 Red. masses --      3.7371                 1.2520                 2.9604
 Frc consts  --      1.4843                 0.5643                 1.4202
 IR Inten    --    147.5093                 0.4264                 9.8456

                     37                     38                     39
                      A                      A                      A
 Frequencies --    964.4519              1012.3544              1015.0711
 Red. masses --      1.4314                 1.9254                 1.4272
 Frc consts  --      0.7844                 1.1626                 0.8664
 IR Inten    --      3.3311                88.1372                 8.1642

                     40                     41                     42
                      A                      A                      A
 Frequencies --   1026.8922              1034.7633              1038.7353
 Red. masses --      4.6144                 1.3130                 1.2870
 Frc consts  --      2.8669                 0.8283                 0.8181
 IR Inten    --      4.9334                 0.1220                11.3241

                     43                     44                     45
                      A                      A                      A
 Frequencies --   1054.6766              1061.0336              1064.2146
 Red. masses --      2.0609                 1.6223                 1.9363
 Frc consts  --      1.3507                 1.0760                 1.2920
 IR Inten    --    142.6353                42.0963                53.7230

                     46                     47                     48
                      A                      A                      A
 Frequencies --   1069.4670              1087.7117              1122.5933
 Red. masses --      1.8672                 1.6969                 1.5643
 Frc consts  --      1.2583                 1.1829                 1.1615
 IR Inten    --     29.2411                13.5971                 4.2548

                     49                     50                     51
                      A                      A                      A
 Frequencies --   1151.7257              1184.5759              1186.8103
 Red. masses --      1.3072                 1.5126                 1.2746
 Frc consts  --      1.0216                 1.2505                 1.0578
 IR Inten    --      8.1400                38.7019                12.8831

                     52                     53                     54
                      A                      A                      A
 Frequencies --   1187.3967              1207.5440              1218.7824
 Red. masses --      1.3450                 4.0320                 1.1284
 Frc consts  --      1.1173                 3.4640                 0.9876
 IR Inten    --     21.4251                 4.1772                 7.0347

                     55                     56                     57
                      A                      A                      A
 Frequencies --   1236.2603              1309.9097              1320.3991
 Red. masses --      3.5983                 1.3702                 4.2769
 Frc consts  --      3.2401                 1.3852                 4.3933
 IR Inten    --     45.7101                25.9759                 6.7590

                     58                     59                     60
                      A                      A                      A
 Frequencies --   1334.9182              1364.0061              1412.4467
 Red. masses --      3.1088                 1.4332                 1.2469
 Frc consts  --      3.2640                 1.5711                 1.4656
 IR Inten    --    439.6823                 5.6929                12.3155

                     61                     62                     63
                      A                      A                      A
 Frequencies --   1451.8959              1457.7982              1473.5881
 Red. masses --      1.1758                 1.1980                 1.0525
 Frc consts  --      1.4603                 1.5000                 1.3465
 IR Inten    --     55.9650                17.2173                25.1024

                     64                     65                     66
                      A                      A                      A
 Frequencies --   1478.9399              1481.3962              1489.4594
 Red. masses --      1.0637                 1.1558                 2.2159
 Frc consts  --      1.3708                 1.4945                 2.8964
 IR Inten    --     25.0137                39.2772                24.2383

                     67                     68                     69
                      A                      A                      A
 Frequencies --   1496.3544              1502.8409              1503.9767
 Red. masses --      1.0546                 1.0397                 1.0617
 Frc consts  --      1.3912                 1.3835                 1.4149
 IR Inten    --      8.0478                 4.5564                 6.8144

                     70                     71                     72
                      A                      A                      A
 Frequencies --   1530.8391              1561.4992              1575.3656
 Red. masses --      2.2318                 2.7619                 2.0574
 Frc consts  --      3.0815                 3.9677                 3.0084
 IR Inten    --    307.9189               353.3037               360.4895

                     73                     74                     75
                      A                      A                      A
 Frequencies --   1638.7827              1650.3298              1663.0984
 Red. masses --      1.1299                 5.6562                 6.0111
 Frc consts  --      1.7878                 9.0765                 9.7958
 IR Inten    --    195.7436                 4.9925               726.2389

                     76                     77                     78
                      A                      A                      A
 Frequencies --   1673.9352              3040.7780              3044.5897
 Red. masses --      5.8767                 1.0456                 1.0424
 Frc consts  --      9.7019                 5.6964                 5.6928
 IR Inten    --      1.3291                80.0120                88.7638

                     79                     80                     81
                      A                      A                      A
 Frequencies --   3050.7429              3105.6514              3117.8215
 Red. masses --      1.0433                 1.0932                 1.0943
 Frc consts  --      5.7212                 6.2124                 6.2674
 IR Inten    --     57.4601                37.0264                38.8686

                     82                     83                     84
                      A                      A                      A
 Frequencies --   3137.8833              3157.9792              3158.2923
 Red. masses --      1.0914                 1.0991                 1.1039
 Frc consts  --      6.3316                 6.4583                 6.4874
 IR Inten    --      7.9890                23.5581                23.4397

                     85                     86                     87
                      A                      A                      A
 Frequencies --   3178.2299              3200.6080              3210.0018
 Red. masses --      1.1070                 1.0864                 1.0901
 Frc consts  --      6.5880                 6.5570                 6.6177
 IR Inten    --     14.0012                 0.1601                11.0954

                     88                     89                     90
                      A                      A                      A
 Frequencies --   3220.6191              3229.0581              3239.6593
 Red. masses --      1.0941                 1.0955                 1.0930
 Frc consts  --      6.6865                 6.7301                 6.7589
 IR Inten    --     21.2092                 9.7774                 6.9879

                     91                     92                     93
                      A                      A                      A
 Frequencies --   3544.1015              3613.8970              3630.3857
 Red. masses --      1.0521                 1.0774                 1.0957
 Frc consts  --      7.7862                 8.2904                 8.5081
 IR Inten    --     44.9552               168.9074                52.7604

 - Thermochemistry -
 -------------------
 Temperature   298.150 Kelvin.  Pressure   1.00000 Atm.
 Atom     1 has atomic number  6 and mass  12.00000

 Molecular mass:   284.05242 amu.
 Principal axes and moments of inertia in atomic units:
                           1         2         3
     Eigenvalues --  2970.348855885.727696999.79354
           X            0.99994  -0.00253   0.01026
           Y            0.00281   0.99963  -0.02699
           Z           -0.01019   0.02702   0.99958
 This molecule is an asymmetric top.
 Rotational symmetry number  1.
 Warning -- assumption of classical behavior for rotation
           may cause significant error
 Rotational temperatures (Kelvin)      0.02916     0.01472     0.01237
 Rotational constants (GHZ):           0.60759     0.30663     0.25783
    1 imaginary frequencies ignored.
 Zero-point vibrational energy     723433.0 (Joules/Mol)
                                  172.90463 (Kcal/Mol)
 Warning -- explicit consideration of  26 degrees of freedom as
           vibrations may cause significant error
 Vibrational temperatures:     37.30    93.50   106.61   115.18   174.98
          (Kelvin)            184.45   192.09   211.30   217.30   226.74
                              237.86   251.23   271.47   305.67   336.67
                              412.72   434.48   478.11   507.67   546.64
                              601.74   677.88   752.97   787.30   846.71
                              862.41   921.83   956.24   990.68  1040.66
                             1141.12  1154.48  1181.30  1258.41  1298.27
                             1387.63  1456.55  1460.46  1477.47  1488.79
                             1494.51  1517.44  1526.59  1531.17  1538.72
                             1564.97  1615.16  1657.08  1704.34  1707.56
                             1708.40  1737.39  1753.56  1778.70  1884.67
                             1899.76  1920.65  1962.50  2032.20  2088.95
                             2097.45  2120.16  2127.86  2131.40  2143.00
                             2152.92  2162.25  2163.89  2202.54  2246.65
                             2266.60  2357.84  2374.46  2392.83  2408.42
                             4375.00  4380.49  4389.34  4468.34  4485.85
                             4514.71  4543.63  4544.08  4572.76  4604.96
                             4618.48  4633.75  4645.89  4661.15  5099.17
                             5199.59  5223.32

 Zero-point correction=                           0.275541 (Hartree/Particle)
 Thermal correction to Energy=                    0.293068
 Thermal correction to Enthalpy=                  0.294013
 Thermal correction to Gibbs Free Energy=         0.229381
 Sum of electronic and zero-point Energies=          -3226.173815
 Sum of electronic and thermal Energies=             -3226.156287
 Sum of electronic and thermal Enthalpies=           -3226.155343
 Sum of electronic and thermal Free Energies=        -3226.219975

                     E (Thermal)             CV                S
                      KCal/Mol        Cal/Mol-Kelvin    Cal/Mol-Kelvin
 Total                  183.903             63.372            136.028
 Electronic               0.000              0.000              0.000
 Translational            0.889              2.981             42.830
 Rotational               0.889              2.981             33.170
 Vibrational            182.126             57.411             60.028
 Vibration     1          0.593              1.985              6.119
 Vibration     2          0.597              1.971              4.300
 Vibration     3          0.599              1.966              4.041
 Vibration     4          0.600              1.963              3.890
 Vibration     5          0.609              1.931              3.075
 Vibration     6          0.611              1.925              2.973
 Vibration     7          0.613              1.920              2.895
 Vibration     8          0.617              1.906              2.712
 Vibration     9          0.618              1.902              2.659
 Vibration    10          0.621              1.894              2.578
 Vibration    11          0.624              1.885              2.488
 Vibration    12          0.627              1.874              2.385
 Vibration    13          0.633              1.855              2.241
 Vibration    14          0.643              1.822              2.022
 Vibration    15          0.654              1.789              1.848
 Vibration    16          0.684              1.698              1.492
 Vibration    17          0.694              1.670              1.406
 Vibration    18          0.714              1.611              1.249
 Vibration    19          0.729              1.569              1.153
 Vibration    20          0.750              1.513              1.039
 Vibration    21          0.781              1.431              0.898
 Vibration    22          0.828              1.314              0.734
 Vibration    23          0.878              1.198              0.602
 Vibration    24          0.902              1.146              0.550
 Vibration    25          0.946              1.056              0.470
 Vibration    26          0.957              1.033              0.451

 Optimization completed.
    -- Stationary point found.
 Normal termination of Gaussian 16 at Sun Feb  7 16:18:09 2021.
