 Gaussian 16, Revision A.03,
 Gaussian 16:  ES64L-G16RevA.03 25-Dec-2016

 ----------------------------------------------------------------------
 # wB97XD def2tzvp, opt=(ts, noeigen, calcfc, maxcycles=70, maxstep=1),
  freq=noraman, scrf=(iefpcm, solvent=water)
 ----------------------------------------------------------------------

 -----------------------
 4_iteration/TS-13-4.out
 -----------------------
 Symbolic Z-matrix:
 Charge =  0 Multiplicity = 1

 SCF Done:  E(RwB97XD) =  -844.575086383     A.U. after   15 cycles
 Optimization completed.
    -- Stationary point found.
 Normal termination of Gaussian 16 at Mon Feb  1 07:38:27 2021.

 ---------------------------------------------------------------------
 #N Geom=AllCheck Guess=TCheck SCRF=Check GenChk RwB97XD/def2TZVP Freq
 ---------------------------------------------------------------------

 Structure from the checkpoint file:  "/beegfs/scratch/user/q/tla25/Gau-44796.chk"
 -----------------------
 4_iteration/TS-13-4.out
 -----------------------
 Charge =  0 Multiplicity = 1

                         Standard orientation:
 ---------------------------------------------------------------------
 Center     Atomic      Atomic             Coordinates (Angstroms)
 Number     Number       Type             X           Y           Z
 ---------------------------------------------------------------------
      1          6           0        0.400368   -1.364111   -0.774680
      2          6           0        1.752558   -1.788022   -0.730520
      3          8           0        2.177837   -2.781742   -1.356390
      4          6           0       -0.200721   -0.347940    0.047310
      5          6           0       -0.614892   -2.230450    1.938890
      6          1           0       -0.248433   -2.854630    1.124430
      7          1           0       -0.247002   -2.608160    2.890270
      8          1           0       -1.701052   -2.223979    1.941460
      9          7           0       -0.118421   -0.869430    1.718650
     10          1           0       -0.600071   -0.216470    2.327590
     11          1           0        0.876339   -0.837581    1.929750
     12          6           0       -1.703611   -0.172399   -0.151200
     13          6           0       -2.314720    1.064141    0.049360
     14          6           0       -3.685450    1.220682   -0.098560
     15          6           0       -4.478690    0.139863   -0.446180
     16          6           0       -3.886831   -1.099748   -0.639660
     17          6           0       -2.518111   -1.253399   -0.491710
     18          1           0       -1.719979    1.926711    0.316510
     19          1           0       -4.130059    2.195402    0.057400
     20          1           0       -5.547980    0.260233   -0.564400
     21          1           0       -4.492902   -1.956457   -0.905880
     22          1           0       -2.088762   -2.234009   -0.637860
     23          6           0        0.522070    1.003799    0.068130
     24          6           0        0.837891    1.549699   -1.177210
     25          6           0        1.456361    2.782048   -1.287270
     26          6           0        1.785142    3.503328   -0.147280
     27          6           0        1.477502    2.978218    1.094740
     28          6           0        0.844871    1.744919    1.201690
     29          1           0        0.595360    0.982769   -2.065910
     30          1           0        1.688142    3.178168   -2.267800
     31          1           0        2.277163    4.463898   -0.228870
     32          1           0        1.725402    3.525378    1.995150
     33          1           0        0.622510    1.394939    2.199550
     34          1           0       -0.243552   -2.028560   -1.327620
     35          7           0        2.644659   -1.114372    0.108770
     36          6           0        4.056598   -1.425453    0.035160
     37          1           0        2.451789   -0.134892    0.240540
     38          1           0        4.485139   -1.234904   -0.954350
     39          1           0        4.583769   -0.814434    0.767310
     40          1           0        4.225808   -2.473914    0.275870
 ---------------------------------------------------------------------

 SCF Done:  E(RwB97XD) =  -844.575086383     A.U. after    1 cycles

 The electronic state is 1-A.
 Alpha  occ. eigenvalues --  -19.17758 -14.51427 -14.42829 -10.36398 -10.35233
 Alpha  occ. eigenvalues --  -10.32158 -10.31114 -10.30936 -10.30057 -10.29676
 Alpha  occ. eigenvalues --  -10.29626 -10.29489 -10.29412 -10.29374 -10.29355
 Alpha  occ. eigenvalues --  -10.29307 -10.29274 -10.29254 -10.29222 -10.22753
 Alpha  occ. eigenvalues --   -1.10043  -1.06976  -0.99242  -0.98019  -0.96843
 Alpha  occ. eigenvalues --   -0.91028  -0.86077  -0.85704  -0.85293  -0.83039
 Alpha  occ. eigenvalues --   -0.80267  -0.78121  -0.73609  -0.71174  -0.70873
 Alpha  occ. eigenvalues --   -0.70106  -0.66981  -0.65703  -0.63984  -0.62811
 Alpha  occ. eigenvalues --   -0.61178  -0.58613  -0.57827  -0.56645  -0.55317
 Alpha  occ. eigenvalues --   -0.55066  -0.54340  -0.53249  -0.52378  -0.51911
 Alpha  occ. eigenvalues --   -0.51347  -0.51130  -0.50807  -0.49043  -0.48589
 Alpha  occ. eigenvalues --   -0.47886  -0.47271  -0.46273  -0.45340  -0.45035
 Alpha  occ. eigenvalues --   -0.44214  -0.44103  -0.43103  -0.42609  -0.41474
 Alpha  occ. eigenvalues --   -0.34870  -0.34286  -0.34053  -0.33461  -0.33001
 Alpha  occ. eigenvalues --   -0.31431  -0.25287
 Alpha virt. eigenvalues --    0.02993   0.04004   0.04472   0.05663   0.09681
 Alpha virt. eigenvalues --    0.11040   0.12298   0.12933   0.13158   0.13783
 Alpha virt. eigenvalues --    0.14901   0.15579   0.16047   0.16356   0.17004

 Mulliken charges:
               1
     1  C   -0.545222
     2  C    0.300555
     3  O   -0.593837
     4  C    0.559658
     5  C   -0.328646
     6  H    0.169739
     7  H    0.169897
     8  H    0.170068
     9  N   -0.198552
    10  H    0.293705
    11  H    0.286030
    12  C    0.048756
    13  C   -0.238730
    14  C   -0.149888
    15  C   -0.147455
    16  C   -0.128660
    17  C   -0.307558
    18  H    0.169574
    19  H    0.142721
    20  H    0.145015
    21  H    0.143301
    22  H    0.162620
    23  C   -0.139121
    24  C   -0.222540
    25  C   -0.138754
    26  C   -0.117105
    27  C   -0.155994
    28  C   -0.147404
    29  H    0.139991
    30  H    0.143738
    31  H    0.146671
    32  H    0.145971
    33  H    0.123017
    34  H    0.092381
    35  N   -0.343115
    36  C   -0.271411
    37  H    0.255324
    38  H    0.111263
    39  H    0.130589
    40  H    0.123410
 Sum of Mulliken charges =  -0.00000

 Dipole moment (field-independent basis, Debye):
    X=             -4.7489    Y=              6.6065    Z=              9.5641  Tot=             12.5566
 Quadrupole moment (field-independent basis, Debye-Ang):
   XX=           -115.4906   YY=           -126.6527   ZZ=           -112.6490
   XY=             21.2488   XZ=              8.2842   YZ=            -14.9262

  Exact polarizability: 327.624   7.478 316.412  -3.744  18.914 261.707
 Approx polarizability: 246.150   6.769 257.799  -0.651  17.099 227.449

 ******    1 imaginary frequencies (negative Signs) ******

                      1                      2                      3
                      A                      A                      A
 Frequencies --   -292.9110                31.0074                47.7304
 Red. masses --      4.7892                 3.7628                 3.8086
 Frc consts  --      0.2421                 0.0021                 0.0051
 IR Inten    --    421.5908                 1.4741                 4.0440

                      4                      5                      6
                      A                      A                      A
 Frequencies --     58.6388                66.3437                87.9947
 Red. masses --      3.8785                 4.4664                 5.0323
 Frc consts  --      0.0079                 0.0116                 0.0230
 IR Inten    --      1.8945                 1.7346                 7.6089

                      7                      8                      9
                      A                      A                      A
 Frequencies --     99.5212               107.0610               138.6907
 Red. masses --      4.3410                 3.6385                 1.7075
 Frc consts  --      0.0253                 0.0246                 0.0194
 IR Inten    --      4.7826                 9.1435                11.3399

                     10                     11                     12
                      A                      A                      A
 Frequencies --    151.4126               177.4872               183.0481
 Red. masses --      1.5641                 1.8842                 3.0762
 Frc consts  --      0.0211                 0.0350                 0.0607
 IR Inten    --     21.0967                 6.8164                 6.8421

                     13                     14                     15
                      A                      A                      A
 Frequencies --    216.7858               239.6443               266.8157
 Red. masses --      2.1520                 1.7635                 3.5579
 Frc consts  --      0.0596                 0.0597                 0.1492
 IR Inten    --      3.1169                15.9210                 8.8459

                     16                     17                     18
                      A                      A                      A
 Frequencies --    269.8759               292.2805               315.1075
 Red. masses --      4.4208                 4.3819                 4.2211
 Frc consts  --      0.1897                 0.2206                 0.2469
 IR Inten    --      1.1052                14.6463                 4.0068

                     19                     20                     21
                      A                      A                      A
 Frequencies --    337.4611               360.4184               390.7489
 Red. masses --      3.3004                 5.3227                 5.1811
 Frc consts  --      0.2214                 0.4074                 0.4661
 IR Inten    --     16.0060                22.3672                29.9391

                     22                     23                     24
                      A                      A                      A
 Frequencies --    417.9891               426.3235               498.2341
 Red. masses --      2.8308                 2.9137                 3.6459
 Frc consts  --      0.2914                 0.3120                 0.5332
 IR Inten    --      0.2817                 0.3874                25.4167

                     25                     26                     27
                      A                      A                      A
 Frequencies --    523.5006               527.9753               595.8389
 Red. masses --      1.5774                 3.1824                 3.7086
 Frc consts  --      0.2547                 0.5227                 0.7757
 IR Inten    --    106.7918                18.2625               196.7949

                     28                     29                     30
                      A                      A                      A
 Frequencies --    619.7322               636.8974               639.5978
 Red. masses --      1.4220                 5.4267                 5.8641
 Frc consts  --      0.3218                 1.2970                 1.4134
 IR Inten    --     46.6694                 6.6706                 3.0999

                     31                     32                     33
                      A                      A                      A
 Frequencies --    651.7216               660.2163               718.1473
 Red. masses --      3.9137                 3.1199                 3.1640
 Frc consts  --      0.9794                 0.8013                 0.9614
 IR Inten    --     32.0999               103.4336                 9.8101

                     34                     35                     36
                      A                      A                      A
 Frequencies --    724.1508               727.2527               735.6272
 Red. masses --      1.5948                 1.9044                 1.8663
 Frc consts  --      0.4927                 0.5934                 0.5951
 IR Inten    --    116.2695                33.1419               101.3866

                     37                     38                     39
                      A                      A                      A
 Frequencies --    783.6452               795.4304               809.4950
 Red. masses --      4.2152                 2.4567                 2.2524
 Frc consts  --      1.5251                 0.9158                 0.8696
 IR Inten    --     46.6916                41.2251                64.5937

                     40                     41                     42
                      A                      A                      A
 Frequencies --    837.6554               872.8594               881.9077
 Red. masses --      3.0055                 1.2591                 1.2558
 Frc consts  --      1.2425                 0.5652                 0.5754
 IR Inten    --     46.2743                 0.9199                 0.8695

                     43                     44                     45
                      A                      A                      A
 Frequencies --    908.9616               934.4676               972.2944
 Red. masses --      2.6580                 1.9940                 1.5995
 Frc consts  --      1.2939                 1.0259                 0.8909
 IR Inten    --     26.0587                19.8269                 1.1909

                     46                     47                     48
                      A                      A                      A
 Frequencies --    974.3077              1015.3214              1022.6190
 Red. masses --      1.8946                 1.3800                 1.4510
 Frc consts  --      1.0596                 0.8382                 0.8940
 IR Inten    --      5.4926                 1.3321                 0.1057

                     49                     50                     51
                      A                      A                      A
 Frequencies --   1024.3887              1027.0590              1034.2922
 Red. masses --      5.8364                 4.6103                 1.3240
 Frc consts  --      3.6085                 2.8653                 0.8345
 IR Inten    --      4.3249                 2.7800                 0.1728

                     52                     53                     54
                      A                      A                      A
 Frequencies --   1036.5590              1053.9485              1064.7175
 Red. masses --      1.3154                 1.4534                 2.0396
 Frc consts  --      0.8327                 0.9512                 1.3623
 IR Inten    --      0.7016                36.9746                40.5200

                     55                     56                     57
                      A                      A                      A
 Frequencies --   1070.2869              1075.6396              1113.9079
 Red. masses --      2.1356                 3.2206                 1.3960
 Frc consts  --      1.4413                 2.1955                 1.0206
 IR Inten    --     23.0726                32.5918                64.8756

                     58                     59                     60
                      A                      A                      A
 Frequencies --   1118.1001              1126.5559              1134.0424
 Red. masses --      1.7257                 1.5146                 1.6019
 Frc consts  --      1.2711                 1.1325                 1.2138
 IR Inten    --     25.6136                25.8179                11.6262

                     61                     62                     63
                      A                      A                      A
 Frequencies --   1150.6645              1165.8917              1179.9336
 Red. masses --      1.7646                 1.7695                 2.5626
 Frc consts  --      1.3766                 1.4172                 2.1020
 IR Inten    --     27.4594                38.7606                20.4141

                     64                     65                     66
                      A                      A                      A
 Frequencies --   1186.7976              1188.6101              1223.0621
 Red. masses --      1.1311                 1.1623                 1.2006
 Frc consts  --      0.9386                 0.9675                 1.0581
 IR Inten    --      0.3327                 0.9420                 5.8095

                     67                     68                     69
                      A                      A                      A
 Frequencies --   1224.5049              1238.1893              1273.7870
 Red. masses --      1.1909                 2.6390                 2.2390
 Frc consts  --      1.0521                 2.3838                 2.1404
 IR Inten    --      0.2455                14.1988                87.9523

                     70                     71                     72
                      A                      A                      A
 Frequencies --   1293.3356              1312.9122              1322.7377
 Red. masses --      1.8084                 2.1646                 4.7340
 Frc consts  --      1.7822                 2.1983                 4.8801
 IR Inten    --     88.7989               472.7435                 6.4881

                     73                     74                     75
                      A                      A                      A
 Frequencies --   1342.9536              1367.1878              1369.9937
 Red. masses --      4.5363                 1.3830                 1.4277
 Frc consts  --      4.8203                 1.5231                 1.5788
 IR Inten    --     85.8899                12.7912                39.3500

                     76                     77                     78
                      A                      A                      A
 Frequencies --   1379.3499              1418.5139              1447.1080
 Red. masses --      1.2825                 2.1931                 1.1853
 Frc consts  --      1.4376                 2.6000                 1.4624
 IR Inten    --     12.6558               213.7280                 7.1155

                     79                     80                     81
                      A                      A                      A
 Frequencies --   1453.9864              1477.2803              1488.8717
 Red. masses --      1.2349                 1.0831                 2.1845
 Frc consts  --      1.5382                 1.3927                 2.8531
 IR Inten    --     31.8436                38.3636                22.0899

                     82                     83                     84
                      A                      A                      A
 Frequencies --   1494.4301              1497.7754              1500.7452
 Red. masses --      2.0828                 1.1012                 1.1848
 Frc consts  --      2.7407                 1.4554                 1.5722
 IR Inten    --     35.2041                 8.6402                27.9605

                     85                     86                     87
                      A                      A                      A
 Frequencies --   1506.8615              1527.8655              1542.6564
 Red. masses --      1.0420                 1.4301                 2.1824
 Frc consts  --      1.3940                 1.9669                 3.0600
 IR Inten    --     17.1899               233.9329                15.7379

                     88                     89                     90
                      A                      A                      A
 Frequencies --   1547.1127              1618.6964              1636.3825
 Red. masses --      2.1804                 4.6117                 1.3026
 Frc consts  --      3.0749                 7.1193                 2.0550
 IR Inten    --     34.7387              1425.3228                38.9714

                     91                     92                     93
                      A                      A                      A
 Frequencies --   1652.9154              1655.3151              1673.3953
 Red. masses --      5.5885                 3.1772                 5.7153
 Frc consts  --      8.9960                 5.1293                 9.4295
 IR Inten    --      7.0452                10.3528                 3.8448

                     94                     95                     96
                      A                      A                      A
 Frequencies --   1676.2048              3027.6093              3079.2299
 Red. masses --      5.6955                 1.0474                 1.0340
 Frc consts  --      9.4284                 5.6567                 5.7763
 IR Inten    --      1.2953               117.8207                35.2057

                     97                     98                     99
                      A                      A                      A
 Frequencies --   3108.8438              3147.5437              3163.6628
 Red. masses --      1.0876                 1.1043                 1.1040
 Frc consts  --      6.1934                 6.4456                 6.5100
 IR Inten    --     50.9167                30.9632                 1.4508

                    100                    101                    102
                      A                      A                      A
 Frequencies --   3189.7705              3197.7395              3199.3873
 Red. masses --      1.1060                 1.0862                 1.0862
 Frc consts  --      6.6303                 6.5441                 6.5508
 IR Inten    --      9.3213                 0.0728                 0.7049

                    103                    104                    105
                      A                      A                      A
 Frequencies --   3206.7591              3207.8760              3217.9913
 Red. masses --      1.0902                 1.0894                 1.0927
 Frc consts  --      6.6053                 6.6047                 6.6669
 IR Inten    --     14.3869                 6.5447                19.0891

                    106                    107                    108
                      A                      A                      A
 Frequencies --   3218.5007              3224.7034              3228.3655
 Red. masses --      1.0943                 1.0954                 1.0939
 Frc consts  --      6.6789                 6.7111                 6.7170
 IR Inten    --     24.0858                25.5296                12.0905

                    109                    110                    111
                      A                      A                      A
 Frequencies --   3232.3680              3232.4922              3248.7945
 Red. masses --      1.0950                 1.0936                 1.0866
 Frc consts  --      6.7406                 6.7329                 6.7573
 IR Inten    --     13.8633                 0.9643                20.1564

                    112                    113                    114
                      A                      A                      A
 Frequencies --   3483.0478              3577.7514              3626.5976
 Red. masses --      1.0537                 1.0938                 1.0753
 Frc consts  --      7.5317                 8.2488                 8.3328
 IR Inten    --     34.5580                78.6018                96.0019

 - Thermochemistry -
 -------------------
 Temperature   298.150 Kelvin.  Pressure   1.00000 Atm.
 Atom     1 has atomic number  6 and mass  12.00000

 Molecular mass:   268.15756 amu.
 Principal axes and moments of inertia in atomic units:
                           1         2         3
     Eigenvalues --  4066.868786063.447588311.22193
           X            0.99990   0.01367   0.00352
           Y           -0.01361   0.99976  -0.01737
           Z           -0.00376   0.01732   0.99984
 This molecule is an asymmetric top.
 Rotational symmetry number  1.
 Warning -- assumption of classical behavior for rotation
           may cause significant error
 Rotational temperatures (Kelvin)      0.02130     0.01428     0.01042
 Rotational constants (GHZ):           0.44377     0.29764     0.21715
    1 imaginary frequencies ignored.
 Zero-point vibrational energy     894117.7 (Joules/Mol)
                                  213.69925 (Kcal/Mol)
 Warning -- explicit consideration of  27 degrees of freedom as
           vibrations may cause significant error
 Vibrational temperatures:     44.61    68.67    84.37    95.45   126.60
          (Kelvin)            143.19   154.04   199.54   217.85   255.36
                              263.37   311.91   344.79   383.89   388.29
                              420.53   453.37   485.53   518.56   562.20
                              601.39   613.38   716.85   753.20   759.64
                              857.28   891.66   916.35   920.24   937.68
                              949.90  1033.25  1041.89  1046.35  1058.40
                             1127.49  1144.45  1164.68  1205.20  1255.85
                             1268.87  1307.79  1344.49  1398.91  1401.81
                             1460.82  1471.32  1473.87  1477.71  1488.12
                             1491.38  1516.40  1531.89  1539.90  1547.61
                             1602.67  1608.70  1620.86  1631.63  1655.55
                             1677.46  1697.66  1707.54  1710.14  1759.71
                             1761.79  1781.48  1832.70  1860.82  1888.99
                             1903.12  1932.21  1967.08  1971.12  1984.58
                             2040.93  2082.07  2091.96  2125.48  2142.15
                             2150.15  2154.96  2159.24  2168.04  2198.26
                             2219.54  2225.95  2328.94  2354.39  2378.18
                             2381.63  2407.64  2411.68  4356.05  4430.33
                             4472.93  4528.61  4551.81  4589.37  4600.83
                             4603.20  4613.81  4615.42  4629.97  4630.70
                             4639.63  4644.90  4650.66  4650.84  4674.29
                             5011.33  5147.59  5217.87

 Zero-point correction=                           0.340551 (Hartree/Particle)
 Thermal correction to Energy=                    0.359038
 Thermal correction to Enthalpy=                  0.359982
 Thermal correction to Gibbs Free Energy=         0.293483
 Sum of electronic and zero-point Energies=           -844.234535
 Sum of electronic and thermal Energies=              -844.216049
 Sum of electronic and thermal Enthalpies=            -844.215104
 Sum of electronic and thermal Free Energies=         -844.281604

                     E (Thermal)             CV                S
                      KCal/Mol        Cal/Mol-Kelvin    Cal/Mol-Kelvin
 Total                  225.300             71.371            139.960
 Electronic               0.000              0.000              0.000
 Translational            0.889              2.981             42.658
 Rotational               0.889              2.981             33.682
 Vibrational            223.522             65.409             63.619
 Vibration     1          0.594              1.984              5.764
 Vibration     2          0.595              1.978              4.909
 Vibration     3          0.596              1.974              4.502
 Vibration     4          0.598              1.970              4.259
 Vibration     5          0.601              1.958              3.704
 Vibration     6          0.604              1.949              3.464
 Vibration     7          0.606              1.944              3.322
 Vibration     8          0.614              1.915              2.822
 Vibration     9          0.619              1.901              2.654
 Vibration    10          0.628              1.870              2.355
 Vibration    11          0.631              1.863              2.297
 Vibration    12          0.646              1.815              1.986
 Vibration    13          0.657              1.780              1.806
 Vibration    14          0.672              1.734              1.617
 Vibration    15          0.674              1.729              1.597
 Vibration    16          0.688              1.688              1.461
 Vibration    17          0.702              1.645              1.335
 Vibration    18          0.718              1.601              1.224
 Vibration    19          0.735              1.554              1.120
 Vibration    20          0.758              1.490              0.997
 Vibration    21          0.781              1.431              0.899
 Vibration    22          0.788              1.413              0.871
 Vibration    23          0.854              1.254              0.663
 Vibration    24          0.878              1.198              0.602
 Vibration    25          0.883              1.188              0.592
 Vibration    26          0.954              1.041              0.457
 Vibration    27          0.980              0.990              0.417

 Optimization completed.
    -- Stationary point found.
 Normal termination of Gaussian 16 at Mon Feb  1 10:24:06 2021.
