 Gaussian 16, Revision A.03,
 Gaussian 16:  ES64L-G16RevA.03 25-Dec-2016

 ----------------------------------------------------------------------
 # wB97XD def2tzvp, opt=(ts, noeigen, calcfc, maxcycles=70, maxstep=8),
  freq=noraman, scrf=(iefpcm, solvent=water)
 ----------------------------------------------------------------------

 ------------------------
 1_iteration/TS-137-1.out
 ------------------------
 Symbolic Z-matrix:
 Charge =  0 Multiplicity = 1

 SCF Done:  E(RwB97XD) =  -3131.76050522     A.U. after   15 cycles
 SCF Done:  E(RwB97XD) =  -3131.76057550     A.U. after   12 cycles
 SCF Done:  E(RwB97XD) =  -3131.76058809     A.U. after   11 cycles
 SCF Done:  E(RwB97XD) =  -3131.76059215     A.U. after   10 cycles
 SCF Done:  E(RwB97XD) =  -3131.76059230     A.U. after    9 cycles
 SCF Done:  E(RwB97XD) =  -3131.76059176     A.U. after    8 cycles
 Optimization completed.
    -- Stationary point found.
 Normal termination of Gaussian 16 at Sun Feb  7 00:47:43 2021.

 ---------------------------------------------------------------------
 #N Geom=AllCheck Guess=TCheck SCRF=Check GenChk RwB97XD/def2TZVP Freq
 ---------------------------------------------------------------------

 Structure from the checkpoint file:  "/beegfs/scratch/user/q/tla25/Gau-88147.chk"
 ------------------------
 1_iteration/TS-137-1.out
 ------------------------
 Charge =  0 Multiplicity = 1

                         Standard orientation:
 ---------------------------------------------------------------------
 Center     Atomic      Atomic             Coordinates (Angstroms)
 Number     Number       Type             X           Y           Z
 ---------------------------------------------------------------------
      1          6           0        1.226150   -1.028944   -0.339900
      2          6           0        2.585450   -0.820023   -0.669825
      3          8           0        3.381214   -1.702031   -1.015490
      4          6           0        0.391469    0.004600    0.105572
      5          6           0        0.615947   -0.981656    2.734702
      6          1           0        1.213598   -1.738978    2.231072
      7          1           0        0.991561   -0.845784    3.747996
      8          1           0       -0.420717   -1.308641    2.772487
      9          7           0        0.712134    0.261255    1.969692
     10          1           0        0.175404    1.014546    2.387874
     11          1           0        1.676138    0.574746    1.929075
     12          6           0       -1.099340   -0.141303   -0.024365
     13          6           0       -2.026053    0.155336    0.968158
     14          6           0       -3.386684    0.023594    0.728434
     15          6           0       -3.843999   -0.393218   -0.510222
     16          6           0       -2.928216   -0.677263   -1.513632
     17          6           0       -1.572080   -0.552809   -1.272002
     18          1           0       -1.719732    0.494524    1.946079
     19          1           0       -4.088555    0.252148    1.519907
     20          1           0       -4.905755   -0.493496   -0.694660
     21          1           0       -3.269793   -0.997955   -2.489374
     22          1           0       -0.862419   -0.772166   -2.058863
     23         35           0        0.865269    1.859986   -0.406409
     24          6           0        0.725103   -2.455920   -0.369615
     25          1           0        1.475015   -3.119608    0.065862
     26          1           0       -0.201918   -2.582504    0.187332
     27          1           0        0.545995   -2.805415   -1.391001
     28          1           0        2.945633    0.222172   -0.617220
 ---------------------------------------------------------------------

 SCF Done:  E(RwB97XD) =  -3131.76059176     A.U. after    1 cycles

 The electronic state is 1-A.
 Alpha  occ. eigenvalues -- -483.13232 -62.68068 -56.47183 -56.46833 -56.46822
 Alpha  occ. eigenvalues --  -19.20471 -14.49948 -10.40768 -10.33809 -10.32236
 Alpha  occ. eigenvalues --  -10.31816 -10.30282 -10.29842 -10.29719 -10.29653
 Alpha  occ. eigenvalues --  -10.29597 -10.27133 -10.26541  -8.82161  -6.64297
 Alpha  occ. eigenvalues --   -6.63194  -6.63155  -2.74679  -2.74375  -2.74344
 Alpha  occ. eigenvalues --   -2.73452  -2.73451  -1.10491  -1.05376  -0.98363
 Alpha  occ. eigenvalues --   -0.93752  -0.86895  -0.86230  -0.85731  -0.79692
 Alpha  occ. eigenvalues --   -0.77410  -0.74769  -0.71495  -0.68445  -0.65044
 Alpha  occ. eigenvalues --   -0.61762  -0.59913  -0.58391  -0.57650  -0.56371
 Alpha  occ. eigenvalues --   -0.54499  -0.53668  -0.52507  -0.51600  -0.49930
 Alpha  occ. eigenvalues --   -0.49151  -0.48385  -0.47521  -0.46367  -0.45463
 Alpha  occ. eigenvalues --   -0.44967  -0.44002  -0.43505  -0.43072  -0.38717
 Alpha  occ. eigenvalues --   -0.37675  -0.34515  -0.33555  -0.31733  -0.27666
 Alpha virt. eigenvalues --    0.01543   0.03757   0.04573   0.07396   0.10004
 Alpha virt. eigenvalues --    0.12432   0.13321   0.14173   0.14819   0.15695
 Alpha virt. eigenvalues --    0.16426   0.17026   0.18315   0.18770   0.19251

 Mulliken charges:
               1
     1  C   -0.163647
     2  C    0.079009
     3  O   -0.519644
     4  C    0.155331
     5  C   -0.301196
     6  H    0.164652
     7  H    0.166247
     8  H    0.163355
     9  N   -0.302325
    10  H    0.289583
    11  H    0.285275
    12  C    0.188223
    13  C   -0.213992
    14  C   -0.158365
    15  C   -0.144501
    16  C   -0.121360
    17  C   -0.267757
    18  H    0.142308
    19  H    0.147345
    20  H    0.148374
    21  H    0.147568
    22  H    0.166358
    23  Br  -0.121868
    24  C   -0.416130
    25  H    0.134978
    26  H    0.149861
    27  H    0.127942
    28  H    0.074375
 Sum of Mulliken charges =  -0.00000

 Dipole moment (field-independent basis, Debye):
    X=             -7.0329    Y=              3.0140    Z=              8.0160  Tot=             11.0816
 Quadrupole moment (field-independent basis, Debye-Ang):
   XX=           -110.5887   YY=           -105.8337   ZZ=            -80.3245
   XY=             15.0108   XZ=             12.9359   YZ=             -0.9718

  Exact polarizability: 272.608 -10.049 208.528 -20.426  22.691 222.785
 Approx polarizability: 209.716  -6.667 171.844 -14.516  18.498 188.487

 ******    1 imaginary frequencies (negative Signs) ******

                      1                      2                      3
                      A                      A                      A
 Frequencies --   -369.1717                25.3127                61.1982
 Red. masses --      5.2891                 3.5388                 5.7293
 Frc consts  --      0.4247                 0.0013                 0.0126
 IR Inten    --    868.1623                 1.7783                 6.5323

                      4                      5                      6
                      A                      A                      A
 Frequencies --     79.2980               114.4926               131.4140
 Red. masses --      5.4997                 3.1917                 2.0942
 Frc consts  --      0.0204                 0.0247                 0.0213
 IR Inten    --      0.2582                 1.4213                 2.0084

                      7                      8                      9
                      A                      A                      A
 Frequencies --    152.0976               155.1308               175.1005
 Red. masses --      3.9833                 1.2077                 3.7906
 Frc consts  --      0.0543                 0.0171                 0.0685
 IR Inten    --      4.9088                 1.3307                 6.0943

                     10                     11                     12
                      A                      A                      A
 Frequencies --    193.1360               237.4088               253.5744
 Red. masses --      1.7340                 2.1995                 4.8266
 Frc consts  --      0.0381                 0.0730                 0.1829
 IR Inten    --      1.4598                 1.4258                 4.7456

                     13                     14                     15
                      A                      A                      A
 Frequencies --    280.8294               285.8369               299.4743
 Red. masses --      3.4066                 3.5547                 3.1378
 Frc consts  --      0.1583                 0.1711                 0.1658
 IR Inten    --     19.7390                32.9922                 9.8801

                     16                     17                     18
                      A                      A                      A
 Frequencies --    335.7382               362.1267               407.0878
 Red. masses --      3.8276                 5.1453                 2.8078
 Frc consts  --      0.2542                 0.3975                 0.2742
 IR Inten    --     33.0166                 6.3473                 5.7451

                     19                     20                     21
                      A                      A                      A
 Frequencies --    420.8618               520.3190               569.7100
 Red. masses --      2.8617                 3.4893                 3.2268
 Frc consts  --      0.2986                 0.5566                 0.6171
 IR Inten    --      1.5782                 0.4339               147.4853

                     22                     23                     24
                      A                      A                      A
 Frequencies --    633.9514               648.6319               697.0240
 Red. masses --      5.4635                 5.7392                 2.5090
 Frc consts  --      1.2937                 1.4227                 0.7182
 IR Inten    --     11.9127                76.2650                51.1830

                     25                     26                     27
                      A                      A                      A
 Frequencies --    719.4491               723.8855               792.5477
 Red. masses --      2.1563                 1.6426                 2.3171
 Frc consts  --      0.6576                 0.5071                 0.8575
 IR Inten    --     22.6029               235.9368                54.0556

                     28                     29                     30
                      A                      A                      A
 Frequencies --    857.1023               870.8869               917.6315
 Red. masses --      3.8739                 1.2706                 3.3073
 Frc consts  --      1.6767                 0.5678                 1.6408
 IR Inten    --     89.7862                 3.1436                 2.7794

                     31                     32                     33
                      A                      A                      A
 Frequencies --    960.6768               998.5241              1014.4972
 Red. masses --      1.4692                 1.1509                 1.4388
 Frc consts  --      0.7989                 0.6761                 0.8725
 IR Inten    --      0.6673                24.0872                53.3324

                     34                     35                     36
                      A                      A                      A
 Frequencies --   1018.1680              1025.0850              1033.1431
 Red. masses --      1.5218                 4.8345                 1.6083
 Frc consts  --      0.9295                 2.9931                 1.0114
 IR Inten    --     77.7489                 3.0213               139.5415

                     37                     38                     39
                      A                      A                      A
 Frequencies --   1035.4003              1063.5424              1065.7774
 Red. masses --      1.3597                 1.8096                 1.5967
 Frc consts  --      0.8588                 1.2060                 1.0686
 IR Inten    --     19.9787                 5.2025                 0.2365

                     40                     41                     42
                      A                      A                      A
 Frequencies --   1069.5080              1077.6971              1126.8843
 Red. masses --      1.9572                 1.8407                 1.5683
 Frc consts  --      1.3190                 1.2596                 1.1734
 IR Inten    --      5.5688               132.9685                 7.1545

                     43                     44                     45
                      A                      A                      A
 Frequencies --   1187.4362              1218.2478              1221.7560
 Red. masses --      1.1332                 1.5755                 1.7584
 Frc consts  --      0.9414                 1.3777                 1.5464
 IR Inten    --      0.1383                32.6074                43.1085

                     46                     47                     48
                      A                      A                      A
 Frequencies --   1245.2061              1318.1120              1340.9446
 Red. masses --      1.4448                 4.4407                 1.3316
 Frc consts  --      1.3199                 4.5457                 1.4107
 IR Inten    --     24.8556                12.1953                25.7027

                     49                     50                     51
                      A                      A                      A
 Frequencies --   1352.3013              1363.9279              1385.1991
 Red. masses --      3.3635                 1.4681                 2.8409
 Frc consts  --      3.6240                 1.6091                 3.2116
 IR Inten    --    278.0992                44.8442               596.8622

                     52                     53                     54
                      A                      A                      A
 Frequencies --   1411.1463              1457.3059              1472.5901
 Red. masses --      1.2299                 1.1968                 1.4020
 Frc consts  --      1.4430                 1.4975                 1.7913
 IR Inten    --     41.0737                10.5763                53.4718

                     55                     56                     57
                      A                      A                      A
 Frequencies --   1475.5215              1490.3387              1495.2720
 Red. masses --      1.0738                 2.1322                 1.0401
 Frc consts  --      1.3774                 2.7903                 1.3702
 IR Inten    --     26.1249                33.4174                10.4166

                     58                     59                     60
                      A                      A                      A
 Frequencies --   1504.4735              1511.9395              1545.4297
 Red. masses --      1.0417                 1.3787                 2.3258
 Frc consts  --      1.3892                 1.8569                 3.2727
 IR Inten    --      6.9507               231.3582                24.9484

                     61                     62                     63
                      A                      A                      A
 Frequencies --   1638.6909              1649.8017              1656.5426
 Red. masses --      1.2105                 4.1295                 5.6814
 Frc consts  --      1.9151                 6.6223                 9.1856
 IR Inten    --    145.9795               674.0898               382.1453

                     64                     65                     66
                      A                      A                      A
 Frequencies --   1674.4818              2964.2808              3034.8016
 Red. masses --      5.8425                 1.0819                 1.0429
 Frc consts  --      9.6519                 5.6009                 5.6592
 IR Inten    --      1.3676               111.7918                74.3443

                     67                     68                     69
                      A                      A                      A
 Frequencies --   3079.5126              3092.8781              3142.2671
 Red. masses --      1.0332                 1.0959                 1.0994
 Frc consts  --      5.7728                 6.1767                 6.3958
 IR Inten    --     32.0956                40.1713                28.3519

                     70                     71                     72
                      A                      A                      A
 Frequencies --   3161.1368              3178.5186              3200.9039
 Red. masses --      1.1048                 1.1058                 1.0863
 Frc consts  --      6.5044                 6.5825                 6.5576
 IR Inten    --      8.4134                10.2706                 0.3248

                     73                     74                     75
                      A                      A                      A
 Frequencies --   3209.3801              3218.4217              3226.0452
 Red. masses --      1.0895                 1.0934                 1.0976
 Frc consts  --      6.6116                 6.6729                 6.7305
 IR Inten    --      4.5213                19.4916                20.2068

                     76                     77                     78
                      A                      A                      A
 Frequencies --   3243.5729              3507.5528              3587.0853
 Red. masses --      1.0928                 1.0518                 1.0959
 Frc consts  --      6.7737                 7.6239                 8.3080
 IR Inten    --     16.7789                38.1718                43.4937

 - Thermochemistry -
 -------------------
 Temperature   298.150 Kelvin.  Pressure   1.00000 Atm.
 Atom     1 has atomic number  6 and mass  12.00000

 Molecular mass:   255.02588 amu.
 Principal axes and moments of inertia in atomic units:
                           1         2         3
     Eigenvalues --  2754.339714457.184295036.38768
           X            0.99933  -0.03155   0.01857
           Y            0.03076   0.99868   0.04116
           Z           -0.01985  -0.04056   0.99898
 This molecule is an asymmetric top.
 Rotational symmetry number  1.
 Warning -- assumption of classical behavior for rotation
           may cause significant error
 Rotational temperatures (Kelvin)      0.03145     0.01943     0.01720
 Rotational constants (GHZ):           0.65524     0.40491     0.35834
    1 imaginary frequencies ignored.
 Zero-point vibrational energy     603355.6 (Joules/Mol)
                                  144.20546 (Kcal/Mol)
 Warning -- explicit consideration of  20 degrees of freedom as
           vibrations may cause significant error
 Vibrational temperatures:     36.42    88.05   114.09   164.73   189.08
          (Kelvin)            218.83   223.20   251.93   277.88   341.58
                              364.84   404.05   411.26   430.88   483.05
                              521.02   585.71   605.53   748.62   819.69
                              912.11   933.24  1002.86  1035.13  1041.51
                             1140.30  1233.18  1253.01  1320.27  1382.20
                             1436.65  1459.64  1464.92  1474.87  1486.46
                             1489.71  1530.20  1533.42  1538.78  1550.57
                             1621.34  1708.46  1752.79  1757.83  1791.57
                             1896.47  1929.32  1945.66  1962.39  1992.99
                             2030.32  2096.74  2118.73  2122.95  2144.26
                             2151.36  2164.60  2175.34  2223.53  2357.71
                             2373.70  2383.40  2409.21  4264.94  4366.40
                             4430.73  4449.96  4521.02  4548.17  4573.18
                             4605.39  4617.58  4630.59  4641.56  4666.78
                             5046.59  5161.02

 Zero-point correction=                           0.229806 (Hartree/Particle)
 Thermal correction to Energy=                    0.244339
 Thermal correction to Enthalpy=                  0.245284
 Thermal correction to Gibbs Free Energy=         0.187139
 Sum of electronic and zero-point Energies=          -3131.530786
 Sum of electronic and thermal Energies=             -3131.516252
 Sum of electronic and thermal Enthalpies=           -3131.515308
 Sum of electronic and thermal Free Energies=        -3131.573453

                     E (Thermal)             CV                S
                      KCal/Mol        Cal/Mol-Kelvin    Cal/Mol-Kelvin
 Total                  153.325             53.096            122.376
 Electronic               0.000              0.000              0.000
 Translational            0.889              2.981             42.509
 Rotational               0.889              2.981             32.492
 Vibrational            151.548             47.134             47.375
 Vibration     1          0.593              1.985              6.167
 Vibration     2          0.597              1.973              4.418
 Vibration     3          0.600              1.963              3.908
 Vibration     4          0.607              1.937              3.191
 Vibration     5          0.612              1.922              2.925
 Vibration     6          0.619              1.900              2.646
 Vibration     7          0.620              1.897              2.608
 Vibration     8          0.627              1.873              2.380
 Vibration     9          0.635              1.849              2.198
 Vibration    10          0.656              1.783              1.822
 Vibration    11          0.665              1.757              1.706
 Vibration    12          0.681              1.709              1.529
 Vibration    13          0.684              1.700              1.498
 Vibration    14          0.692              1.675              1.420
 Vibration    15          0.717              1.604              1.232
 Vibration    16          0.736              1.550              1.113
 Vibration    17          0.772              1.455              0.937
 Vibration    18          0.783              1.425              0.889
 Vibration    19          0.875              1.205              0.609
 Vibration    20          0.926              1.097              0.505

 Optimization completed.
    -- Stationary point found.
 Normal termination of Gaussian 16 at Sun Feb  7 01:41:34 2021.
