 Gaussian 16, Revision A.03,
 Gaussian 16:  ES64L-G16RevA.03 25-Dec-2016

 ----------------------------------------------------------------------
 # wB97XD def2tzvp, opt=(ts, noeigen, calcfc, maxcycles=70, maxstep=5),
  freq=noraman, scrf=(iefpcm, solvent=water)
 ----------------------------------------------------------------------

 -------------------------
 2_iteration/TS-1000-2.out
 -------------------------
 Symbolic Z-matrix:
 Charge =  0 Multiplicity = 1

 SCF Done:  E(RwB97XD) =  -1897.65149448     A.U. after   15 cycles
 SCF Done:  E(RwB97XD) =  -1897.65149443     A.U. after    8 cycles
 Optimization completed.
    -- Stationary point found.
 Normal termination of Gaussian 16 at Sun Feb 28 22:23:15 2021.

 ---------------------------------------------------------------------
 #N Geom=AllCheck Guess=TCheck SCRF=Check GenChk RwB97XD/def2TZVP Freq
 ---------------------------------------------------------------------

 Structure from the checkpoint file:  "/beegfs/scratch/user/q/tla25/Gau-37334.chk"
 -------------------------
 2_iteration/TS-1000-2.out
 -------------------------
 Charge =  0 Multiplicity = 1

                         Standard orientation:
 ---------------------------------------------------------------------
 Center     Atomic      Atomic             Coordinates (Angstroms)
 Number     Number       Type             X           Y           Z
 ---------------------------------------------------------------------
      1          6           0        0.919405    0.835740   -0.075645
      2          6           0       -0.365850    1.494311    0.009030
      3          8           0       -0.464860    2.713873    0.085154
      4          6           0        1.187694   -0.481074   -0.445614
      5          6           0        1.639339   -1.119136    2.283601
      6          1           0        1.198633   -0.131213    2.420644
      7          1           0        1.428960   -1.727713    3.162629
      8          1           0        2.715480   -1.012457    2.165315
      9          7           0        1.081080   -1.716548    1.078275
     10          1           0        0.091210   -1.914746    1.179069
     11          1           0        1.550609   -2.578068    0.821758
     12         17           0        2.830496   -0.875122   -0.923043
     13         17           0        0.048779   -1.340359   -1.472651
     14         17           0        2.270995    1.872103    0.324610
     15          6           0       -1.632422    0.689765    0.067054
     16          6           0       -2.593209    0.838124   -0.926661
     17          6           0       -3.786551    0.139756   -0.848437
     18          6           0       -4.040369   -0.690106    0.236579
     19          6           0       -3.100057   -0.810304    1.248517
     20          6           0       -1.897476   -0.123391    1.161853
     21          1           0       -2.394207    1.486558   -1.770725
     22          1           0       -4.523261    0.243639   -1.634837
     23          1           0       -4.974727   -1.233228    0.296961
     24          1           0       -3.301564   -1.435991    2.108467
     25          1           0       -1.177450   -0.196614    1.968331
 ---------------------------------------------------------------------

 SCF Done:  E(RwB97XD) =  -1897.65149443     A.U. after    1 cycles

 The electronic state is 1-A.
 Alpha  occ. eigenvalues -- -101.72045-101.72010-101.69571 -19.22988 -14.49617
 Alpha  occ. eigenvalues --  -10.46719 -10.38081 -10.33651 -10.32356 -10.30671
 Alpha  occ. eigenvalues --  -10.30016 -10.29698 -10.29698 -10.29591 -10.29519
 Alpha  occ. eigenvalues --   -9.60631  -9.60592  -9.58096  -7.35327  -7.35285
 Alpha  occ. eigenvalues --   -7.34379  -7.34351  -7.34350  -7.34303  -7.32762
 Alpha  occ. eigenvalues --   -7.31866  -7.31851  -1.14148  -1.06400  -1.02064
 Alpha  occ. eigenvalues --   -0.97427  -0.96200  -0.94317  -0.87599  -0.85892
 Alpha  occ. eigenvalues --   -0.83305  -0.79708  -0.74777  -0.71347  -0.70039
 Alpha  occ. eigenvalues --   -0.64650  -0.64172  -0.61388  -0.59058  -0.58237
 Alpha  occ. eigenvalues --   -0.57167  -0.56242  -0.55533  -0.53818  -0.51937
 Alpha  occ. eigenvalues --   -0.51748  -0.50787  -0.49672  -0.48945  -0.47984
 Alpha  occ. eigenvalues --   -0.46944  -0.44973  -0.44194  -0.43491  -0.42828
 Alpha  occ. eigenvalues --   -0.42212  -0.41164  -0.39514  -0.38555  -0.35329
 Alpha  occ. eigenvalues --   -0.34505  -0.32917  -0.29518
 Alpha virt. eigenvalues --    0.00599   0.03662   0.04527   0.06065   0.06475
 Alpha virt. eigenvalues --    0.10377   0.13130   0.13403   0.14223   0.15158
 Alpha virt. eigenvalues --    0.15866   0.16320   0.17367   0.18188   0.18873

 Mulliken charges:
               1
     1  C   -0.209206
     2  C    0.235867
     3  O   -0.435308
     4  C    0.187710
     5  C   -0.307714
     6  H    0.162000
     7  H    0.169556
     8  H    0.165979
     9  N   -0.343974
    10  H    0.284438
    11  H    0.295929
    12  Cl  -0.031095
    13  Cl  -0.029444
    14  Cl  -0.134139
    15  C    0.131709
    16  C   -0.216070
    17  C   -0.132273
    18  C   -0.148142
    19  C   -0.131163
    20  C   -0.292258
    21  H    0.144783
    22  H    0.147422
    23  H    0.148078
    24  H    0.146428
    25  H    0.190888
 Sum of Mulliken charges =  -0.00000

 Dipole moment (field-independent basis, Debye):
    X=             -0.5067    Y=            -10.4509    Z=              3.5203  Tot=             11.0395
 Quadrupole moment (field-independent basis, Debye-Ang):
   XX=           -100.0275   YY=           -116.8987   ZZ=            -98.1592
   XY=             -2.2148   XZ=              6.5114   YZ=            -10.3291

  Exact polarizability: 263.707   6.193 241.889  14.297 -17.438 202.663
 Approx polarizability: 208.719   8.147 206.755  11.446 -13.382 178.234

 ******    1 imaginary frequencies (negative Signs) ******

                      1                      2                      3
                      A                      A                      A
 Frequencies --   -359.8773                39.8756                52.0222
 Red. masses --      5.9539                 7.0766                 5.8389
 Frc consts  --      0.4543                 0.0066                 0.0093
 IR Inten    --    882.0139                 2.4667                 3.1250

                      4                      5                      6
                      A                      A                      A
 Frequencies --     73.0498                76.8886               106.2842
 Red. masses --      8.0271                 4.2310                 4.0540
 Frc consts  --      0.0252                 0.0147                 0.0270
 IR Inten    --      2.2870                 1.4549                 0.2713

                      7                      8                      9
                      A                      A                      A
 Frequencies --    142.5230               169.1987               193.7063
 Red. masses --      4.0446                 8.7423                 1.6225
 Frc consts  --      0.0484                 0.1475                 0.0359
 IR Inten    --      5.6299                 3.5256                 0.7371

                     10                     11                     12
                      A                      A                      A
 Frequencies --    194.0395               232.3380               241.2501
 Red. masses --      2.5154                10.3957                 5.8418
 Frc consts  --      0.0558                 0.3306                 0.2003
 IR Inten    --      6.5777                 0.8273                 1.8692

                     13                     14                     15
                      A                      A                      A
 Frequencies --    250.7821               270.5998               305.7541
 Red. masses --      3.3028                 8.9350                 4.9596
 Frc consts  --      0.1224                 0.3855                 0.2732
 IR Inten    --      2.5378                28.3036                10.6076

                     16                     17                     18
                      A                      A                      A
 Frequencies --    312.1846               359.9314               389.2571
 Red. masses --      7.0842                 9.8107                 6.7008
 Frc consts  --      0.4068                 0.7488                 0.5982
 IR Inten    --      4.8502                 4.9065                17.8601

                     19                     20                     21
                      A                      A                      A
 Frequencies --    421.4141               439.9944               523.0175
 Red. masses --      2.9552                10.9598                 7.8223
 Frc consts  --      0.3092                 1.2501                 1.2607
 IR Inten    --      1.4503                 4.7963               149.4713

                     22                     23                     24
                      A                      A                      A
 Frequencies --    566.5707               635.6959               653.6944
 Red. masses --      4.4122                 6.3818                 1.9901
 Frc consts  --      0.8345                 1.5195                 0.5010
 IR Inten    --      5.4353                 0.4419                 8.7417

                     25                     26                     27
                      A                      A                      A
 Frequencies --    676.7708               729.8635               762.0721
 Red. masses --      2.5647                 1.6775                 4.3759
 Frc consts  --      0.6921                 0.5265                 1.4973
 IR Inten    --    117.9646                84.7011                45.1172

                     28                     29                     30
                      A                      A                      A
 Frequencies --    791.4892               822.0947               830.4617
 Red. masses --      4.9807                 4.0257                 6.2062
 Frc consts  --      1.8384                 1.6030                 2.5218
 IR Inten    --     86.7898               173.2162               192.9361

                     31                     32                     33
                      A                      A                      A
 Frequencies --    882.4976               898.9207               963.3325
 Red. masses --      1.2773                 5.0278                 1.4575
 Frc consts  --      0.5861                 2.3937                 0.7969
 IR Inten    --      1.3721                35.2566                18.5368

                     34                     35                     36
                      A                      A                      A
 Frequencies --   1005.6823              1014.9502              1027.7182
 Red. masses --      1.1447                 1.4070                 4.1040
 Frc consts  --      0.6821                 0.8540                 2.5539
 IR Inten    --     18.5857                 6.8370                 4.7777

                     37                     38                     39
                      A                      A                      A
 Frequencies --   1033.6116              1040.5632              1059.7143
 Red. masses --      1.3295                 1.1435                 2.2738
 Frc consts  --      0.8368                 0.7295                 1.5045
 IR Inten    --      3.0001                80.1312                11.1619

                     40                     41                     42
                      A                      A                      A
 Frequencies --   1082.0364              1113.3480              1154.4698
 Red. masses --      5.1301                 1.5484                 4.2285
 Frc consts  --      3.5388                 1.1309                 3.3204
 IR Inten    --     40.3793                18.9918                77.5271

                     43                     44                     45
                      A                      A                      A
 Frequencies --   1186.0111              1207.6038              1223.1133
 Red. masses --      1.1434                 1.1236                 1.4020
 Frc consts  --      0.9476                 0.9654                 1.2358
 IR Inten    --      0.1030                 3.4486                20.6038

                     46                     47                     48
                      A                      A                      A
 Frequencies --   1316.7143              1332.9380              1342.2001
 Red. masses --      4.3084                 6.0252                 1.3339
 Frc consts  --      4.4010                 6.3073                 1.4158
 IR Inten    --    246.7375               314.8502                 5.5419

                     49                     50                     51
                      A                      A                      A
 Frequencies --   1360.0552              1378.0887              1466.4756
 Red. masses --      1.4656                 8.7938                 1.2015
 Frc consts  --      1.5972                 9.8397                 1.5224
 IR Inten    --      7.1756              1174.5100                14.3754

                     52                     53                     54
                      A                      A                      A
 Frequencies --   1490.8298              1492.9937              1504.4823
 Red. masses --      2.1855                 1.0504                 1.0305
 Frc consts  --      2.8619                 1.3795                 1.3743
 IR Inten    --     12.3010                23.1313                14.0201

                     55                     56                     57
                      A                      A                      A
 Frequencies --   1541.9406              1648.2696              1650.8780
 Red. masses --      2.3246                 1.1107                 5.3404
 Frc consts  --      3.2563                 1.7779                 8.5753
 IR Inten    --      5.2028                49.8210                32.3641

                     58                     59                     60
                      A                      A                      A
 Frequencies --   1672.9930              1675.3963              3069.8998
 Red. masses --     11.8684                 6.0329                 1.0331
 Frc consts  --     19.5718                 9.9772                 5.7365
 IR Inten    --    597.7482                33.0208                22.1788

                     61                     62                     63
                      A                      A                      A
 Frequencies --   3146.8422              3170.4968              3195.0248
 Red. masses --      1.1049                 1.1055                 1.0863
 Frc consts  --      6.4466                 6.5470                 6.5335
 IR Inten    --     10.2202                 9.7834                 4.8805

                     64                     65                     66
                      A                      A                      A
 Frequencies --   3199.3914              3207.7441              3215.4464
 Red. masses --      1.0878                 1.0913                 1.0953
 Frc consts  --      6.5603                 6.6160                 6.6722
 IR Inten    --      0.6268                 8.3650                32.3441

                     67                     68                     69
                      A                      A                      A
 Frequencies --   3224.8960              3515.4974              3600.9647
 Red. masses --      1.0989                 1.0506                 1.0967
 Frc consts  --      6.7336                 7.6497                 8.3784
 IR Inten    --     15.3239                62.7775                84.2130

 - Thermochemistry -
 -------------------
 Temperature   298.150 Kelvin.  Pressure   1.00000 Atm.
 Atom     1 has atomic number  6 and mass  12.00000

 Molecular mass:   264.98280 amu.
 Principal axes and moments of inertia in atomic units:
                           1         2         3
     Eigenvalues --  2692.700755485.134456186.05621
           X            0.99984  -0.00297   0.01741
           Y            0.00499   0.99316  -0.11667
           Z           -0.01694   0.11674   0.99302
 This molecule is an asymmetric top.
 Rotational symmetry number  1.
 Warning -- assumption of classical behavior for rotation
           may cause significant error
 Rotational temperatures (Kelvin)      0.03217     0.01579     0.01400
 Rotational constants (GHZ):           0.67023     0.32902     0.29174
    1 imaginary frequencies ignored.
 Zero-point vibrational energy     481956.6 (Joules/Mol)
                                  115.19040 (Kcal/Mol)
 Warning -- explicit consideration of  21 degrees of freedom as
           vibrations may cause significant error
 Vibrational temperatures:     57.37    74.85   105.10   110.63   152.92
          (Kelvin)            205.06   243.44   278.70   279.18   334.28
                              347.11   360.82   389.33   439.91   449.16
                              517.86   560.05   606.32   633.05   752.51
                              815.17   914.62   940.52   973.72  1050.11
                             1096.45  1138.78  1182.81  1194.85  1269.72
                             1293.35  1386.02  1446.95  1460.29  1478.66
                             1487.14  1497.14  1524.69  1556.81  1601.86
                             1661.02  1706.41  1737.47  1759.79  1894.46
                             1917.80  1931.13  1956.82  1982.76  2109.93
                             2144.97  2148.08  2164.61  2218.51  2371.49
                             2375.25  2407.06  2410.52  4416.90  4527.60
                             4561.64  4596.93  4603.21  4615.23  4626.31
                             4639.91  5058.02  5180.99

 Zero-point correction=                           0.183568 (Hartree/Particle)
 Thermal correction to Energy=                    0.198539
 Thermal correction to Enthalpy=                  0.199484
 Thermal correction to Gibbs Free Energy=         0.140225
 Sum of electronic and zero-point Energies=          -1897.467927
 Sum of electronic and thermal Energies=             -1897.452955
 Sum of electronic and thermal Enthalpies=           -1897.452011
 Sum of electronic and thermal Free Energies=        -1897.511270

                     E (Thermal)             CV                S
                      KCal/Mol        Cal/Mol-Kelvin    Cal/Mol-Kelvin
 Total                  124.585             54.039            124.720
 Electronic               0.000              0.000              0.000
 Translational            0.889              2.981             42.623
 Rotational               0.889              2.981             32.880
 Vibrational            122.808             48.077             49.218
 Vibration     1          0.594              1.981              5.265
 Vibration     2          0.596              1.977              4.739
 Vibration     3          0.599              1.967              4.069
 Vibration     4          0.599              1.965              3.969
 Vibration     5          0.605              1.944              3.336
 Vibration     6          0.616              1.911              2.770
 Vibration     7          0.625              1.880              2.444
 Vibration     8          0.635              1.849              2.192
 Vibration     9          0.635              1.848              2.189
 Vibration    10          0.653              1.791              1.861
 Vibration    11          0.658              1.777              1.794
 Vibration    12          0.663              1.761              1.725
 Vibration    13          0.674              1.727              1.592
 Vibration    14          0.696              1.663              1.385
 Vibration    15          0.701              1.650              1.351
 Vibration    16          0.734              1.555              1.122
 Vibration    17          0.757              1.493              1.003
 Vibration    18          0.784              1.424              0.887
 Vibration    19          0.800              1.383              0.827
 Vibration    20          0.878              1.199              0.603
 Vibration    21          0.922              1.104              0.511

 Optimization completed.
    -- Stationary point found.
 Normal termination of Gaussian 16 at Sun Feb 28 23:15:12 2021.
