 Gaussian 16, Revision A.03,
 Gaussian 16:  ES64L-G16RevA.03 25-Dec-2016

 ----------------------------------------------------------------------
 # wB97XD def2tzvp, opt=(ts, noeigen, calcfc, maxcycles=70, maxstep=5),
  freq=noraman, scrf=(iefpcm, solvent=water)
 ----------------------------------------------------------------------

 -----------------------
 2_iteration/TS-17-2.out
 -----------------------
 Symbolic Z-matrix:
 Charge =  0 Multiplicity = 1

 SCF Done:  E(RwB97XD) =  -789.197013032     A.U. after   14 cycles
 Optimization completed.
    -- Stationary point found.
 Normal termination of Gaussian 16 at Sun Jan 31 14:26:37 2021.

 ---------------------------------------------------------------------
 #N Geom=AllCheck Guess=TCheck SCRF=Check GenChk RwB97XD/def2TZVP Freq
 ---------------------------------------------------------------------

 Structure from the checkpoint file:  "/beegfs/scratch/user/q/tla25/Gau-4398.chk"
 -----------------------
 2_iteration/TS-17-2.out
 -----------------------
 Charge =  0 Multiplicity = 1

                         Standard orientation:
 ---------------------------------------------------------------------
 Center     Atomic      Atomic             Coordinates (Angstroms)
 Number     Number       Type             X           Y           Z
 ---------------------------------------------------------------------
      1          6           0        0.027583    1.660310   -0.632520
      2          6           0       -1.100065    2.483412   -0.689200
      3          8           0       -1.210323    3.591152   -1.260930
      4          6           0       -0.000499    0.453740    0.165970
      5          6           0        0.602274    2.249839    2.187720
      6          1           0        0.346085    2.537250    3.205390
      7          1           0        1.681674    2.250687    2.069110
      8          1           0        0.168755    2.954820    1.482640
      9          7           0        0.062952    0.915610    1.899990
     10          1           0        0.554531    0.207539    2.437100
     11          1           0       -0.909648    0.881752    2.189060
     12          6           0        1.225880   -0.433262   -0.023320
     13          6           0        1.183478   -1.396702   -1.030230
     14          6           0        2.282397   -2.192674   -1.305470
     15          6           0        3.451467   -2.049276   -0.571890
     16          6           0        3.507568   -1.094846    0.429390
     17          6           0        2.407140   -0.290964    0.694870
     18          1           0        0.279128   -1.524850   -1.610550
     19          1           0        2.221495   -2.931774   -2.094220
     20          1           0        4.309416   -2.675337   -0.780350
     21          1           0        4.412389   -0.964727    1.009200
     22          1           0        2.507841    0.459376    1.466020
     23          6           0       -1.260260   -0.413238    0.154290
     24          6           0       -2.141040   -0.387916   -0.923020
     25          6           0       -3.234672   -1.240244   -0.974560
     26          6           0       -3.466683   -2.146084    0.047370
     27          6           0       -2.581453   -2.205195    1.113460
     28          6           0       -1.487342   -1.357197    1.157470
     29          1           0       -1.958579    0.295984   -1.738870
     30          1           0       -3.903832   -1.195253   -1.824410
     31          1           0       -4.320905   -2.809722    0.008560
     32          1           0       -2.734265   -2.921115    1.910810
     33          1           0       -0.796732   -1.465118    1.984250
     34          6           0        1.318594    2.154278   -1.232300
     35          1           0        2.065345    2.433807   -0.479800
     36          1           0        1.792403    1.416257   -1.885200
     37          1           0        1.108066    3.044418   -1.824820
     38          1           0       -1.987436    2.103614   -0.144590
 ---------------------------------------------------------------------

 SCF Done:  E(RwB97XD) =  -789.197013032     A.U. after    1 cycles

 The electronic state is 1-A.
 Alpha  occ. eigenvalues --  -19.18241 -14.51464 -10.36704 -10.32488 -10.31928
 Alpha  occ. eigenvalues --  -10.31114 -10.31088 -10.29829 -10.29739 -10.29507
 Alpha  occ. eigenvalues --  -10.29445 -10.29401 -10.29389 -10.29347 -10.29325
 Alpha  occ. eigenvalues --  -10.29287 -10.29221 -10.25984 -10.24640  -1.07961
 Alpha  occ. eigenvalues --   -1.06838  -0.98306  -0.96889  -0.91712  -0.86070
 Alpha  occ. eigenvalues --   -0.85894  -0.85368  -0.84886  -0.80600  -0.77835
 Alpha  occ. eigenvalues --   -0.74229  -0.71450  -0.70684  -0.70238  -0.67416
 Alpha  occ. eigenvalues --   -0.65621  -0.62888  -0.61013  -0.59687  -0.58021
 Alpha  occ. eigenvalues --   -0.57403  -0.56348  -0.55579  -0.54389  -0.53682
 Alpha  occ. eigenvalues --   -0.52628  -0.51780  -0.51261  -0.51149  -0.49533
 Alpha  occ. eigenvalues --   -0.48271  -0.47846  -0.47691  -0.46950  -0.46394
 Alpha  occ. eigenvalues --   -0.44918  -0.44600  -0.43792  -0.42953  -0.42509
 Alpha  occ. eigenvalues --   -0.42150  -0.41846  -0.35050  -0.34368  -0.34187
 Alpha  occ. eigenvalues --   -0.32886  -0.30156  -0.25742
 Alpha virt. eigenvalues --    0.03221   0.03743   0.04581   0.05426   0.08615
 Alpha virt. eigenvalues --    0.10026   0.12342   0.13046   0.13466   0.13892
 Alpha virt. eigenvalues --    0.14683   0.15435   0.16481   0.16811   0.16960

 Mulliken charges:
               1
     1  C   -0.198392
     2  C    0.005183
     3  O   -0.579811
     4  C    0.479645
     5  C   -0.317597
     6  H    0.171394
     7  H    0.161460
     8  H    0.176652
     9  N   -0.279777
    10  H    0.300801
    11  H    0.296236
    12  C    0.070383
    13  C   -0.266879
    14  C   -0.134357
    15  C   -0.137280
    16  C   -0.175696
    17  C   -0.234418
    18  H    0.155763
    19  H    0.143137
    20  H    0.145146
    21  H    0.143158
    22  H    0.137602
    23  C    0.090265
    24  C   -0.277080
    25  C   -0.125010
    26  C   -0.140364
    27  C   -0.147497
    28  C   -0.268131
    29  H    0.180658
    30  H    0.144575
    31  H    0.146807
    32  H    0.145340
    33  H    0.153560
    34  C   -0.398649
    35  H    0.114878
    36  H    0.121690
    37  H    0.122281
    38  H    0.074323
 Sum of Mulliken charges =  -0.00000

 Dipole moment (field-independent basis, Debye):
    X=              2.8090    Y=             -8.0983    Z=              9.4785  Tot=             12.7795
 Quadrupole moment (field-independent basis, Debye-Ang):
   XX=           -104.6876   YY=           -141.0545   ZZ=            -99.8028
   XY=             13.1234   XZ=              0.3055   YZ=             21.5758

  Exact polarizability: 312.380  -3.703 291.569  25.306 -10.191 267.778
 Approx polarizability: 244.874  -2.417 234.396  22.787  -6.716 231.012

 ******    1 imaginary frequencies (negative Signs) ******

                      1                      2                      3
                      A                      A                      A
 Frequencies --   -276.3774                25.2539                53.0220
 Red. masses --      5.3183                 3.5292                 3.8224
 Frc consts  --      0.2393                 0.0013                 0.0063
 IR Inten    --    549.4414                 3.1230                 2.2263

                      4                      5                      6
                      A                      A                      A
 Frequencies --     64.8060                85.5667                99.8178
 Red. masses --      4.9451                 5.2721                 4.4328
 Frc consts  --      0.0122                 0.0227                 0.0260
 IR Inten    --      2.3006                 7.1942                 8.9466

                      7                      8                      9
                      A                      A                      A
 Frequencies --    109.9331               132.7898               155.0343
 Red. masses --      3.6904                 1.6322                 1.2707
 Frc consts  --      0.0263                 0.0170                 0.0180
 IR Inten    --      5.6251                 0.2713                 4.9473

                     10                     11                     12
                      A                      A                      A
 Frequencies --    161.5231               173.2530               229.9017
 Red. masses --      2.1744                 1.6484                 2.7763
 Frc consts  --      0.0334                 0.0292                 0.0865
 IR Inten    --      4.2322                 8.3032                 1.8411

                     13                     14                     15
                      A                      A                      A
 Frequencies --    249.4868               279.6954               289.1686
 Red. masses --      4.2417                 4.1186                 3.5271
 Frc consts  --      0.1556                 0.1898                 0.1738
 IR Inten    --     15.2873                 4.8859                 2.9681

                     16                     17                     18
                      A                      A                      A
 Frequencies --    313.8220               318.4611               333.3610
 Red. masses --      3.8868                 3.1349                 3.7407
 Frc consts  --      0.2255                 0.1873                 0.2449
 IR Inten    --      3.1398                 2.2514                39.0836

                     19                     20                     21
                      A                      A                      A
 Frequencies --    348.7956               392.1980               417.8502
 Red. masses --      3.3555                 4.6457                 2.8636
 Frc consts  --      0.2405                 0.4210                 0.2946
 IR Inten    --      6.6140                24.7391                 1.0375

                     22                     23                     24
                      A                      A                      A
 Frequencies --    424.4746               430.6509               505.1601
 Red. masses --      3.0366                 2.7866                 3.4472
 Frc consts  --      0.3224                 0.3045                 0.5183
 IR Inten    --      4.5720                13.9074                 9.3019

                     25                     26                     27
                      A                      A                      A
 Frequencies --    544.8420               627.0781               636.8130
 Red. masses --      3.5451                 3.3770                 5.8475
 Frc consts  --      0.6200                 0.7824                 1.3972
 IR Inten    --      3.9612                78.8533                 1.6542

                     28                     29                     30
                      A                      A                      A
 Frequencies --    638.4103               662.3400               676.1140
 Red. masses --      6.3391                 6.1187                 4.4719
 Frc consts  --      1.5222                 1.5815                 1.2044
 IR Inten    --      0.3133                72.7001               129.7819

                     31                     32                     33
                      A                      A                      A
 Frequencies --    722.6734               727.8273               734.4952
 Red. masses --      1.5470                 1.5604                 1.6820
 Frc consts  --      0.4760                 0.4870                 0.5346
 IR Inten    --     75.9027                86.1532                63.1202

                     34                     35                     36
                      A                      A                      A
 Frequencies --    776.5534               793.2433               802.9549
 Red. masses --      2.8822                 2.2480                 2.5271
 Frc consts  --      1.0241                 0.8334                 0.9600
 IR Inten    --     73.6008                23.9898                31.7654

                     37                     38                     39
                      A                      A                      A
 Frequencies --    872.0901               876.2742               914.4847
 Red. masses --      1.2525                 1.2499                 3.0516
 Frc consts  --      0.5612                 0.5655                 1.5036
 IR Inten    --      0.5512                 0.2802                16.5001

                     40                     41                     42
                      A                      A                      A
 Frequencies --    940.1286               956.6130               973.5953
 Red. masses --      2.2358                 1.5423                 1.7961
 Frc consts  --      1.1643                 0.8315                 1.0031
 IR Inten    --     15.5861                18.7180                 1.8540

                     43                     44                     45
                      A                      A                      A
 Frequencies --   1010.3888              1016.2241              1017.0551
 Red. masses --      1.3771                 1.6498                 1.4241
 Frc consts  --      0.8283                 1.0038                 0.8679
 IR Inten    --      0.5507                34.2262                17.8015

                     46                     47                     48
                      A                      A                      A
 Frequencies --   1022.4582              1025.6319              1026.7658
 Red. masses --      1.7928                 4.8381                 5.6653
 Frc consts  --      1.1043                 2.9985                 3.5190
 IR Inten    --    118.1438                 2.5377                 3.3917

                     49                     50                     51
                      A                      A                      A
 Frequencies --   1030.8227              1034.9951              1046.3719
 Red. masses --      1.3230                 1.3185                 1.4300
 Frc consts  --      0.8283                 0.8322                 0.9225
 IR Inten    --      1.9034                 0.2779                28.3960

                     52                     53                     54
                      A                      A                      A
 Frequencies --   1067.3653              1068.4472              1069.8005
 Red. masses --      1.9633                 2.6705                 1.4560
 Frc consts  --      1.3178                 1.7962                 0.9818
 IR Inten    --     19.8920                 8.4251                 7.9418

                     55                     56                     57
                      A                      A                      A
 Frequencies --   1075.9710              1105.2383              1125.9364
 Red. masses --      2.2458                 1.3409                 1.5349
 Frc consts  --      1.5319                 0.9651                 1.1464
 IR Inten    --     20.2574                81.2397                15.2502

                     58                     59                     60
                      A                      A                      A
 Frequencies --   1127.6955              1186.5058              1187.4483
 Red. masses --      1.5930                 1.1409                 1.1312
 Frc consts  --      1.1936                 0.9463                 0.9397
 IR Inten    --      9.8273                 0.7638                 0.5944

                     61                     62                     63
                      A                      A                      A
 Frequencies --   1195.2381              1220.2973              1225.9541
 Red. masses --      3.0547                 1.1458                 1.1527
 Frc consts  --      2.5712                 1.0053                 1.0207
 IR Inten    --     24.2783                 5.6501                 1.6446

                     64                     65                     66
                      A                      A                      A
 Frequencies --   1243.7721              1282.9889              1317.0155
 Red. masses --      3.7387                 1.3803                 3.6931
 Frc consts  --      3.4076                 1.3387                 3.7742
 IR Inten    --     12.7458                67.2600                93.3129

                     67                     68                     69
                      A                      A                      A
 Frequencies --   1322.8590              1332.8913              1361.8566
 Red. masses --      4.5113                 3.4754                 1.3809
 Frc consts  --      4.6513                 3.6378                 1.5090
 IR Inten    --     48.6353               362.3007                16.4915

                     70                     71                     72
                      A                      A                      A
 Frequencies --   1367.9307              1370.4752              1388.0225
 Red. masses --      1.3644                 1.3767                 1.5888
 Frc consts  --      1.5042                 1.5235                 1.8034
 IR Inten    --      8.1794                14.2672                27.2891

                     73                     74                     75
                      A                      A                      A
 Frequencies --   1411.2888              1436.4288              1451.7327
 Red. masses --      2.2185                 1.8360                 1.1944
 Frc consts  --      2.6034                 2.2320                 1.4831
 IR Inten    --     83.5831                 8.3910                 8.5533

                     76                     77                     78
                      A                      A                      A
 Frequencies --   1487.4004              1490.5256              1491.3992
 Red. masses --      1.1083                 2.0133                 1.6354
 Frc consts  --      1.4446                 2.6354                 2.1432
 IR Inten    --      3.2685                17.1395                17.5887

                     79                     80                     81
                      A                      A                      A
 Frequencies --   1495.9759              1497.4470              1504.5539
 Red. masses --      1.2348                 1.1509                 1.0517
 Frc consts  --      1.6282                 1.5205                 1.4027
 IR Inten    --     42.8924                14.9902                26.8433

                     82                     83                     84
                      A                      A                      A
 Frequencies --   1542.6450              1546.9550              1613.3273
 Red. masses --      2.2064                 2.2082                 4.6592
 Frc consts  --      3.0936                 3.1134                 7.1451
 IR Inten    --     24.5921                20.0814              1377.9871

                     85                     86                     87
                      A                      A                      A
 Frequencies --   1650.6400              1653.2993              1660.8599
 Red. masses --      3.4540                 4.6275                 1.3492
 Frc consts  --      5.5448                 7.4525                 2.1927
 IR Inten    --     20.2144                 4.0388                56.8061

                     88                     89                     90
                      A                      A                      A
 Frequencies --   1674.5346              1677.6688              2900.9036
 Red. masses --      4.9881                 5.8307                 1.0808
 Frc consts  --      8.2408                 9.6690                 5.3586
 IR Inten    --      3.6856                 1.5601               211.7907

                     91                     92                     93
                      A                      A                      A
 Frequencies --   3014.0853              3068.3652              3091.8084
 Red. masses --      1.0467                 1.0925                 1.0332
 Frc consts  --      5.6025                 6.0605                 5.8193
 IR Inten    --     95.4873                56.5542                27.7266

                     94                     95                     96
                      A                      A                      A
 Frequencies --   3131.2647              3177.4909              3192.1197
 Red. masses --      1.0967                 1.1049                 1.1058
 Frc consts  --      6.3357                 6.5729                 6.6387
 IR Inten    --     21.3668                 1.3527                11.2864

                     97                     98                     99
                      A                      A                      A
 Frequencies --   3197.6653              3197.9512              3204.0805
 Red. masses --      1.0859                 1.0860                 1.0887
 Frc consts  --      6.5417                 6.5438                 6.5853
 IR Inten    --      3.4850                 0.3442                 4.2947

                    100                    101                    102
                      A                      A                      A
 Frequencies --   3205.8903              3213.2881              3215.4259
 Red. masses --      1.0891                 1.0931                 1.0927
 Frc consts  --      6.5950                 6.6498                 6.6562
 IR Inten    --      5.0231                31.4813                19.4830

                    103                    104                    105
                      A                      A                      A
 Frequencies --   3223.1032              3223.7181              3232.5917
 Red. masses --      1.0964                 1.0972                 1.0942
 Frc consts  --      6.7105                 6.7181                 6.7365
 IR Inten    --     26.4486                20.0482                13.3126

                    106                    107                    108
                      A                      A                      A
 Frequencies --   3233.9784              3503.0919              3579.0289
 Red. masses --      1.0941                 1.0518                 1.0957
 Frc consts  --      6.7420                 7.6045                 8.2695
 IR Inten    --      4.5031                45.0778                65.0983

 - Thermochemistry -
 -------------------
 Temperature   298.150 Kelvin.  Pressure   1.00000 Atm.
 Atom     1 has atomic number  6 and mass  12.00000

 Molecular mass:   253.14666 amu.
 Principal axes and moments of inertia in atomic units:
                           1         2         3
     Eigenvalues --  4117.686155015.568696849.20182
           X            0.99823   0.05935   0.00253
           Y           -0.05939   0.99789   0.02605
           Z           -0.00097  -0.02615   0.99966
 This molecule is an asymmetric top.
 Rotational symmetry number  1.
 Warning -- assumption of classical behavior for rotation
           may cause significant error
 Rotational temperatures (Kelvin)      0.02103     0.01727     0.01265
 Rotational constants (GHZ):           0.43829     0.35983     0.26350
    1 imaginary frequencies ignored.
 Zero-point vibrational energy     845984.2 (Joules/Mol)
                                  202.19508 (Kcal/Mol)
 Warning -- explicit consideration of  24 degrees of freedom as
           vibrations may cause significant error
 Vibrational temperatures:     36.33    76.29    93.24   123.11   143.62
          (Kelvin)            158.17   191.05   223.06   232.40   249.27
                              330.78   358.96   402.42   416.05   451.52
                              458.19   479.63   501.84   564.29   601.19
                              610.72   619.61   726.81   783.91   902.23
                              916.23   918.53   952.96   972.78  1039.77
                             1047.18  1056.77  1117.29  1141.30  1155.27
                             1254.74  1260.76  1315.74  1352.64  1376.35
                             1400.79  1453.72  1462.12  1463.32  1471.09
                             1475.66  1477.29  1483.12  1489.13  1505.50
                             1535.70  1537.26  1539.20  1548.08  1590.19
                             1619.97  1622.50  1707.12  1708.47  1719.68
                             1755.74  1763.87  1789.51  1845.93  1894.89
                             1903.30  1917.73  1959.41  1968.15  1971.81
                             1997.05  2030.53  2066.70  2088.72  2140.04
                             2144.53  2145.79  2152.38  2154.49  2164.72
                             2219.52  2225.72  2321.22  2374.90  2378.73
                             2389.61  2409.28  2413.79  4173.75  4336.60
                             4414.69  4448.42  4505.19  4571.70  4592.75
                             4600.73  4601.14  4609.96  4612.56  4623.20
                             4626.28  4637.33  4638.21  4650.98  4652.97
                             5040.17  5149.42

 Zero-point correction=                           0.322218 (Hartree/Particle)
 Thermal correction to Energy=                    0.339592
 Thermal correction to Enthalpy=                  0.340536
 Thermal correction to Gibbs Free Energy=         0.276692
 Sum of electronic and zero-point Energies=           -788.874795
 Sum of electronic and thermal Energies=              -788.857421
 Sum of electronic and thermal Enthalpies=            -788.856477
 Sum of electronic and thermal Free Energies=         -788.920321

                     E (Thermal)             CV                S
                      KCal/Mol        Cal/Mol-Kelvin    Cal/Mol-Kelvin
 Total                  213.097             67.236            134.370
 Electronic               0.000              0.000              0.000
 Translational            0.889              2.981             42.487
 Rotational               0.889              2.981             33.314
 Vibrational            211.320             61.274             58.570
 Vibration     1          0.593              1.985              6.171
 Vibration     2          0.596              1.976              4.701
 Vibration     3          0.597              1.971              4.305
 Vibration     4          0.601              1.959              3.759
 Vibration     5          0.604              1.949              3.458
 Vibration     6          0.606              1.941              3.270
 Vibration     7          0.613              1.921              2.905
 Vibration     8          0.620              1.897              2.610
 Vibration     9          0.622              1.890              2.532
 Vibration    10          0.627              1.875              2.400
 Vibration    11          0.652              1.795              1.880
 Vibration    12          0.662              1.764              1.734
 Vibration    13          0.680              1.711              1.536
 Vibration    14          0.686              1.694              1.479
 Vibration    15          0.702              1.647              1.342
 Vibration    16          0.705              1.638              1.318
 Vibration    17          0.715              1.609              1.244
 Vibration    18          0.726              1.578              1.172
 Vibration    19          0.760              1.487              0.992
 Vibration    20          0.781              1.431              0.899
 Vibration    21          0.786              1.417              0.877
 Vibration    22          0.792              1.403              0.857
 Vibration    23          0.860              1.239              0.645
 Vibration    24          0.900              1.151              0.555

 Optimization completed.
    -- Stationary point found.
 Normal termination of Gaussian 16 at Sun Jan 31 16:53:46 2021.
