 Gaussian 16, Revision A.03,
 Gaussian 16:  ES64L-G16RevA.03 25-Dec-2016

 ----------------------------------------------------------------------
 # wB97XD def2tzvp, opt=(ts, noeigen, calcfc, maxcycles=70, maxstep=5),
  freq=noraman, scrf=(iefpcm, solvent=water)
 ----------------------------------------------------------------------

 ------------------------
 2_iteration/TS-101-2.out
 ------------------------
 Symbolic Z-matrix:
 Charge =  0 Multiplicity = 1

 SCF Done:  E(RwB97XD) =  -692.156753381     A.U. after   15 cycles
 SCF Done:  E(RwB97XD) =  -692.156872531     A.U. after   12 cycles
 SCF Done:  E(RwB97XD) =  -692.156876688     A.U. after   10 cycles
 SCF Done:  E(RwB97XD) =  -692.156877010     A.U. after    8 cycles
 SCF Done:  E(RwB97XD) =  -692.156877055     A.U. after    6 cycles
 Optimization completed.
    -- Stationary point found.
 Normal termination of Gaussian 16 at Sun Feb  7 17:47:57 2021.

 ---------------------------------------------------------------------
 #N Geom=AllCheck Guess=TCheck SCRF=Check GenChk RwB97XD/def2TZVP Freq
 ---------------------------------------------------------------------

 Structure from the checkpoint file:  "/beegfs/scratch/user/q/tla25/Gau-4153.chk"
 ------------------------
 2_iteration/TS-101-2.out
 ------------------------
 Charge =  0 Multiplicity = 1

                         Standard orientation:
 ---------------------------------------------------------------------
 Center     Atomic      Atomic             Coordinates (Angstroms)
 Number     Number       Type             X           Y           Z
 ---------------------------------------------------------------------
      1          6           0       -1.020465   -0.621341    0.145718
      2          6           0       -2.370335   -0.158132    0.092420
      3          8           0       -2.717029    1.053600    0.128144
      4          6           0        0.014389    0.327678    0.428485
      5          6           0        0.693176    2.831650   -0.937223
      6          1           0        0.530022    3.416402   -1.843973
      7          1           0        0.465566    3.454956   -0.075731
      8          1           0        1.740595    2.532374   -0.891987
      9          7           0       -0.150487    1.641541   -0.913558
     10          1           0       -1.140898    1.837985   -0.744537
     11          1           0       -0.081424    1.116722   -1.775772
     12          6           0        1.440727   -0.121570    0.225800
     13          6           0        1.873065   -0.563937   -1.025371
     14          6           0        3.181244   -0.962024   -1.235788
     15          6           0        4.093682   -0.937068   -0.189083
     16          6           0        3.679784   -0.507826    1.060473
     17          6           0        2.368145   -0.096806    1.262503
     18          1           0        1.171673   -0.615916   -1.849143
     19          1           0        3.488801   -1.296242   -2.218576
     20          1           0        5.117632   -1.249836   -0.349267
     21          1           0        4.378860   -0.485092    1.886992
     22          1           0        2.075254    0.238286    2.247658
     23          6           0       -0.164584    1.242225    1.630090
     24          1           0       -0.066336    0.642394    2.536124
     25          1           0        0.584876    2.033133    1.669670
     26          1           0       -1.158137    1.678504    1.624366
     27          6           0       -0.745390   -2.063467   -0.218166
     28          1           0       -1.042637   -2.325134   -1.241667
     29          1           0        0.307996   -2.312744   -0.116043
     30          1           0       -1.273595   -2.757529    0.447993
     31          7           0       -3.358975   -1.094225   -0.105278
     32          6           0       -4.755102   -0.732767   -0.078005
     33          1           0       -3.135311   -2.056209    0.069453
     34          1           0       -5.347249   -1.613734   -0.321985
     35          1           0       -5.076674   -0.357769    0.899356
     36          1           0       -4.966573    0.039743   -0.817352
 ---------------------------------------------------------------------

 SCF Done:  E(RwB97XD) =  -692.156877055     A.U. after    1 cycles

 The electronic state is 1-A.
 Alpha  occ. eigenvalues --  -19.18371 -14.47086 -14.42992 -10.35353 -10.34670
 Alpha  occ. eigenvalues --  -10.31338 -10.30215 -10.29931 -10.29238 -10.29174
 Alpha  occ. eigenvalues --  -10.29160 -10.29114 -10.29063 -10.26738 -10.26500
 Alpha  occ. eigenvalues --  -10.24044  -1.10529  -1.03029  -0.99469  -0.97140
 Alpha  occ. eigenvalues --   -0.90989  -0.85550  -0.84897  -0.82492  -0.78813
 Alpha  occ. eigenvalues --   -0.78076  -0.74093  -0.71543  -0.70383  -0.66416
 Alpha  occ. eigenvalues --   -0.64602  -0.62005  -0.60224  -0.58186  -0.55971
 Alpha  occ. eigenvalues --   -0.55261  -0.54634  -0.53380  -0.53322  -0.52101
 Alpha  occ. eigenvalues --   -0.51537  -0.51059  -0.49539  -0.48476  -0.48051
 Alpha  occ. eigenvalues --   -0.47428  -0.46775  -0.46346  -0.46138  -0.44954
 Alpha  occ. eigenvalues --   -0.44047  -0.43530  -0.42331  -0.41942  -0.40432
 Alpha  occ. eigenvalues --   -0.33970  -0.33253  -0.32646  -0.32009  -0.24153
 Alpha virt. eigenvalues --    0.03329   0.05144   0.09303   0.10119   0.12392
 Alpha virt. eigenvalues --    0.13056   0.13677   0.14112   0.15099   0.16223
 Alpha virt. eigenvalues --    0.17037   0.17371   0.17822   0.18321   0.18579

 Mulliken charges:
               1
     1  C   -0.319500
     2  C    0.382164
     3  O   -0.643294
     4  C    0.365046
     5  C   -0.300822
     6  H    0.151197
     7  H    0.156544
     8  H    0.152382
     9  N   -0.301618
    10  H    0.275095
    11  H    0.258742
    12  C    0.083599
    13  C   -0.303074
    14  C   -0.136738
    15  C   -0.141856
    16  C   -0.159106
    17  C   -0.217429
    18  H    0.163104
    19  H    0.143059
    20  H    0.144501
    21  H    0.142096
    22  H    0.152897
    23  C   -0.458193
    24  H    0.139092
    25  H    0.142533
    26  H    0.162390
    27  C   -0.424908
    28  H    0.117573
    29  H    0.141973
    30  H    0.111818
    31  N   -0.331172
    32  C   -0.254534
    33  H    0.240352
    34  H    0.132597
    35  H    0.112127
    36  H    0.121364
 Sum of Mulliken charges =  -0.00000

 Dipole moment (field-independent basis, Debye):
    X=              4.4696    Y=              0.3239    Z=             -2.1605  Tot=              4.9750
 Quadrupole moment (field-independent basis, Debye-Ang):
   XX=            -97.8702   YY=            -92.5713   ZZ=            -90.7263
   XY=              9.6001   XZ=              0.8145   YZ=             -2.5981

  Exact polarizability: 308.955   5.010 219.276  -0.660   5.091 216.934
 Approx polarizability: 221.876  -2.189 179.918   1.473   4.986 187.293

 ******    1 imaginary frequencies (negative Signs) ******

                      1                      2                      3
                      A                      A                      A
 Frequencies --   -394.3978                40.3616                66.5847
 Red. masses --      5.9001                 3.6206                 3.3687
 Frc consts  --      0.5407                 0.0035                 0.0088
 IR Inten    --    803.8328                 0.4045                 4.2635

                      4                      5                      6
                      A                      A                      A
 Frequencies --     74.4400                93.0542                98.2826
 Red. masses --      3.0535                 3.0476                 3.3959
 Frc consts  --      0.0100                 0.0155                 0.0193
 IR Inten    --     13.4455                 8.7845                 8.9860

                      7                      8                      9
                      A                      A                      A
 Frequencies --    122.9851               139.7143               162.2026
 Red. masses --      2.6297                 1.5013                 1.2562
 Frc consts  --      0.0234                 0.0173                 0.0195
 IR Inten    --     10.5425                15.0682                 0.9954

                     10                     11                     12
                      A                      A                      A
 Frequencies --    175.5620               197.6915               202.4713
 Red. masses --      1.9137                 2.9932                 1.3976
 Frc consts  --      0.0348                 0.0689                 0.0338
 IR Inten    --      8.5346                 6.8234                 7.0178

                     13                     14                     15
                      A                      A                      A
 Frequencies --    236.4372               267.7105               286.0735
 Red. masses --      1.8162                 3.8254                 3.4860
 Frc consts  --      0.0598                 0.1615                 0.1681
 IR Inten    --      4.4012                10.3155                12.5243

                     16                     17                     18
                      A                      A                      A
 Frequencies --    301.4540               329.4426               349.0233
 Red. masses --      3.3973                 1.8068                 2.2449
 Frc consts  --      0.1819                 0.1155                 0.1611
 IR Inten    --     57.0475                31.4118                 0.9006

                     19                     20                     21
                      A                      A                      A
 Frequencies --    357.7498               372.7670               393.1074
 Red. masses --      1.8523                 2.4800                 3.1856
 Frc consts  --      0.1397                 0.2030                 0.2900
 IR Inten    --     28.0339                17.7191                28.5755

                     22                     23                     24
                      A                      A                      A
 Frequencies --    420.8609               428.1624               458.6517
 Red. masses --      1.5060                 2.8660                 3.2555
 Frc consts  --      0.1572                 0.3096                 0.4035
 IR Inten    --     94.0447                 0.8635                30.6287

                     25                     26                     27
                      A                      A                      A
 Frequencies --    523.8426               559.6893               607.2612
 Red. masses --      3.8885                 3.5173                 4.1495
 Frc consts  --      0.6287                 0.6492                 0.9016
 IR Inten    --     50.6178                60.2957                35.6531

                     28                     29                     30
                      A                      A                      A
 Frequencies --    639.0609               644.7418               722.3630
 Red. masses --      6.3676                 3.6529                 1.5132
 Frc consts  --      1.5322                 0.8947                 0.4652
 IR Inten    --      1.4557                79.4324                69.6935

                     31                     32                     33
                      A                      A                      A
 Frequencies --    742.7455               746.4703               794.6505
 Red. masses --      3.7298                 1.3537                 7.0961
 Frc consts  --      1.2123                 0.4444                 2.6401
 IR Inten    --     18.0072                88.2612                43.1931

                     34                     35                     36
                      A                      A                      A
 Frequencies --    802.8500               856.9590               882.1530
 Red. masses --      2.2426                 2.8733                 1.2459
 Frc consts  --      0.8517                 1.2432                 0.5713
 IR Inten    --     15.6853                 9.0223                 1.5103

                     37                     38                     39
                      A                      A                      A
 Frequencies --    954.4969               964.2715              1016.8270
 Red. masses --      1.7526                 1.4134                 1.3866
 Frc consts  --      0.9408                 0.7743                 0.8447
 IR Inten    --     67.0333                 5.6944                 3.9038

                     40                     41                     42
                      A                      A                      A
 Frequencies --   1025.7698              1028.2795              1033.0136
 Red. masses --      1.9513                 1.9258                 1.3949
 Frc consts  --      1.2097                 1.1997                 0.8770
 IR Inten    --      9.6720                 7.0083                 0.3560

                     43                     44                     45
                      A                      A                      A
 Frequencies --   1042.3293              1053.5834              1060.4326
 Red. masses --      1.7598                 1.7282                 1.6629
 Frc consts  --      1.1265                 1.1303                 1.1018
 IR Inten    --    168.7090               103.3554                73.0664

                     46                     47                     48
                      A                      A                      A
 Frequencies --   1063.4026              1068.9522              1104.1400
 Red. masses --      1.6393                 1.7705                 1.9830
 Frc consts  --      1.0922                 1.1920                 1.4243
 IR Inten    --      7.1022                12.1814                54.4054

                     49                     50                     51
                      A                      A                      A
 Frequencies --   1111.8016              1122.7663              1148.5403
 Red. masses --      2.0216                 1.8500                 1.4992
 Frc consts  --      1.4723                 1.3740                 1.1652
 IR Inten    --     52.2668                36.0149                27.9342

                     52                     53                     54
                      A                      A                      A
 Frequencies --   1153.6467              1179.5339              1186.3669
 Red. masses --      1.5173                 1.8817                 1.1348
 Frc consts  --      1.1898                 1.5425                 0.9410
 IR Inten    --     82.0853                46.2798                 0.0115

                     55                     56                     57
                      A                      A                      A
 Frequencies --   1213.6815              1219.2378              1229.4778
 Red. masses --      3.1905                 1.3310                 1.1806
 Frc consts  --      2.7690                 1.1657                 1.0515
 IR Inten    --     49.7063                75.1975                30.1683

                     58                     59                     60
                      A                      A                      A
 Frequencies --   1289.5407              1319.4919              1334.2669
 Red. masses --      3.4213                 4.1154                 2.2146
 Frc consts  --      3.3521                 4.2216                 2.3229
 IR Inten    --    131.5932                26.4624               208.4131

                     61                     62                     63
                      A                      A                      A
 Frequencies --   1340.3939              1374.6091              1390.0976
 Red. masses --      1.7931                 1.3904                 2.3761
 Frc consts  --      1.8981                 1.5479                 2.7052
 IR Inten    --     59.4028                 8.7792               494.3677

                     64                     65                     66
                      A                      A                      A
 Frequencies --   1411.5599              1427.5842              1452.4672
 Red. masses --      1.5350                 1.2275                 1.2746
 Frc consts  --      1.8020                 1.4740                 1.5844
 IR Inten    --    168.1927                 2.8582                56.6878

                     67                     68                     69
                      A                      A                      A
 Frequencies --   1458.2865              1477.5651              1486.4872
 Red. masses --      1.2000                 1.0873                 1.0629
 Frc consts  --      1.5036                 1.3985                 1.3837
 IR Inten    --      8.0330                64.8433                 9.8368

                     70                     71                     72
                      A                      A                      A
 Frequencies --   1487.7403              1494.3736              1500.0400
 Red. masses --      1.4168                 1.1550                 1.2647
 Frc consts  --      1.8476                 1.5197                 1.6767
 IR Inten    --     45.0737                 4.9553                34.4955

                     73                     74                     75
                      A                      A                      A
 Frequencies --   1505.3327              1506.6109              1510.6977
 Red. masses --      1.1639                 1.0580                 1.0936
 Frc consts  --      1.5540                 1.4150                 1.4705
 IR Inten    --     71.9700                 8.1642                98.3356

                     76                     77                     78
                      A                      A                      A
 Frequencies --   1515.4468              1532.3883              1551.1352
 Red. masses --      1.1196                 1.5856                 2.2457
 Frc consts  --      1.5149                 2.1938                 3.1834
 IR Inten    --    140.9844               428.6709                 7.4672

                     79                     80                     81
                      A                      A                      A
 Frequencies --   1592.0758              1654.1562              1665.2717
 Red. masses --      4.2016                 5.5791                 1.0971
 Frc consts  --      6.2747                 8.9943                 1.7925
 IR Inten    --    554.1462                 2.3639                72.8833

                     82                     83                     84
                      A                      A                      A
 Frequencies --   1678.8217              2991.1298              3022.0974
 Red. masses --      5.5802                 1.0450                 1.1010
 Frc consts  --      9.2664                 5.5086                 5.9247
 IR Inten    --      0.1939               162.2232                81.1022

                     85                     86                     87
                      A                      A                      A
 Frequencies --   3026.6278              3060.8988              3068.9338
 Red. masses --      1.0479                 1.0353                 1.0401
 Frc consts  --      5.6555                 5.7150                 5.7719
 IR Inten    --    125.2199                57.1564                39.4886

                     88                     89                     90
                      A                      A                      A
 Frequencies --   3103.5312              3131.4411              3133.3933
 Red. masses --      1.0879                 1.1025                 1.1033
 Frc consts  --      6.1738                 6.3699                 6.3822
 IR Inten    --     52.1975                37.3783                21.7414

                     91                     92                     93
                      A                      A                      A
 Frequencies --   3147.1049              3153.0561              3168.3416
 Red. masses --      1.1033                 1.0898                 1.1031
 Frc consts  --      6.4385                 6.3834                 6.5243
 IR Inten    --     31.5989                28.1662                17.1942

                     94                     95                     96
                      A                      A                      A
 Frequencies --   3193.0216              3197.1658              3199.6598
 Red. masses --      1.0861                 1.0978                 1.0885
 Frc consts  --      6.5241                 6.6118                 6.5660
 IR Inten    --      6.0098                 3.7639                 3.4499

                     97                     98                     99
                      A                      A                      A
 Frequencies --   3209.0616              3220.2219              3231.2633
 Red. masses --      1.0931                 1.0969                 1.0939
 Frc consts  --      6.6325                 6.7015                 6.7292
 IR Inten    --     30.0603                25.3515                10.8490

                    100                    101                    102
                      A                      A                      A
 Frequencies --   3367.8078              3590.7600              3683.5527
 Red. masses --      1.0696                 1.0815                 1.0771
 Frc consts  --      7.1475                 8.2156                 8.6104
 IR Inten    --    191.0568                39.2151                41.7265

 - Thermochemistry -
 -------------------
 Temperature   298.150 Kelvin.  Pressure   1.00000 Atm.
 Atom     1 has atomic number  6 and mass  12.00000

 Molecular mass:   220.15756 amu.
 Principal axes and moments of inertia in atomic units:
                           1         2         3
     Eigenvalues --  1835.716015661.367646334.16741
           X            0.99992   0.01244   0.00031
           Y           -0.01244   0.99989   0.00839
           Z           -0.00021  -0.00839   0.99996
 This molecule is an asymmetric top.
 Rotational symmetry number  1.
 Warning -- assumption of classical behavior for rotation
           may cause significant error
 Rotational temperatures (Kelvin)      0.04718     0.01530     0.01367
 Rotational constants (GHZ):           0.98313     0.31878     0.28492
    1 imaginary frequencies ignored.
 Zero-point vibrational energy     825026.4 (Joules/Mol)
                                  197.18604 (Kcal/Mol)
 Warning -- explicit consideration of  26 degrees of freedom as
           vibrations may cause significant error
 Vibrational temperatures:     58.07    95.80   107.10   133.88   141.41
          (Kelvin)            176.95   201.02   233.37   252.59   284.43
                              291.31   340.18   385.18   411.60   433.73
                              473.99   502.17   514.72   536.33   565.59
                              605.52   616.03   659.90   753.69   805.27
                              873.71   919.47   927.64  1039.32  1068.65
                             1074.00  1143.32  1155.12  1232.97  1269.22
                             1373.31  1387.37  1462.99  1475.85  1479.46
                             1486.28  1499.68  1515.87  1525.73  1530.00
                             1537.98  1588.61  1599.63  1615.41  1652.49
                             1659.84  1697.09  1706.92  1746.22  1754.21
                             1768.94  1855.36  1898.45  1919.71  1928.53
                             1977.76  2000.04  2030.92  2053.98  2089.78
                             2098.15  2125.89  2138.72  2140.53  2150.07
                             2158.22  2165.84  2167.68  2173.56  2180.39
                             2204.77  2231.74  2290.64  2379.96  2395.95
                             2415.45  4303.57  4348.12  4354.64  4403.95
                             4415.51  4465.29  4505.45  4508.25  4527.98
                             4536.54  4558.54  4594.05  4600.01  4603.60
                             4617.12  4633.18  4649.07  4845.52  5166.30
                             5299.81

 Zero-point correction=                           0.314236 (Hartree/Particle)
 Thermal correction to Energy=                    0.331203
 Thermal correction to Enthalpy=                  0.332147
 Thermal correction to Gibbs Free Energy=         0.270205
 Sum of electronic and zero-point Energies=           -691.842641
 Sum of electronic and thermal Energies=              -691.825674
 Sum of electronic and thermal Enthalpies=            -691.824730
 Sum of electronic and thermal Free Energies=         -691.886672

                     E (Thermal)             CV                S
                      KCal/Mol        Cal/Mol-Kelvin    Cal/Mol-Kelvin
 Total                  207.833             64.061            130.368
 Electronic               0.000              0.000              0.000
 Translational            0.889              2.981             42.070
 Rotational               0.889              2.981             32.554
 Vibrational            206.055             58.100             55.744
 Vibration     1          0.594              1.981              5.241
 Vibration     2          0.598              1.970              4.252
 Vibration     3          0.599              1.966              4.032
 Vibration     4          0.602              1.954              3.595
 Vibration     5          0.604              1.950              3.488
 Vibration     6          0.610              1.930              3.053
 Vibration     7          0.615              1.914              2.808
 Vibration     8          0.622              1.889              2.524
 Vibration     9          0.628              1.872              2.375
 Vibration    10          0.637              1.843              2.154
 Vibration    11          0.639              1.836              2.111
 Vibration    12          0.655              1.785              1.830
 Vibration    13          0.673              1.732              1.611
 Vibration    14          0.684              1.700              1.497
 Vibration    15          0.693              1.671              1.409
 Vibration    16          0.712              1.617              1.263
 Vibration    17          0.726              1.577              1.171
 Vibration    18          0.733              1.559              1.132
 Vibration    19          0.744              1.528              1.068
 Vibration    20          0.760              1.485              0.988
 Vibration    21          0.783              1.425              0.889
 Vibration    22          0.790              1.409              0.865
 Vibration    23          0.817              1.342              0.770
 Vibration    24          0.879              1.197              0.601
 Vibration    25          0.915              1.119              0.524
 Vibration    26          0.966              1.016              0.437

 Optimization completed.
    -- Stationary point found.
 Normal termination of Gaussian 16 at Sun Feb  7 19:18:25 2021.
