 Gaussian 16, Revision A.03,
 Gaussian 16:  ES64L-G16RevA.03 25-Dec-2016

 ----------------------------------------------------------------------
 # wB97XD def2tzvp, opt=(ts, noeigen, calcfc, maxcycles=70, maxstep=3),
  freq=noraman, scrf=(iefpcm, solvent=water)
 ----------------------------------------------------------------------

 ------------------------
 0_iteration/TS-126-0.out
 ------------------------
 Symbolic Z-matrix:
 Charge =  0 Multiplicity = 1

 SCF Done:  E(RwB97XD) =  -3457.49889662     A.U. after   15 cycles
 Optimization completed.
    -- Stationary point found.
 Normal termination of Gaussian 16 at Wed Apr 14 06:25:40 2021.

 ---------------------------------------------------------------------
 #N Geom=AllCheck Guess=TCheck SCRF=Check GenChk RwB97XD/def2TZVP Freq
 ---------------------------------------------------------------------

 Structure from the checkpoint file:  "/beegfs/scratch/user/q/tla25/Gau-22987.chk"
 ------------------------
 0_iteration/TS-126-0.out
 ------------------------
 Charge =  0 Multiplicity = 1

                         Standard orientation:
 ---------------------------------------------------------------------
 Center     Atomic      Atomic             Coordinates (Angstroms)
 Number     Number       Type             X           Y           Z
 ---------------------------------------------------------------------
      1          6           0       -0.708400   -0.058829    0.068900
      2          6           0       -1.990481   -0.740667    0.312500
      3          8           0       -2.088752   -1.699367    1.100800
      4          6           0        0.462929   -0.798490    0.119600
      5          6           0        0.495129   -0.875490    2.999000
      6          1           0        0.119748   -1.431100    3.859300
      7          1           0        1.478119   -0.475562    3.233700
      8          1           0       -0.194200   -0.054809    2.789600
      9          7           0        0.558948   -1.722590    1.819100
     10          1           0        1.340167   -2.366462    1.825300
     11          1           0       -0.329333   -2.210119    1.703400
     12          6           0        1.811510   -0.151152    0.029300
     13          6           0        2.114471    0.887657    0.913900
     14          6           0        3.335752    1.534096    0.864900
     15          6           0        4.285072    1.165524   -0.078200
     16          6           0        3.995600    0.142815   -0.965200
     17          6           0        2.773619   -0.512924   -0.907900
     18          1           0        1.377762    1.216338    1.630900
     19          1           0        3.542134    2.335605    1.562600
     20          1           0        5.239953    1.673753   -0.120700
     21          1           0        4.722310   -0.154266   -1.710500
     22          1           0        2.571638   -1.307123   -1.610900
     23         35           0        0.393576   -2.558190   -0.893900
     24          6           0       -0.702638    1.420371   -0.065600
     25          6           0       -1.419467    2.209452    0.836200
     26          6           0       -1.450905    3.590852    0.720300
     27          6           0       -0.753624    4.222671   -0.299600
     28          6           0       -0.039605    3.453890   -1.208900
     29          6           0       -0.025557    2.073200   -1.098300
     30          1           0       -1.958047    1.730233    1.645800
     31          1           0       -2.014524    4.176133    1.436600
     32          1           0       -0.771152    5.301571   -0.388800
     33          1           0        0.499686    3.931710   -2.017800
     34          1           0        0.517452    1.484810   -1.827600
     35          7           0       -3.104190   -0.279795   -0.314800
     36          6           0       -4.405081   -0.747833    0.112400
     37          6           0       -3.090209    0.491205   -1.540500
     38          1           0       -4.372971   -1.024433    1.162400
     39          1           0       -5.132500    0.053548   -0.026400
     40          1           0       -4.733352   -1.617043   -0.466700
     41          1           0       -2.114609    0.436533   -2.014200
     42          1           0       -3.826400    0.069286   -2.227800
     43          1           0       -3.339048    1.541595   -1.365000
 ---------------------------------------------------------------------

 SCF Done:  E(RwB97XD) =  -3457.49889662     A.U. after    1 cycles

 The electronic state is 1-A.
 Alpha  occ. eigenvalues -- -483.11614 -62.66454 -56.45549 -56.45228 -56.45220
 Alpha  occ. eigenvalues --  -19.20656 -14.47433 -14.45690 -10.39649 -10.37912
 Alpha  occ. eigenvalues --  -10.31317 -10.31303 -10.30635 -10.30381 -10.29874
 Alpha  occ. eigenvalues --  -10.29518 -10.29427 -10.29386 -10.29260 -10.29246
 Alpha  occ. eigenvalues --  -10.28589 -10.28533 -10.28353 -10.28211 -10.28132
 Alpha  occ. eigenvalues --  -10.26826  -8.80542  -6.62610  -6.61606  -6.61577
 Alpha  occ. eigenvalues --   -2.72998  -2.72727  -2.72703  -2.71891  -2.71890
 Alpha  occ. eigenvalues --   -1.13307  -1.03544  -1.02793  -0.97880  -0.96215
 Alpha  occ. eigenvalues --   -0.92358  -0.87251  -0.85879  -0.85159  -0.84521
 Alpha  occ. eigenvalues --   -0.82092  -0.81186  -0.79040  -0.78143  -0.73221
 Alpha  occ. eigenvalues --   -0.70831  -0.69889  -0.69381  -0.66628  -0.63967
 Alpha  occ. eigenvalues --   -0.62164  -0.61558  -0.60066  -0.57512  -0.57146
 Alpha  occ. eigenvalues --   -0.56425  -0.55962  -0.55151  -0.54835  -0.54539
 Alpha  occ. eigenvalues --   -0.53244  -0.52294  -0.51796  -0.51255  -0.50351
 Alpha  occ. eigenvalues --   -0.49363  -0.48671  -0.48398  -0.47795  -0.47581
 Alpha  occ. eigenvalues --   -0.47004  -0.46569  -0.45754  -0.45163  -0.44329
 Alpha  occ. eigenvalues --   -0.43449  -0.42493  -0.42133  -0.42012  -0.36775
 Alpha  occ. eigenvalues --   -0.36622  -0.35421  -0.34279  -0.33849  -0.33273
 Alpha  occ. eigenvalues --   -0.32414  -0.31802  -0.26133
 Alpha virt. eigenvalues --    0.01344   0.04369   0.04881   0.05620   0.06258
 Alpha virt. eigenvalues --    0.08146   0.10749   0.12405   0.13029   0.13568
 Alpha virt. eigenvalues --    0.13851   0.14744   0.15478   0.16101   0.16748

 Mulliken charges:
               1
     1  C   -0.303682
     2  C    0.298293
     3  O   -0.570908
     4  C    0.242487
     5  C   -0.328167
     6  H    0.158221
     7  H    0.161484
     8  H    0.152206
     9  N   -0.275304
    10  H    0.275475
    11  H    0.277792
    12  C    0.102647
    13  C   -0.275574
    14  C   -0.175931
    15  C   -0.138320
    16  C   -0.136509
    17  C   -0.231501
    18  H    0.196728
    19  H    0.142392
    20  H    0.145197
    21  H    0.143441
    22  H    0.144185
    23  Br  -0.198963
    24  C    0.211141
    25  C   -0.227954
    26  C   -0.182957
    27  C   -0.117533
    28  C   -0.191063
    29  C   -0.176577
    30  H    0.146233
    31  H    0.135382
    32  H    0.139243
    33  H    0.134701
    34  H    0.150430
    35  N   -0.084269
    36  C   -0.299526
    37  C   -0.299849
    38  H    0.139487
    39  H    0.140619
    40  H    0.135259
    41  H    0.156610
    42  H    0.149775
    43  H    0.135160
 Sum of Mulliken charges =  -0.00000

 Dipole moment (field-independent basis, Debye):
    X=              2.1694    Y=              2.4320    Z=              2.2226  Tot=              3.9447
 Quadrupole moment (field-independent basis, Debye-Ang):
   XX=           -128.0111   YY=           -145.1753   ZZ=           -131.6823
   XY=             -5.2125   XZ=              4.7006   YZ=             -2.1349

  Exact polarizability: 379.964  -1.767 392.620 -19.896   7.890 320.484
 Approx polarizability: 288.663   1.071 308.214 -21.313   8.476 273.846

 ******    1 imaginary frequencies (negative Signs) ******

                      1                      2                      3
                      A                      A                      A
 Frequencies --   -396.4244                32.5736                35.6984
 Red. masses --      6.0811                 5.1570                 4.6764
 Frc consts  --      0.5631                 0.0032                 0.0035
 IR Inten    --    602.8840                 1.8231                 1.3144

                      4                      5                      6
                      A                      A                      A
 Frequencies --     52.1652                61.2691                71.4942
 Red. masses --      4.2603                 3.8198                 3.3644
 Frc consts  --      0.0068                 0.0084                 0.0101
 IR Inten    --      2.6187                 0.9890                 0.8085

                      7                      8                      9
                      A                      A                      A
 Frequencies --     77.4821                86.1268               100.8324
 Red. masses --      3.3101                 3.1937                 3.4221
 Frc consts  --      0.0117                 0.0140                 0.0205
 IR Inten    --      0.4677                 1.7835                 0.5985

                     10                     11                     12
                      A                      A                      A
 Frequencies --    116.2974               137.6857               154.6324
 Red. masses --      1.2778                 6.6152                 8.4966
 Frc consts  --      0.0102                 0.0739                 0.1197
 IR Inten    --      0.3793                 4.1721                 6.5948

                     13                     14                     15
                      A                      A                      A
 Frequencies --    167.2202               179.5436               197.2530
 Red. masses --      2.4719                 2.6059                 1.6720
 Frc consts  --      0.0407                 0.0495                 0.0383
 IR Inten    --      1.4770                20.9440                 2.0085

                     16                     17                     18
                      A                      A                      A
 Frequencies --    212.5218               238.5664               239.3943
 Red. masses --      3.1186                 2.8006                 3.9779
 Frc consts  --      0.0830                 0.0939                 0.1343
 IR Inten    --      6.5668                27.4309                39.7973

                     19                     20                     21
                      A                      A                      A
 Frequencies --    247.0128               265.7819               267.8188
 Red. masses --      3.1717                 2.1297                 2.5200
 Frc consts  --      0.1140                 0.0886                 0.1065
 IR Inten    --      8.5600                 8.5185                 2.6733

                     22                     23                     24
                      A                      A                      A
 Frequencies --    285.8350               305.8911               330.2883
 Red. masses --      2.9137                 3.1043                 3.7120
 Frc consts  --      0.1403                 0.1711                 0.2386
 IR Inten    --      3.6898                27.8091                 5.7725

                     25                     26                     27
                      A                      A                      A
 Frequencies --    374.6556               416.4819               424.9199
 Red. masses --      4.7278                 3.3830                 2.8843
 Frc consts  --      0.3910                 0.3457                 0.3068
 IR Inten    --     52.5823                24.3495                 1.7037

                     28                     29                     30
                      A                      A                      A
 Frequencies --    430.4929               479.4307               493.2072
 Red. masses --      2.9426                 3.4321                 5.6000
 Frc consts  --      0.3213                 0.4648                 0.8026
 IR Inten    --      1.2459                19.7127                32.9709

                     31                     32                     33
                      A                      A                      A
 Frequencies --    527.3960               574.6418               609.4389
 Red. masses --      3.5653                 4.4433                 3.3667
 Frc consts  --      0.5843                 0.8645                 0.7367
 IR Inten    --     51.2352               107.1268                12.9968

                     34                     35                     36
                      A                      A                      A
 Frequencies --    630.8904               638.5610               650.1621
 Red. masses --      4.8860                 6.3282                 3.7923
 Frc consts  --      1.1458                 1.5203                 0.9445
 IR Inten    --     41.9487                 3.6904                70.1473

                     37                     38                     39
                      A                      A                      A
 Frequencies --    677.9203               707.1121               725.4690
 Red. masses --      3.7412                 2.9928                 1.5568
 Frc consts  --      1.0130                 0.8817                 0.4827
 IR Inten    --     51.3482               109.3301                55.5230

                     40                     41                     42
                      A                      A                      A
 Frequencies --    726.9536               753.1282               782.0049
 Red. masses --      1.6438                 3.1387                 6.3351
 Frc consts  --      0.5118                 1.0489                 2.2826
 IR Inten    --    116.2130               202.9119                77.1339

                     43                     44                     45
                      A                      A                      A
 Frequencies --    800.7833               817.1624               843.4985
 Red. masses --      2.2326                 2.9027                 5.6172
 Frc consts  --      0.8435                 1.1420                 2.3547
 IR Inten    --      8.8235               100.9033                35.6245

                     46                     47                     48
                      A                      A                      A
 Frequencies --    873.0879               879.1065               948.9350
 Red. masses --      1.2560                 1.2474                 1.4954
 Frc consts  --      0.5641                 0.5680                 0.7934
 IR Inten    --      2.8277                 0.9876                 3.1687

                     49                     50                     51
                      A                      A                      A
 Frequencies --    966.1434               969.5115              1004.1553
 Red. masses --      2.7101                 1.6640                 1.1272
 Frc consts  --      1.4904                 0.9215                 0.6696
 IR Inten    --     10.8636                 6.0576                76.6942

                     52                     53                     54
                      A                      A                      A
 Frequencies --   1009.5827              1018.9919              1022.0724
 Red. masses --      1.3753                 1.4250                 1.3086
 Frc consts  --      0.8259                 0.8718                 0.8054
 IR Inten    --      1.7376                 0.4321                 0.5635

                     55                     56                     57
                      A                      A                      A
 Frequencies --   1024.7814              1027.0320              1035.3037
 Red. masses --      5.9525                 4.4142                 1.3877
 Frc consts  --      3.6831                 2.7433                 0.8764
 IR Inten    --      1.0673                 1.5015                 3.5087

                     58                     59                     60
                      A                      A                      A
 Frequencies --   1041.2162              1067.9828              1069.6121
 Red. masses --      3.0014                 2.1168                 2.0558
 Frc consts  --      1.9171                 1.4225                 1.3857
 IR Inten    --     40.6053                17.2326                51.6806

                     61                     62                     63
                      A                      A                      A
 Frequencies --   1084.8493              1088.5984              1102.1311
 Red. masses --      3.6610                 1.3766                 1.2988
 Frc consts  --      2.5385                 0.9612                 0.9295
 IR Inten    --     84.9401                22.3849                41.4456

                     64                     65                     66
                      A                      A                      A
 Frequencies --   1112.1162              1128.4329              1133.0737
 Red. masses --      1.5717                 1.5949                 1.2321
 Frc consts  --      1.1453                 1.1966                 0.9320
 IR Inten    --     11.5823                 6.0731                 0.9200

                     67                     68                     69
                      A                      A                      A
 Frequencies --   1165.9223              1175.3200              1180.8728
 Red. masses --      1.5602                 2.1846                 1.1279
 Frc consts  --      1.2496                 1.7780                 0.9267
 IR Inten    --     20.0087                82.9650                 1.4888

                     70                     71                     72
                      A                      A                      A
 Frequencies --   1187.5460              1209.4728              1211.0211
 Red. masses --      1.1297                 1.5061                 1.1367
 Frc consts  --      0.9387                 1.2980                 0.9822
 IR Inten    --      0.8503               130.5378                12.5497

                     73                     74                     75
                      A                      A                      A
 Frequencies --   1221.8624              1227.9323              1296.8897
 Red. masses --      2.1997                 1.2867                 4.4820
 Frc consts  --      1.9349                 1.1431                 4.4415
 IR Inten    --    198.0276                33.5449                64.9901

                     76                     77                     78
                      A                      A                      A
 Frequencies --   1311.5529              1320.1780              1324.7482
 Red. masses --      5.0053                 4.7328                 5.3941
 Frc consts  --      5.0729                 4.8599                 5.5775
 IR Inten    --     16.3392                20.2732               109.8837

                     79                     80                     81
                      A                      A                      A
 Frequencies --   1360.7042              1370.6887              1371.4409
 Red. masses --      1.4734                 1.3177                 1.3599
 Frc consts  --      1.6073                 1.4587                 1.5070
 IR Inten    --      9.6059                10.7803                11.7253

                     82                     83                     84
                      A                      A                      A
 Frequencies --   1423.7222              1440.7251              1446.8926
 Red. masses --      2.4365                 1.7136                 1.2146
 Frc consts  --      2.9098                 2.0957                 1.4982
 IR Inten    --    862.0886               120.7534                12.7211

                     85                     86                     87
                      A                      A                      A
 Frequencies --   1458.9902              1474.5870              1483.3426
 Red. masses --      1.6347                 1.2060                 1.1081
 Frc consts  --      2.0502                 1.5450                 1.4365
 IR Inten    --    113.8032                30.8583                10.0831

                     88                     89                     90
                      A                      A                      A
 Frequencies --   1489.3296              1492.9639              1494.7946
 Red. masses --      2.1069                 1.8505                 1.1983
 Frc consts  --      2.7535                 2.4302                 1.5775
 IR Inten    --     24.7775                49.3204                61.7410

                     91                     92                     93
                      A                      A                      A
 Frequencies --   1495.0909              1501.7461              1504.8019
 Red. masses --      1.0437                 1.0542                 1.0623
 Frc consts  --      1.3745                 1.4008                 1.4173
 IR Inten    --     19.2420                21.2335                 4.8851

                     94                     95                     96
                      A                      A                      A
 Frequencies --   1532.9806              1540.8554              1548.3270
 Red. masses --      1.6268                 2.2996                 2.3058
 Frc consts  --      2.2525                 3.2168                 3.2569
 IR Inten    --    196.6581               103.5896                30.9265

                     97                     98                     99
                      A                      A                      A
 Frequencies --   1584.3500              1634.0430              1642.8924
 Red. masses --      1.4360                 2.8877                 5.2421
 Frc consts  --      2.1237                 4.5428                 8.3362
 IR Inten    --    523.1625               395.1822                67.0721

                    100                    101                    102
                      A                      A                      A
 Frequencies --   1651.3601              1669.3610              1675.2445
 Red. masses --      5.5948                 5.8850                 5.8394
 Frc consts  --      8.9892                 9.6626                 9.6556
 IR Inten    --     40.0777                25.6379                 0.4471

                    103                    104                    105
                      A                      A                      A
 Frequencies --   3032.4719              3040.7398              3057.0514
 Red. masses --      1.0440                 1.0409                 1.0350
 Frc consts  --      5.6563                 5.6707                 5.6987
 IR Inten    --     87.2527               110.4586                46.5106

                    106                    107                    108
                      A                      A                      A
 Frequencies --   3098.3882              3105.8680              3125.2068
 Red. masses --      1.0996                 1.0982                 1.1037
 Frc consts  --      6.2192                 6.2417                 6.3513
 IR Inten    --     75.2463                16.6018                15.0591

                    109                    110                    111
                      A                      A                      A
 Frequencies --   3171.3232              3174.7827              3178.2698
 Red. masses --      1.1036                 1.0995                 1.0980
 Frc consts  --      6.5396                 6.5296                 6.5347
 IR Inten    --     18.9666                11.5301                12.9952

                    112                    113                    114
                      A                      A                      A
 Frequencies --   3184.0642              3189.9955              3198.6896
 Red. masses --      1.0869                 1.0871                 1.0865
 Frc consts  --      6.4921                 6.5177                 6.5495
 IR Inten    --     11.9335                 0.8362                 0.1526

                    115                    116                    117
                      A                      A                      A
 Frequencies --   3199.8476              3206.5410              3208.5748
 Red. masses --      1.0912                 1.0948                 1.0910
 Frc consts  --      6.5830                 6.6321                 6.6178
 IR Inten    --     15.1476                45.4475                17.3945

                    118                    119                    120
                      A                      A                      A
 Frequencies --   3218.0565              3220.7756              3245.0515
 Red. masses --      1.0987                 1.0966                 1.0917
 Frc consts  --      6.7038                 6.7025                 6.7735
 IR Inten    --     22.7572                26.9150                 3.5979

                    121                    122                    123
                      A                      A                      A
 Frequencies --   3249.9423              3421.2271              3595.1716
 Red. masses --      1.0924                 1.0612                 1.0888
 Frc consts  --      6.7982                 7.3182                 8.2918
 IR Inten    --      4.7084               169.6910               112.6052

 - Thermochemistry -
 -------------------
 Temperature   298.150 Kelvin.  Pressure   1.00000 Atm.
 Atom     1 has atomic number  6 and mass  12.00000

 Molecular mass:   360.08372 amu.
 Principal axes and moments of inertia in atomic units:
                           1         2         3
     Eigenvalues --  6663.456337265.50240**********
           X            0.99744   0.07094   0.00888
           Y           -0.07060   0.99695  -0.03337
           Z           -0.01122   0.03265   0.99940
 This molecule is an asymmetric top.
 Rotational symmetry number  1.
 Warning -- assumption of classical behavior for rotation
           may cause significant error
 Rotational temperatures (Kelvin)      0.01300     0.01192     0.00797
 Rotational constants (GHZ):           0.27084     0.24840     0.16617
    1 imaginary frequencies ignored.
 Zero-point vibrational energy     937866.3 (Joules/Mol)
                                  224.15543 (Kcal/Mol)
 Warning -- explicit consideration of  32 degrees of freedom as
           vibrations may cause significant error
 Vibrational temperatures:     46.87    51.36    75.05    88.15   102.86
          (Kelvin)            111.48   123.92   145.08   167.33   198.10
                              222.48   240.59   258.32   283.80   305.77
                              343.24   344.43   355.40   382.40   385.33
                              411.25   440.11   475.21   539.05   599.22
                              611.37   619.38   689.79   709.62   758.81
                              826.78   876.85   907.71   918.75   935.44
                              975.38  1017.38  1043.79  1045.92  1083.58
                             1125.13  1152.15  1175.71  1213.61  1256.18
                             1264.84  1365.31  1390.06  1394.91  1444.76
                             1452.56  1466.10  1470.53  1474.43  1477.67
                             1489.57  1498.08  1536.59  1538.93  1560.86
                             1566.25  1585.72  1600.09  1623.56  1630.24
                             1677.50  1691.02  1699.01  1708.61  1740.16
                             1742.39  1757.99  1766.72  1865.94  1887.03
                             1899.44  1906.02  1957.75  1972.12  1973.20
                             2048.42  2072.88  2081.76  2099.16  2121.60
                             2134.20  2142.81  2148.04  2150.68  2151.10
                             2160.68  2165.07  2205.62  2216.95  2227.70
                             2279.53  2351.02  2363.76  2375.94  2401.84
                             2410.30  4363.05  4374.95  4398.42  4457.89
                             4468.65  4496.48  4562.83  4567.80  4572.82
                             4581.16  4589.69  4602.20  4603.87  4613.50
                             4616.42  4630.07  4633.98  4668.91  4675.94
                             4922.38  5172.65

 Zero-point correction=                           0.357214 (Hartree/Particle)
 Thermal correction to Energy=                    0.378929
 Thermal correction to Enthalpy=                  0.379873
 Thermal correction to Gibbs Free Energy=         0.305472
 Sum of electronic and zero-point Energies=          -3457.141682
 Sum of electronic and thermal Energies=             -3457.119968
 Sum of electronic and thermal Enthalpies=           -3457.119024
 Sum of electronic and thermal Free Energies=        -3457.193424

                     E (Thermal)             CV                S
                      KCal/Mol        Cal/Mol-Kelvin    Cal/Mol-Kelvin
 Total                  237.781             81.080            156.589
 Electronic               0.000              0.000              0.000
 Translational            0.889              2.981             43.537
 Rotational               0.889              2.981             34.618
 Vibrational            236.004             75.119             78.434
 Vibration     1          0.594              1.983              5.666
 Vibration     2          0.594              1.982              5.485
 Vibration     3          0.596              1.977              4.734
 Vibration     4          0.597              1.973              4.416
 Vibration     5          0.598              1.968              4.112
 Vibration     6          0.599              1.964              3.954
 Vibration     7          0.601              1.959              3.746
 Vibration     8          0.604              1.948              3.438
 Vibration     9          0.608              1.936              3.161
 Vibration    10          0.614              1.916              2.836
 Vibration    11          0.620              1.898              2.614
 Vibration    12          0.624              1.883              2.466
 Vibration    13          0.629              1.867              2.333
 Vibration    14          0.637              1.844              2.159
 Vibration    15          0.644              1.822              2.022
 Vibration    16          0.657              1.782              1.814
 Vibration    17          0.657              1.780              1.807
 Vibration    18          0.661              1.768              1.752
 Vibration    19          0.672              1.736              1.623
 Vibration    20          0.673              1.732              1.610
 Vibration    21          0.684              1.700              1.498
 Vibration    22          0.696              1.663              1.384
 Vibration    23          0.713              1.615              1.259
 Vibration    24          0.746              1.524              1.061
 Vibration    25          0.780              1.434              0.904
 Vibration    26          0.787              1.416              0.875
 Vibration    27          0.792              1.404              0.857
 Vibration    28          0.836              1.296              0.712
 Vibration    29          0.849              1.265              0.675
 Vibration    30          0.882              1.189              0.593
 Vibration    31          0.931              1.086              0.495
 Vibration    32          0.968              1.012              0.434

 Optimization completed.
    -- Stationary point found.
 Normal termination of Gaussian 16 at Wed Apr 14 08:11:14 2021.
