 Gaussian 16, Revision A.03,
 Gaussian 16:  ES64L-G16RevA.03 25-Dec-2016

 ----------------------------------------------------------------------
 # wB97XD def2tzvp, opt=(ts, noeigen, calcfc, maxcycles=70, maxstep=5),
  freq=noraman, scrf=(iefpcm, solvent=water)
 ----------------------------------------------------------------------

 ------------------------
 2_iteration/TS-186-2.out
 ------------------------
 Symbolic Z-matrix:
 Charge =  0 Multiplicity = 1

 SCF Done:  E(RwB97XD) =  -3591.37087678     A.U. after   15 cycles
 SCF Done:  E(RwB97XD) =  -3591.37087781     A.U. after    9 cycles
 SCF Done:  E(RwB97XD) =  -3591.37087789     A.U. after    8 cycles
 Optimization completed.
    -- Stationary point found.
 Normal termination of Gaussian 16 at Sun Feb  7 15:54:41 2021.

 ---------------------------------------------------------------------
 #N Geom=AllCheck Guess=TCheck SCRF=Check GenChk RwB97XD/def2TZVP Freq
 ---------------------------------------------------------------------

 Structure from the checkpoint file:  "/beegfs/scratch/user/q/tla25/Gau-56572.chk"
 ------------------------
 2_iteration/TS-186-2.out
 ------------------------
 Charge =  0 Multiplicity = 1

                         Standard orientation:
 ---------------------------------------------------------------------
 Center     Atomic      Atomic             Coordinates (Angstroms)
 Number     Number       Type             X           Y           Z
 ---------------------------------------------------------------------
      1          6           0       -1.075040    0.231857   -0.254665
      2          6           0       -2.491061    0.182848   -0.509371
      3          8           0       -3.154272    1.202720   -0.698128
      4          6           0       -0.154353   -0.809389   -0.060411
      5          6           0       -1.029723   -0.744780    2.629292
      6          1           0       -1.833570   -0.191255    2.144056
      7          1           0       -1.436969   -1.315823    3.461886
      8          1           0       -0.296380   -0.033651    3.000329
      9          7           0       -0.418388   -1.631016    1.643462
     10          1           0        0.462742   -2.020502    1.961144
     11          1           0       -1.027166   -2.415417    1.440030
     12          6           0        1.323349   -0.491947   -0.070939
     13          6           0        1.959676   -0.415519   -1.308183
     14          6           0        3.297534   -0.073262   -1.394544
     15          6           0        4.026293    0.193883   -0.244104
     16          6           0        3.400105    0.123580    0.988644
     17          6           0        2.056772   -0.212506    1.074613
     18          1           0        1.400770   -0.618232   -2.212050
     19          1           0        3.771853   -0.016919   -2.365762
     20          1           0        5.074020    0.456969   -0.309919
     21          1           0        3.952256    0.336291    1.894750
     22          1           0        1.597826   -0.217576    2.052164
     23         17           0       -0.422505   -2.320642   -1.009387
     24         35           0       -0.413746    2.017146   -0.001656
     25          6           0       -3.234646   -1.140133   -0.534342
     26          1           0       -3.137142   -1.606870   -1.514881
     27          1           0       -2.889607   -1.857478    0.207051
     28          1           0       -4.285464   -0.921191   -0.356419
 ---------------------------------------------------------------------

 SCF Done:  E(RwB97XD) =  -3591.37087789     A.U. after    1 cycles

 The electronic state is 1-A.
 Alpha  occ. eigenvalues -- -483.11952-101.70586 -62.66771 -56.45888 -56.45539
 Alpha  occ. eigenvalues --  -56.45527 -19.21256 -14.50479 -10.42406 -10.36713
 Alpha  occ. eigenvalues --  -10.32582 -10.32142 -10.31608 -10.30346 -10.29988
 Alpha  occ. eigenvalues --  -10.29770 -10.29721 -10.29650 -10.27898  -9.59201
 Alpha  occ. eigenvalues --   -8.80873  -7.33850  -7.32979  -7.32937  -6.63015
 Alpha  occ. eigenvalues --   -6.61902  -6.61866  -2.73405  -2.73085  -2.73057
 Alpha  occ. eigenvalues --   -2.72156  -2.72156  -1.12371  -1.06204  -0.99758
 Alpha  occ. eigenvalues --   -0.96526  -0.91209  -0.87137  -0.86125  -0.84440
 Alpha  occ. eigenvalues --   -0.80605  -0.80053  -0.74158  -0.71675  -0.68632
 Alpha  occ. eigenvalues --   -0.65555  -0.62160  -0.60041  -0.58986  -0.57255
 Alpha  occ. eigenvalues --   -0.56437  -0.56225  -0.54230  -0.53213  -0.52253
 Alpha  occ. eigenvalues --   -0.51714  -0.50822  -0.49524  -0.48719  -0.47567
 Alpha  occ. eigenvalues --   -0.46905  -0.45368  -0.44470  -0.44011  -0.43663
 Alpha  occ. eigenvalues --   -0.40744  -0.39977  -0.38841  -0.37094  -0.34544
 Alpha  occ. eigenvalues --   -0.34297  -0.32268  -0.28381
 Alpha virt. eigenvalues --    0.01829   0.03549   0.04854   0.05822   0.09919
 Alpha virt. eigenvalues --    0.10337   0.13399   0.13624   0.14156   0.14464
 Alpha virt. eigenvalues --    0.16134   0.16493   0.17492   0.18118   0.18713

 Mulliken charges:
               1
     1  C   -0.245813
     2  C    0.184955
     3  O   -0.478059
     4  C    0.276467
     5  C   -0.282976
     6  H    0.160932
     7  H    0.170269
     8  H    0.160169
     9  N   -0.331575
    10  H    0.300230
    11  H    0.286218
    12  C    0.185148
    13  C   -0.283328
    14  C   -0.130713
    15  C   -0.134977
    16  C   -0.177902
    17  C   -0.195540
    18  H    0.154038
    19  H    0.148400
    20  H    0.148916
    21  H    0.147208
    22  H    0.142572
    23  Cl  -0.101819
    24  Br  -0.143459
    25  C   -0.353782
    26  H    0.152949
    27  H    0.108055
    28  H    0.133418
 Sum of Mulliken charges =  -0.00000

 Dipole moment (field-independent basis, Debye):
    X=              5.2182    Y=             -8.2924    Z=              6.5667  Tot=             11.7947
 Quadrupole moment (field-independent basis, Debye-Ang):
   XX=           -112.1491   YY=           -111.5958   ZZ=            -92.4436
   XY=             16.5092   XZ=             -6.9895   YZ=             -5.3698

  Exact polarizability: 280.862   3.114 228.675  11.966  -1.724 229.166
 Approx polarizability: 216.328   2.220 193.294   8.550  -0.107 198.828

 ******    1 imaginary frequencies (negative Signs) ******

                      1                      2                      3
                      A                      A                      A
 Frequencies --   -324.1614                28.2323                53.7153
 Red. masses --      5.5939                 3.9720                 4.8821
 Frc consts  --      0.3463                 0.0019                 0.0083
 IR Inten    --    721.0308                 3.3033                 1.2423

                      4                      5                      6
                      A                      A                      A
 Frequencies --     68.0298                77.8042               107.3716
 Red. masses --      7.0415                 6.4497                 1.9994
 Frc consts  --      0.0192                 0.0230                 0.0136
 IR Inten    --      2.6353                 9.2315                 2.0660

                      7                      8                      9
                      A                      A                      A
 Frequencies --    124.6220               139.0714               189.4480
 Red. masses --      3.1440                 1.5110                 3.9460
 Frc consts  --      0.0288                 0.0172                 0.0834
 IR Inten    --      2.2381                 0.4533                 2.0491

                     10                     11                     12
                      A                      A                      A
 Frequencies --    197.2049               205.0090               218.8153
 Red. masses --      6.8505                 6.9269                 4.9441
 Frc consts  --      0.1570                 0.1715                 0.1395
 IR Inten    --      2.0683                 7.4749                 7.4423

                     13                     14                     15
                      A                      A                      A
 Frequencies --    267.3145               268.8866               304.4176
 Red. masses --      2.5258                 1.3587                 4.4878
 Frc consts  --      0.1063                 0.0579                 0.2450
 IR Inten    --      1.4790                 1.7833                 9.1591

                     16                     17                     18
                      A                      A                      A
 Frequencies --    319.6368               340.4564               357.9981
 Red. masses --      4.0040                 5.8015                 6.4969
 Frc consts  --      0.2410                 0.3962                 0.4906
 IR Inten    --     23.8436                 7.6922                20.4296

                     19                     20                     21
                      A                      A                      A
 Frequencies --    387.2144               419.2180               513.3985
 Red. masses --      4.2086                 2.9101                 4.4607
 Frc consts  --      0.3718                 0.3013                 0.6927
 IR Inten    --     10.5491                 0.0551                47.1640

                     22                     23                     24
                      A                      A                      A
 Frequencies --    565.2486               592.8844               625.3585
 Red. masses --      3.9926                 4.1776                 2.4170
 Frc consts  --      0.7516                 0.8652                 0.5569
 IR Inten    --     99.3447                95.8251                 6.5364

                     25                     26                     27
                      A                      A                      A
 Frequencies --    637.3911               648.1488               693.0672
 Red. masses --      5.8204                 2.8992                 2.2176
 Frc consts  --      1.3932                 0.7176                 0.6276
 IR Inten    --      3.0536               110.7377                43.0236

                     28                     29                     30
                      A                      A                      A
 Frequencies --    726.6193               744.8316               799.0585
 Red. masses --      1.7149                 4.3228                 2.4951
 Frc consts  --      0.5335                 1.4130                 0.9386
 IR Inten    --     62.7805               286.2427                 4.8143

                     31                     32                     33
                      A                      A                      A
 Frequencies --    873.8355               891.3132               917.0171
 Red. masses --      1.2636                 4.3873                 3.4181
 Frc consts  --      0.5685                 2.0536                 1.6935
 IR Inten    --      0.5877                12.7727                32.2572

                     34                     35                     36
                      A                      A                      A
 Frequencies --    963.2511              1006.1575              1014.0235
 Red. masses --      1.4805                 1.1470                 1.3482
 Frc consts  --      0.8094                 0.6841                 0.8168
 IR Inten    --      0.4277                11.8918                 0.6876

                     37                     38                     39
                      A                      A                      A
 Frequencies --   1026.0230              1030.1525              1034.8831
 Red. masses --      3.3696                 2.0426                 1.3292
 Frc consts  --      2.0900                 1.2771                 0.8387
 IR Inten    --     39.2905                51.0467                 2.5070

                     40                     41                     42
                      A                      A                      A
 Frequencies --   1042.3977              1066.0097              1070.7931
 Red. masses --      1.7728                 1.4849                 1.8519
 Frc consts  --      1.1350                 0.9942                 1.2511
 IR Inten    --     17.9580                36.2852                16.1762

                     43                     44                     45
                      A                      A                      A
 Frequencies --   1074.0444              1129.9179              1188.1538
 Red. masses --      3.6413                 1.5788                 1.1405
 Frc consts  --      2.4749                 1.1876                 0.9487
 IR Inten    --     90.2613                 6.1854                 0.8497

                     46                     47                     48
                      A                      A                      A
 Frequencies --   1209.4150              1225.7903              1235.4841
 Red. masses --      3.4860                 1.1401                 1.4386
 Frc consts  --      3.0042                 1.0093                 1.2938
 IR Inten    --    109.1614                 6.2903                30.2631

                     49                     50                     51
                      A                      A                      A
 Frequencies --   1291.4884              1322.8383              1334.9866
 Red. masses --      4.8589                 4.4993                 1.3479
 Frc consts  --      4.7749                 4.6388                 1.4154
 IR Inten    --    157.0301                 2.7274                 8.0117

                     52                     53                     54
                      A                      A                      A
 Frequencies --   1368.7547              1387.3391              1400.6652
 Red. masses --      1.3981                 1.6003                 3.0577
 Frc consts  --      1.5433                 1.8148                 3.5344
 IR Inten    --      8.5061               286.9642               934.7134

                     55                     56                     57
                      A                      A                      A
 Frequencies --   1465.5963              1467.9160              1491.0673
 Red. masses --      1.1857                 1.0944                 1.9600
 Frc consts  --      1.5006                 1.3894                 2.5674
 IR Inten    --     27.4482                 2.3404                12.3123

                     58                     59                     60
                      A                      A                      A
 Frequencies --   1492.6293              1495.2922              1503.8785
 Red. masses --      1.1009                 1.0626                 1.0584
 Frc consts  --      1.4451                 1.3998                 1.4103
 IR Inten    --     24.8064                18.6545                20.4060

                     61                     62                     63
                      A                      A                      A
 Frequencies --   1547.0653              1646.0953              1654.2015
 Red. masses --      2.2430                 1.2007                 7.2786
 Frc consts  --      3.1630                 1.9170                11.7347
 IR Inten    --     10.8085               140.8912               582.9056

                     64                     65                     66
                      A                      A                      A
 Frequencies --   1655.5243              1676.0186              3078.5100
 Red. masses --      4.5202                 5.7756                 1.0362
 Frc consts  --      7.2993                 9.5589                 5.7857
 IR Inten    --     58.2707                 0.4973                 9.9283

                     67                     68                     69
                      A                      A                      A
 Frequencies --   3079.2862              3156.4077              3157.0895
 Red. masses --      1.0337                 1.1005                 1.1038
 Frc consts  --      5.7748                 6.4600                 6.4819
 IR Inten    --     21.3509                14.8984                 3.2244

                     70                     71                     72
                      A                      A                      A
 Frequencies --   3172.2971              3181.8269              3202.2694
 Red. masses --      1.1035                 1.1054                 1.0864
 Frc consts  --      6.5426                 6.5934                 6.5636
 IR Inten    --     32.8616                12.5832                 0.2349

                     73                     74                     75
                      A                      A                      A
 Frequencies --   3211.1372              3220.1934              3227.6046
 Red. masses --      1.0896                 1.0935                 1.0976
 Frc consts  --      6.6197                 6.6809                 6.7366
 IR Inten    --      6.5898                18.2218                14.9817

                     76                     77                     78
                      A                      A                      A
 Frequencies --   3246.3447              3520.1272              3594.9594
 Red. masses --      1.0921                 1.0521                 1.0958
 Frc consts  --      6.7812                 7.6808                 8.3439
 IR Inten    --      9.5721                64.8137                65.7232

 - Thermochemistry -
 -------------------
 Temperature   298.150 Kelvin.  Pressure   1.00000 Atm.
 Atom     1 has atomic number  6 and mass  12.00000

 Molecular mass:   288.98690 amu.
 Principal axes and moments of inertia in atomic units:
                           1         2         3
     Eigenvalues --  3274.592694961.021116138.06579
           X            0.99841   0.05524  -0.01077
           Y           -0.05560   0.99779  -0.03643
           Z            0.00873   0.03697   0.99928
 This molecule is an asymmetric top.
 Rotational symmetry number  1.
 Warning -- assumption of classical behavior for rotation
           may cause significant error
 Rotational temperatures (Kelvin)      0.02645     0.01746     0.01411
 Rotational constants (GHZ):           0.55113     0.36378     0.29402
    1 imaginary frequencies ignored.
 Zero-point vibrational energy     579402.6 (Joules/Mol)
                                  138.48054 (Kcal/Mol)
 Warning -- explicit consideration of  22 degrees of freedom as
           vibrations may cause significant error
 Vibrational temperatures:     40.62    77.28    97.88   111.94   154.48
          (Kelvin)            179.30   200.09   272.57   283.73   294.96
                              314.83   384.61   386.87   437.99   459.89
                              489.84   515.08   557.12   603.16   738.67
                              813.27   853.03   899.75   917.06   932.54
                              997.17  1045.44  1071.65  1149.67  1257.25
                             1282.40  1319.38  1385.90  1447.64  1458.95
                             1476.22  1482.16  1488.97  1499.78  1533.75
                             1540.63  1545.31  1625.70  1709.49  1740.08
                             1763.64  1777.59  1858.16  1903.27  1920.75
                             1969.33  1996.07  2015.24  2108.67  2112.00
                             2145.31  2147.56  2151.39  2163.75  2225.88
                             2368.36  2380.03  2381.93  2411.42  4429.29
                             4430.41  4541.37  4542.35  4564.23  4577.94
                             4607.35  4620.11  4633.14  4643.80  4670.77
                             5064.68  5172.34

 Zero-point correction=                           0.220683 (Hartree/Particle)
 Thermal correction to Energy=                    0.236222
 Thermal correction to Enthalpy=                  0.237167
 Thermal correction to Gibbs Free Energy=         0.176377
 Sum of electronic and zero-point Energies=          -3591.150195
 Sum of electronic and thermal Energies=             -3591.134655
 Sum of electronic and thermal Enthalpies=           -3591.133711
 Sum of electronic and thermal Free Energies=        -3591.194501

                     E (Thermal)             CV                S
                      KCal/Mol        Cal/Mol-Kelvin    Cal/Mol-Kelvin
 Total                  148.232             56.553            127.943
 Electronic               0.000              0.000              0.000
 Translational            0.889              2.981             42.881
 Rotational               0.889              2.981             32.966
 Vibrational            146.454             50.591             52.096
 Vibration     1          0.593              1.984              5.950
 Vibration     2          0.596              1.976              4.676
 Vibration     3          0.598              1.969              4.210
 Vibration     4          0.599              1.964              3.946
 Vibration     5          0.606              1.943              3.316
 Vibration     6          0.610              1.928              3.027
 Vibration     7          0.615              1.914              2.817
 Vibration     8          0.633              1.854              2.233
 Vibration     9          0.637              1.844              2.159
 Vibration    10          0.640              1.833              2.088
 Vibration    11          0.647              1.812              1.969
 Vibration    12          0.672              1.733              1.614
 Vibration    13          0.673              1.730              1.603
 Vibration    14          0.695              1.665              1.392
 Vibration    15          0.706              1.636              1.312
 Vibration    16          0.720              1.595              1.210
 Vibration    17          0.733              1.559              1.131
 Vibration    18          0.756              1.497              1.011
 Vibration    19          0.782              1.428              0.895
 Vibration    20          0.868              1.220              0.625
 Vibration    21          0.921              1.106              0.513
 Vibration    22          0.950              1.047              0.462

 Optimization completed.
    -- Stationary point found.
 Normal termination of Gaussian 16 at Sun Feb  7 16:55:38 2021.
