 Gaussian 16, Revision C.01,
 Gaussian 16:  ES64L-G16RevC.01  3-Jul-2019

 ----------------------------------------------------------------------
 # opt=(calcfc,ts,noeigen,maxcycles=100,maxstep=10) freq=noraman wb97xd
  scrf=(iefpcm,solvent=water) def2tzvp
 ----------------------------------------------------------------------

 ----------
 TS-168.out
 ----------
 Symbolic Z-matrix:
 Charge =  0 Multiplicity = 1

 SCF Done:  E(RwB97XD) =  -1440.54587258     A.U. after   15 cycles
 SCF Done:  E(RwB97XD) =  -1440.54587264     A.U. after    7 cycles
 Optimization completed.
    -- Stationary point found.
 Normal termination of Gaussian 16 at Mon Jun  6 16:30:55 2022.

 ---------------------------------------------------------------------
 #N Geom=AllCheck Guess=TCheck SCRF=Check GenChk RwB97XD/def2TZVP Freq
 ---------------------------------------------------------------------

 Structure from the checkpoint file:  "/local/jobs/107530/Gau-1189211.chk"
 ----------
 TS-168.out
 ----------
 Charge =  0 Multiplicity = 1

                         Standard orientation:
 ---------------------------------------------------------------------
 Center     Atomic      Atomic             Coordinates (Angstroms)
 Number     Number       Type             X           Y           Z
 ---------------------------------------------------------------------
      1          6           0       -0.089162    0.602850   -0.162688
      2          6           0       -1.308304    1.329371   -0.372307
      3          8           0       -1.316115    2.533120   -0.661744
      4          6           0        0.044802   -0.801338   -0.080114
      5          6           0       -0.407432   -0.702164    2.743651
      6          1           0       -1.234610   -0.788285    3.446417
      7          1           0        0.505141   -1.032097    3.230066
      8          1           0       -0.303980    0.343472    2.442750
      9          7           0       -0.658821   -1.496953    1.545986
     10          1           0       -0.325032   -2.450618    1.633829
     11          1           0       -1.651477   -1.532276    1.338912
     12          6           0        1.436097   -1.387770   -0.056649
     13          6           0        2.307256   -1.059708    0.982242
     14          6           0        3.602249   -1.544133    1.003783
     15          6           0        4.060929   -2.358446   -0.022451
     16          6           0        3.207714   -2.683036   -1.063087
     17          6           0        1.904050   -2.206810   -1.077230
     18          1           0        1.988317   -0.393050    1.768639
     19          1           0        4.257648   -1.275460    1.822174
     20          1           0        5.076303   -2.733216   -0.010024
     21          1           0        3.551575   -3.312065   -1.874063
     22          1           0        1.257017   -2.469032   -1.901222
     23         17           0       -1.056041   -1.804277   -1.107942
     24          6           0        1.145347    1.451071   -0.163004
     25          6           0        2.022607    1.435815   -1.245011
     26          6           0        3.172900    2.211217   -1.247571
     27          6           0        3.460856    3.032587   -0.167090
     28          6           0        2.584019    3.077275    0.908420
     29          6           0        1.439037    2.295632    0.905024
     30          1           0        1.805811    0.793655   -2.090309
     31          1           0        3.844843    2.174433   -2.096303
     32          1           0        4.359414    3.636806   -0.164262
     33          1           0        2.795415    3.719036    1.754958
     34          1           0        0.761980    2.335127    1.750384
     35          6           0       -2.669326    0.698030   -0.220321
     36          6           0       -3.184353    0.416359    1.038624
     37          6           0       -4.473475   -0.083633    1.178994
     38          6           0       -5.258698   -0.299803    0.058250
     39          6           0       -4.757863    0.006552   -1.201890
     40          6           0       -3.476416    0.511690   -1.338708
     41          1           0       -2.589850    0.614489    1.921937
     42          1           0       -4.862295   -0.296381    2.166799
     43          1           0       -6.260954   -0.695038    0.163670
     44          1           0       -5.370990   -0.149981   -2.080577
     45          1           0       -3.087917    0.747251   -2.321902
 ---------------------------------------------------------------------

 SCF Done:  E(RwB97XD) =  -1440.54587264     A.U. after    1 cycles

 The electronic state is 1-A.
 Alpha  occ. eigenvalues -- -101.69766 -19.21061 -14.50028 -10.41617 -10.36020
 Alpha  occ. eigenvalues --  -10.32433 -10.31617 -10.30010 -10.29819 -10.29715
 Alpha  occ. eigenvalues --  -10.29604 -10.29565 -10.29496 -10.29485 -10.29454
 Alpha  occ. eigenvalues --  -10.29382 -10.29267 -10.29180 -10.29131 -10.28594
 Alpha  occ. eigenvalues --  -10.28565 -10.28492 -10.28272 -10.28232 -10.27394
 Alpha  occ. eigenvalues --   -9.58402  -7.33026  -7.32194  -7.32148  -1.11836
 Alpha  occ. eigenvalues --   -1.05788  -0.99136  -0.96928  -0.96256  -0.95735
 Alpha  occ. eigenvalues --   -0.89262  -0.86939  -0.85942  -0.85751  -0.85457
 Alpha  occ. eigenvalues --   -0.84555  -0.81897  -0.80036  -0.75432  -0.72114
 Alpha  occ. eigenvalues --   -0.71249  -0.70840  -0.69863  -0.69227  -0.67573
 Alpha  occ. eigenvalues --   -0.64933  -0.63936  -0.61771  -0.60832  -0.58794
 Alpha  occ. eigenvalues --   -0.58650  -0.57238  -0.56418  -0.56066  -0.55142
 Alpha  occ. eigenvalues --   -0.54365  -0.53773  -0.53418  -0.52816  -0.52515
 Alpha  occ. eigenvalues --   -0.51647  -0.51277  -0.50397  -0.50279  -0.49004
 Alpha  occ. eigenvalues --   -0.48720  -0.48245  -0.47021  -0.46717  -0.45757
 Alpha  occ. eigenvalues --   -0.45166  -0.44413  -0.43928  -0.43272  -0.42737
 Alpha  occ. eigenvalues --   -0.42314  -0.42182  -0.40310  -0.39486  -0.35004
 Alpha  occ. eigenvalues --   -0.34425  -0.34228  -0.33930  -0.33294  -0.32783
 Alpha  occ. eigenvalues --   -0.31360  -0.28068
 Alpha virt. eigenvalues --    0.01114   0.03369   0.04721   0.05025   0.05776
 Alpha virt. eigenvalues --    0.06067   0.06637   0.08537   0.10744   0.12060
 Alpha virt. eigenvalues --    0.13005   0.13473   0.13660   0.14152   0.15187

 Mulliken charges:
               1
     1  C   -0.375804
     2  C    0.245999
     3  O   -0.488169
     4  C    0.355907
     5  C   -0.377669
     6  H    0.185207
     7  H    0.179780
     8  H    0.156578
     9  N   -0.273617
    10  H    0.293570
    11  H    0.284429
    12  C    0.074119
    13  C   -0.226556
    14  C   -0.175717
    15  C   -0.132446
    16  C   -0.137973
    17  C   -0.249058
    18  H    0.189316
    19  H    0.144254
    20  H    0.146488
    21  H    0.145486
    22  H    0.143634
    23  Cl  -0.113821
    24  C    0.335141
    25  C   -0.226513
    26  C   -0.175500
    27  C   -0.131761
    28  C   -0.157012
    29  C   -0.263863
    30  H    0.140340
    31  H    0.136121
    32  H    0.139999
    33  H    0.136722
    34  H    0.150912
    35  C    0.196890
    36  C   -0.373233
    37  C   -0.117744
    38  C   -0.153985
    39  C   -0.133862
    40  C   -0.253988
    41  H    0.184420
    42  H    0.144017
    43  H    0.144981
    44  H    0.143532
    45  H    0.140445
 Sum of Mulliken charges =  -0.00000

 Dipole moment (field-independent basis, Debye):
    X=              1.5415    Y=             -9.1831    Z=              6.5894  Tot=             11.4072
 Quadrupole moment (field-independent basis, Debye-Ang):
   XX=           -135.9126   YY=           -165.2400   ZZ=           -132.5568
   XY=              9.0726   XZ=             -5.1540   YZ=              2.2496

  Exact polarizability:     446.076      13.380     356.565       2.351      16.046     371.765
 Approx polarizability:     339.583      14.387     292.959       1.438      16.782     324.925

 ******    1 imaginary frequencies (negative Signs) ******

                      1                      2                      3
                      A                      A                      A
 Frequencies --   -334.2860                16.9993                30.7969
 Red. masses --      6.2054                 5.3467                 6.4258
 Frc consts  --      0.4086                 0.0009                 0.0036
 IR Inten    --    708.8515                 0.7075                 5.9210

                      4                      5                      6
                      A                      A                      A
 Frequencies --     42.3169                53.8721                62.1222
 Red. masses --      4.4590                 4.5791                 4.3502
 Frc consts  --      0.0047                 0.0078                 0.0099
 IR Inten    --      1.7637                 0.8055                 0.2111

                      7                      8                      9
                      A                      A                      A
 Frequencies --     63.4505                72.1772                93.7949
 Red. masses --      4.8104                 3.9633                 4.3901
 Frc consts  --      0.0114                 0.0122                 0.0228
 IR Inten    --      2.4790                 2.0622                 3.9094

                     10                     11                     12
                      A                      A                      A
 Frequencies --    119.0907               137.9585               180.9266
 Red. masses --      5.2613                 3.5377                 3.5650
 Frc consts  --      0.0440                 0.0397                 0.0688
 IR Inten    --      2.3577                 0.2130                13.9192

                     13                     14                     15
                      A                      A                      A
 Frequencies --    188.7996               194.7958               199.8514
 Red. masses --      2.7322                 4.4809                 5.1901
 Frc consts  --      0.0574                 0.1002                 0.1221
 IR Inten    --      7.7168                18.1315                 4.6277

                     16                     17                     18
                      A                      A                      A
 Frequencies --    234.6011               244.4347               249.7727
 Red. masses --      5.1348                 4.8815                 1.5355
 Frc consts  --      0.1665                 0.1718                 0.0564
 IR Inten    --      8.6635                 1.9850                 0.9346

                     19                     20                     21
                      A                      A                      A
 Frequencies --    271.0495               283.1631               311.8460
 Red. masses --      4.5293                 3.1874                 3.4760
 Frc consts  --      0.1961                 0.1506                 0.1992
 IR Inten    --      4.2743                 0.9453                35.5114

                     22                     23                     24
                      A                      A                      A
 Frequencies --    326.5433               365.4298               375.0147
 Red. masses --      6.2816                 8.2251                 5.3373
 Frc consts  --      0.3946                 0.6471                 0.4422
 IR Inten    --     32.7778                24.2046                 9.6387

                     25                     26                     27
                      A                      A                      A
 Frequencies --    420.8095               422.2528               427.7370
 Red. masses --      2.9697                 2.9646                 3.0786
 Frc consts  --      0.3098                 0.3114                 0.3319
 IR Inten    --      4.0048                 3.7851                 1.4929

                     28                     29                     30
                      A                      A                      A
 Frequencies --    432.3794               512.7777               526.2613
 Red. masses --      4.8617                 4.6592                 3.8458
 Frc consts  --      0.5355                 0.7218                 0.6275
 IR Inten    --     44.9939                14.3503                20.1026

                     31                     32                     33
                      A                      A                      A
 Frequencies --    555.3467               587.0870               626.9908
 Red. masses --      3.8898                 4.6638                 4.1889
 Frc consts  --      0.7068                 0.9471                 0.9702
 IR Inten    --     12.7078               112.2931                75.0495

                     34                     35                     36
                      A                      A                      A
 Frequencies --    634.9577               636.0123               639.2191
 Red. masses --      4.1332                 4.8293                 5.9457
 Frc consts  --      0.9818                 1.1510                 1.4314
 IR Inten    --     10.6656                 6.4829                 5.9701

                     37                     38                     39
                      A                      A                      A
 Frequencies --    644.7405               690.9673               695.9092
 Red. masses --      4.6479                 2.9440                 3.5671
 Frc consts  --      1.1383                 0.8281                 1.0178
 IR Inten    --     88.0917                25.1901                69.0433

                     40                     41                     42
                      A                      A                      A
 Frequencies --    725.7403               727.6132               733.4062
 Red. masses --      1.5752                 1.6198                 1.5760
 Frc consts  --      0.4888                 0.5052                 0.4995
 IR Inten    --     95.4208                76.7199                96.0280

                     43                     44                     45
                      A                      A                      A
 Frequencies --    768.3813               783.0217               800.8315
 Red. masses --      2.4565                 3.4242                 2.2440
 Frc consts  --      0.8545                 1.2370                 0.8479
 IR Inten    --     94.0808                39.8051                33.0938

                     46                     47                     48
                      A                      A                      A
 Frequencies --    810.3829               827.4068               868.3480
 Red. masses --      4.6422                 4.5301                 3.5934
 Frc consts  --      1.7962                 1.8273                 1.5964
 IR Inten    --     32.0867               177.2219                63.1623

                     49                     50                     51
                      A                      A                      A
 Frequencies --    876.4388               877.8983               885.4446
 Red. masses --      1.2611                 1.2506                 1.2608
 Frc consts  --      0.5708                 0.5679                 0.5824
 IR Inten    --      2.6602                 1.7406                 1.6861

                     52                     53                     54
                      A                      A                      A
 Frequencies --    929.4575               956.5684               966.8979
 Red. masses --      3.9335                 1.5228                 1.4729
 Frc consts  --      2.0021                 0.8210                 0.8113
 IR Inten    --      5.3508                19.9221                 9.8284

                     55                     56                     57
                      A                      A                      A
 Frequencies --    969.5784              1010.7523              1016.8605
 Red. masses --      1.5066                 1.3812                 1.4523
 Frc consts  --      0.8345                 0.8314                 0.8848
 IR Inten    --      6.5461                 0.8302                 2.5215

                     58                     59                     60
                      A                      A                      A
 Frequencies --   1018.2360              1024.9139              1026.5195
 Red. masses --      1.4370                 1.3287                 4.0107
 Frc consts  --      0.8778                 0.8223                 2.4900
 IR Inten    --      1.5205                 0.4453                 2.6032

                     61                     62                     63
                      A                      A                      A
 Frequencies --   1027.0224              1027.9455              1030.2527
 Red. masses --      4.8401                 3.7081                 1.3163
 Frc consts  --      3.0079                 2.3086                 0.8231
 IR Inten    --      0.7490                 2.7460                 4.5592

                     64                     65                     66
                      A                      A                      A
 Frequencies --   1035.9449              1036.4462              1057.4498
 Red. masses --      1.2985                 1.3395                 2.6360
 Frc consts  --      0.8211                 0.8478                 1.7367
 IR Inten    --      6.9963                 5.0410                 8.6494

                     67                     68                     69
                      A                      A                      A
 Frequencies --   1062.0026              1068.1747              1076.9355
 Red. masses --      2.1690                 2.1791                 3.2429
 Frc consts  --      1.4413                 1.4649                 2.2159
 IR Inten    --     17.2076                14.0880                99.8612

                     70                     71                     72
                      A                      A                      A
 Frequencies --   1092.3026              1109.6990              1110.9628
 Red. masses --      1.3151                 1.5566                 1.5547
 Frc consts  --      0.9244                 1.1293                 1.1306
 IR Inten    --     30.1412                21.8729                 7.5792

                     73                     74                     75
                      A                      A                      A
 Frequencies --   1122.2193              1135.9509              1181.0384
 Red. masses --      2.0104                 2.1458                 1.1354
 Frc consts  --      1.4918                 1.6314                 0.9331
 IR Inten    --     29.9348                22.0383                 0.6449

                     76                     77                     78
                      A                      A                      A
 Frequencies --   1183.8247              1187.9618              1200.3710
 Red. masses --      1.1391                 1.1246                 3.4104
 Frc consts  --      0.9405                 0.9351                 2.8953
 IR Inten    --      0.3896                 0.1033               141.4727

                     79                     80                     81
                      A                      A                      A
 Frequencies --   1207.2600              1207.4367              1223.6108
 Red. masses --      1.1258                 1.1280                 1.1244
 Frc consts  --      0.9668                 0.9689                 0.9919
 IR Inten    --      0.5355                 0.6129                 6.6610

                     82                     83                     84
                      A                      A                      A
 Frequencies --   1225.0149              1260.3695              1309.5810
 Red. masses --      1.4331                 3.9986                 4.5132
 Frc consts  --      1.2671                 3.7425                 4.5604
 IR Inten    --     26.5570                 1.8111                 8.7940

                     85                     86                     87
                      A                      A                      A
 Frequencies --   1319.5502              1322.2975              1336.3102
 Red. masses --      4.2017                 4.5352                 1.3442
 Frc consts  --      4.3105                 4.6720                 1.4143
 IR Inten    --     13.6301                37.0731                36.9429

                     88                     89                     90
                      A                      A                      A
 Frequencies --   1356.8899              1358.6016              1367.0695
 Red. masses --      1.5072                 1.4918                 1.5035
 Frc consts  --      1.6350                 1.6223                 1.6555
 IR Inten    --     44.3285                10.1417                18.8609

                     91                     92                     93
                      A                      A                      A
 Frequencies --   1381.1735              1390.4393              1451.9011
 Red. masses --      5.3950                 4.3733                 1.2009
 Frc consts  --      6.0637                 4.9816                 1.4916
 IR Inten    --   1264.9657               294.2478                 8.4828

                     94                     95                     96
                      A                      A                      A
 Frequencies --   1487.4296              1488.6723              1492.7353
 Red. masses --      2.2032                 2.2157                 2.2803
 Frc consts  --      2.8720                 2.8930                 2.9937
 IR Inten    --      3.9240                23.1224                31.9415

                     97                     98                     99
                      A                      A                      A
 Frequencies --   1501.7847              1505.9334              1541.9381
 Red. masses --      1.0455                 1.0404                 2.3346
 Frc consts  --      1.3893                 1.3902                 3.2704
 IR Inten    --     21.6761                15.0904                11.1733

                    100                    101                    102
                      A                      A                      A
 Frequencies --   1542.7987              1546.1557              1613.8410
 Red. masses --      2.3879                 2.2379                12.2405
 Frc consts  --      3.3487                 3.1520                18.7832
 IR Inten    --     33.7236                15.7966               772.2985

                    103                    104                    105
                      A                      A                      A
 Frequencies --   1632.9314              1646.1675              1649.6281
 Red. masses --      1.0937                 5.7588                 5.6894
 Frc consts  --      1.7183                 9.1946                 9.1219
 IR Inten    --     38.5341                 2.0985                 9.4441

                    106                    107                    108
                      A                      A                      A
 Frequencies --   1653.8248              1672.0032              1675.0826
 Red. masses --      5.7218                 5.9929                 5.8714
 Frc consts  --      9.2206                 9.8711                 9.7065
 IR Inten    --      0.9360                41.3488                 0.9321

                    109                    110                    111
                      A                      A                      A
 Frequencies --   1675.4915              3057.6838              3140.5489
 Red. masses --      5.8509                 1.0410                 1.0970
 Frc consts  --      9.6774                 5.7346                 6.3748
 IR Inten    --      0.8765                28.3704                 5.8238

                    112                    113                    114
                      A                      A                      A
 Frequencies --   3186.0036              3188.3399              3189.6846
 Red. masses --      1.0859                 1.1043                 1.0878
 Frc consts  --      6.4943                 6.6138                 6.5205
 IR Inten    --      9.2839                13.3655                 1.2683

                    115                    116                    117
                      A                      A                      A
 Frequencies --   3193.9856              3199.3554              3199.8454
 Red. masses --      1.0859                 1.0913                 1.0876
 Frc consts  --      6.5269                 6.5814                 6.5613
 IR Inten    --      1.9515                14.7926                 0.0401

                    118                    119                    120
                      A                      A                      A
 Frequencies --   3201.0549              3206.2330              3207.6195
 Red. masses --      1.0866                 1.0951                 1.0916
 Frc consts  --      6.5600                 6.6329                 6.6175
 IR Inten    --      0.2994                51.7612                12.8739

                    121                    122                    123
                      A                      A                      A
 Frequencies --   3211.2554              3214.1128              3217.6630
 Red. masses --      1.0910                 1.0949                 1.0988
 Frc consts  --      6.6288                 6.6640                 6.7026
 IR Inten    --     15.2589                35.1851                22.0447

                    124                    125                    126
                      A                      A                      A
 Frequencies --   3222.7292              3223.2739              3242.3718
 Red. masses --      1.0965                 1.0988                 1.0927
 Frc consts  --      6.7095                 6.7260                 6.7681
 IR Inten    --     25.5561                15.5995                 4.0375

                    127                    128                    129
                      A                      A                      A
 Frequencies --   3254.3744              3507.0607              3592.1252
 Red. masses --      1.0919                 1.0525                 1.0959
 Frc consts  --      6.8132                 7.6269                 8.3318
 IR Inten    --      4.3516                74.1907               112.9702

 - Thermochemistry -
 -------------------
 Temperature   298.150 Kelvin.  Pressure   1.00000 Atm.
 Atom     1 has atomic number  6 and mass  12.00000

 Molecular mass:   349.12334 amu.
 Principal axes and moments of inertia in atomic units:
                           1         2         3
     Eigenvalues --  5291.20787********************
           X            0.99998   0.00481  -0.00435
           Y           -0.00483   0.99998  -0.00424
           Z            0.00433   0.00426   0.99998
 This molecule is an asymmetric top.
 Rotational symmetry number  1.
 Warning -- assumption of classical behavior for rotation
           may cause significant error
 Rotational temperatures (Kelvin)      0.01637     0.00811     0.00673
 Rotational constants (GHZ):           0.34108     0.16902     0.14019
    1 imaginary frequencies ignored.
 Zero-point vibrational energy     960737.1 (Joules/Mol)
                                  229.62168 (Kcal/Mol)
 Warning -- explicit consideration of  31 degrees of freedom as
           vibrations may cause significant error
 Vibrational temperatures:     24.46    44.31    60.88    77.51    89.38
          (Kelvin)             91.29   103.85   134.95   171.34   198.49
                              260.31   271.64   280.27   287.54   337.54
                              351.69   359.37   389.98   407.41   448.68
                              469.82   525.77   539.56   605.45   607.53
                              615.42   622.10   737.77   757.17   799.02
                              844.69   902.10   913.56   915.08   919.69
                              927.64   994.15  1001.26  1044.18  1046.87
                             1055.21  1105.53  1126.59  1152.22  1165.96
                             1190.45  1249.36  1261.00  1263.10  1273.96
                             1337.28  1376.29  1391.15  1395.01  1454.25
                             1463.04  1465.01  1474.62  1476.93  1477.66
                             1478.98  1482.30  1490.49  1491.21  1521.43
                             1527.98  1536.87  1549.47  1571.58  1596.61
                             1598.43  1614.62  1634.38  1699.25  1703.26
                             1709.21  1727.07  1736.98  1737.23  1760.50
                             1762.52  1813.39  1884.19  1898.54  1902.49
                             1922.65  1952.26  1954.72  1966.91  1987.20
                             2000.53  2088.96  2140.08  2141.87  2147.71
                             2160.73  2166.70  2218.50  2219.74  2224.57
                             2321.96  2349.42  2368.47  2373.45  2379.49
                             2405.64  2410.07  2410.66  4399.33  4518.55
                             4583.95  4587.31  4589.24  4595.43  4603.16
                             4603.86  4605.60  4613.05  4615.05  4620.28
                             4624.39  4629.50  4636.79  4637.57  4665.05
                             4682.32  5045.88  5168.27

 Zero-point correction=                           0.365925 (Hartree/Particle)
 Thermal correction to Energy=                    0.387715
 Thermal correction to Enthalpy=                  0.388659
 Thermal correction to Gibbs Free Energy=         0.313219
 Sum of electronic and zero-point Energies=          -1440.179947
 Sum of electronic and thermal Energies=             -1440.158157
 Sum of electronic and thermal Enthalpies=           -1440.157213
 Sum of electronic and thermal Free Energies=        -1440.232654

                     E (Thermal)             CV                S
                      KCal/Mol        Cal/Mol-Kelvin    Cal/Mol-Kelvin
 Total                  243.295             84.297            158.778
 Electronic               0.000              0.000              0.000
 Translational            0.889              2.981             43.445
 Rotational               0.889              2.981             34.941
 Vibrational            241.518             78.336             80.392
 Vibration     1          0.593              1.986              6.957
 Vibration     2          0.594              1.984              5.777
 Vibration     3          0.595              1.980              5.148
 Vibration     4          0.596              1.976              4.670
 Vibration     5          0.597              1.972              4.389
 Vibration     6          0.597              1.972              4.347
 Vibration     7          0.598              1.967              4.093
 Vibration     8          0.603              1.954              3.579
 Vibration     9          0.609              1.933              3.115
 Vibration    10          0.614              1.915              2.832
 Vibration    11          0.630              1.866              2.319
 Vibration    12          0.633              1.855              2.240
 Vibration    13          0.635              1.847              2.182
 Vibration    14          0.638              1.840              2.134
 Vibration    15          0.654              1.788              1.843
 Vibration    16          0.660              1.772              1.770
 Vibration    17          0.663              1.763              1.732
 Vibration    18          0.675              1.727              1.590
 Vibration    19          0.682              1.705              1.514
 Vibration    20          0.700              1.651              1.353
 Vibration    21          0.710              1.622              1.277
 Vibration    22          0.739              1.543              1.099
 Vibration    23          0.746              1.523              1.059
 Vibration    24          0.783              1.425              0.889
 Vibration    25          0.785              1.422              0.884
 Vibration    26          0.789              1.410              0.866
 Vibration    27          0.793              1.400              0.851
 Vibration    28          0.868              1.222              0.627
 Vibration    29          0.881              1.192              0.596
 Vibration    30          0.911              1.128              0.533
 Vibration    31          0.944              1.059              0.472

 Optimization completed.
    -- Stationary point found.
 Normal termination of Gaussian 16 at Mon Jun  6 19:49:52 2022.
