 Gaussian 16, Revision A.03,
 Gaussian 16:  ES64L-G16RevA.03 25-Dec-2016

 ----------------------------------------------------------------------
 # wB97XD def2tzvp, opt=(ts, noeigen, calcfc, maxcycles=70, maxstep=3),
  freq=noraman, scrf=(iefpcm, solvent=water)
 ----------------------------------------------------------------------

 -----------------------
 3_iteration/TS-16-3.out
 -----------------------
 Symbolic Z-matrix:
 Charge =  0 Multiplicity = 1

 SCF Done:  E(RwB97XD) =  -980.949950547     A.U. after   15 cycles
 SCF Done:  E(RwB97XD) =  -980.949981093     A.U. after   10 cycles
 SCF Done:  E(RwB97XD) =  -980.949990707     A.U. after   11 cycles
 SCF Done:  E(RwB97XD) =  -980.949990242     A.U. after    8 cycles
 SCF Done:  E(RwB97XD) =  -980.949990034     A.U. after    7 cycles
 Optimization completed.
    -- Stationary point found.
 Normal termination of Gaussian 16 at Sun Jun 13 23:08:13 2021.

 ---------------------------------------------------------------------
 #N Geom=AllCheck Guess=TCheck SCRF=Check GenChk RwB97XD/def2TZVP Freq
 ---------------------------------------------------------------------

 Structure from the checkpoint file:  "/beegfs/scratch/user/q/tla25/Gau-395924.chk"
 -----------------------
 3_iteration/TS-16-3.out
 -----------------------
 Charge =  0 Multiplicity = 1

                         Standard orientation:
 ---------------------------------------------------------------------
 Center     Atomic      Atomic             Coordinates (Angstroms)
 Number     Number       Type             X           Y           Z
 ---------------------------------------------------------------------
      1          6           0        0.507913   -0.416896   -0.121803
      2          6           0        1.583115    0.359170    0.353734
      3          8           0        1.455715    1.312157    1.154749
      4          6           0       -0.843603   -0.099089    0.164612
      5          6           0       -0.247837   -1.173621    2.796455
      6          1           0       -0.959073   -1.989058    2.904501
      7          1           0        0.594932   -1.505079    2.184887
      8          1           0        0.129129   -0.892028    3.780421
      9          7           0       -0.879497   -0.046359    2.131953
     10          1           0       -1.794485    0.153521    2.510954
     11          1           0       -0.284973    0.778670    2.193704
     12          6           0       -1.840546   -1.172650   -0.181110
     13          6           0       -1.560829   -2.506676    0.123931
     14          6           0       -2.450085   -3.516223   -0.200854
     15          6           0       -3.638252   -3.217315   -0.853519
     16          6           0       -3.921941   -1.901063   -1.178159
     17          6           0       -3.034034   -0.888860   -0.842135
     18          1           0       -0.634644   -2.761381    0.619560
     19          1           0       -2.212092   -4.541140    0.053999
     20          1           0       -4.333295   -4.006290   -1.111200
     21          1           0       -4.838412   -1.654233   -1.698964
     22          1           0       -3.274012    0.128447   -1.116238
     23          6           0       -1.322155    1.318166   -0.065610
     24          6           0       -2.437466    1.850371    0.580115
     25          6           0       -2.882906    3.132724    0.302588
     26          6           0       -2.229514    3.908418   -0.643320
     27          6           0       -1.135439    3.382622   -1.313094
     28          6           0       -0.691246    2.100918   -1.028154
     29          1           0       -2.995032    1.257763    1.293509
     30          1           0       -3.748835    3.521653    0.822992
     31          1           0       -2.576795    4.910026   -0.862744
     32          1           0       -0.622828    3.970966   -2.063715
     33          1           0        0.158877    1.693844   -1.558460
     34          1           0        0.722198   -1.373471   -0.572230
     35          6           0        2.975654   -0.022960   -0.073479
     36          6           0        4.046278    0.282312    0.762949
     37          6           0        5.343184   -0.047267    0.402307
     38          6           0        5.588992   -0.676250   -0.811094
     39          6           0        4.530642   -0.973289   -1.658273
     40          6           0        3.232710   -0.651791   -1.289651
     41          1           0        3.846190    0.780976    1.702580
     42          1           0        6.165088    0.187363    1.067315
     43          1           0        6.602080   -0.929969   -1.097136
     44          1           0        4.716483   -1.452796   -2.611242
     45          1           0        2.414446   -0.875027   -1.962759
 ---------------------------------------------------------------------

 SCF Done:  E(RwB97XD) =  -980.949990034     A.U. after    1 cycles

 The electronic state is 1-A.
 Alpha  occ. eigenvalues --  -19.20177 -14.47404 -10.35964 -10.34637 -10.31171
 Alpha  occ. eigenvalues --  -10.30829 -10.30558 -10.29492 -10.29402 -10.29394
 Alpha  occ. eigenvalues --  -10.29361 -10.29274 -10.29243 -10.29236 -10.29235
 Alpha  occ. eigenvalues --  -10.29170 -10.29071 -10.29058 -10.29015 -10.28996
 Alpha  occ. eigenvalues --  -10.28930 -10.28911 -10.28738 -10.24844  -1.10575
 Alpha  occ. eigenvalues --   -1.03190  -0.98001  -0.96656  -0.96407  -0.91277
 Alpha  occ. eigenvalues --   -0.86594  -0.85812  -0.85507  -0.85081  -0.84986
 Alpha  occ. eigenvalues --   -0.82677  -0.78556  -0.75881  -0.71855  -0.71131
 Alpha  occ. eigenvalues --   -0.70463  -0.69959  -0.69665  -0.66616  -0.63951
 Alpha  occ. eigenvalues --   -0.62649  -0.62179  -0.60236  -0.59068  -0.56679
 Alpha  occ. eigenvalues --   -0.56078  -0.55859  -0.55140  -0.54632  -0.54254
 Alpha  occ. eigenvalues --   -0.53782  -0.52658  -0.52529  -0.51383  -0.50924
 Alpha  occ. eigenvalues --   -0.50843  -0.50312  -0.49818  -0.48240  -0.47711
 Alpha  occ. eigenvalues --   -0.47317  -0.46797  -0.46423  -0.44826  -0.44345
 Alpha  occ. eigenvalues --   -0.43768  -0.43515  -0.42589  -0.42266  -0.41937
 Alpha  occ. eigenvalues --   -0.41354  -0.34573  -0.34430  -0.33830  -0.33751
 Alpha  occ. eigenvalues --   -0.33259  -0.33116  -0.31722  -0.27708
 Alpha virt. eigenvalues --   -0.00024   0.03999   0.04424   0.04893   0.05384
 Alpha virt. eigenvalues --    0.05996   0.09929   0.10832   0.12594   0.13120
 Alpha virt. eigenvalues --    0.13448   0.14037   0.14634   0.15124   0.16236

 Mulliken charges:
               1
     1  C   -0.597492
     2  C    0.344452
     3  O   -0.570599
     4  C    0.587480
     5  C   -0.321389
     6  H    0.162858
     7  H    0.148710
     8  H    0.157366
     9  N   -0.320438
    10  H    0.265827
    11  H    0.278334
    12  C    0.074624
    13  C   -0.316154
    14  C   -0.138063
    15  C   -0.145792
    16  C   -0.139426
    17  C   -0.242814
    18  H    0.181910
    19  H    0.143082
    20  H    0.145198
    21  H    0.142852
    22  H    0.169364
    23  C    0.105065
    24  C   -0.307642
    25  C   -0.137307
    26  C   -0.138799
    27  C   -0.163370
    28  C   -0.204188
    29  H    0.156177
    30  H    0.143210
    31  H    0.144443
    32  H    0.140995
    33  H    0.154335
    34  H    0.165445
    35  C    0.126337
    36  C   -0.242454
    37  C   -0.134751
    38  C   -0.135645
    39  C   -0.146527
    40  C   -0.251250
    41  H    0.136040
    42  H    0.141105
    43  H    0.144409
    44  H    0.141297
    45  H    0.153189
 Sum of Mulliken charges =  -0.00000

 Dipole moment (field-independent basis, Debye):
    X=             -5.0785    Y=             -3.2770    Z=              1.9770  Tot=              6.3591
 Quadrupole moment (field-independent basis, Debye-Ang):
   XX=           -126.0802   YY=           -133.7378   ZZ=           -129.0070
   XY=             -6.3732   XZ=             -7.5111   YZ=             -4.3129

  Exact polarizability: 454.099   1.587 369.095  -2.483   5.855 322.284
 Approx polarizability: 336.671  -3.222 298.558  -1.933   7.994 277.003

 ******    1 imaginary frequencies (negative Signs) ******

                      1                      2                      3
                      A                      A                      A
 Frequencies --   -368.1026                26.3286                33.6022
 Red. masses --      5.0995                 4.9051                 3.8696
 Frc consts  --      0.4071                 0.0020                 0.0026
 IR Inten    --    588.9226                 0.3590                 0.6512

                      4                      5                      6
                      A                      A                      A
 Frequencies --     35.7641                60.0625                60.7199
 Red. masses --      4.0436                 3.9967                 4.3920
 Frc consts  --      0.0030                 0.0085                 0.0095
 IR Inten    --      1.4802                 0.5063                 0.7790

                      7                      8                      9
                      A                      A                      A
 Frequencies --     78.0921               108.7908               125.3236
 Red. masses --      4.3601                 2.8395                 4.2426
 Frc consts  --      0.0157                 0.0198                 0.0393
 IR Inten    --      1.8813                 1.8368                 3.8400

                     10                     11                     12
                      A                      A                      A
 Frequencies --    131.4951               163.1890               174.8857
 Red. masses --      5.4684                 3.2958                 3.8115
 Frc consts  --      0.0557                 0.0517                 0.0687
 IR Inten    --      9.6864                23.4193                22.7419

                     13                     14                     15
                      A                      A                      A
 Frequencies --    189.4128               229.6302               258.1255
 Red. masses --      4.2468                 4.6546                 4.0855
 Frc consts  --      0.0898                 0.1446                 0.1604
 IR Inten    --      2.4833                 0.5416                 2.8383

                     16                     17                     18
                      A                      A                      A
 Frequencies --    276.2938               279.2861               298.8258
 Red. masses --      1.8876                 2.1226                 2.8687
 Frc consts  --      0.0849                 0.0975                 0.1509
 IR Inten    --      1.8405                 0.9105                 2.1351

                     19                     20                     21
                      A                      A                      A
 Frequencies --    309.0625               331.0714               353.2903
 Red. masses --      4.5640                 5.2186                 5.2001
 Frc consts  --      0.2569                 0.3370                 0.3824
 IR Inten    --      3.1130                51.6479                14.7649

                     22                     23                     24
                      A                      A                      A
 Frequencies --    415.3278               421.4524               426.4962
 Red. masses --      5.3285                 2.9128                 2.9215
 Frc consts  --      0.5415                 0.3048                 0.3131
 IR Inten    --      4.6726                 0.2728                 0.7342

                     25                     26                     27
                      A                      A                      A
 Frequencies --    433.5023               469.2008               491.8623
 Red. masses --      2.9468                 3.6441                 4.2165
 Frc consts  --      0.3263                 0.4727                 0.6010
 IR Inten    --      1.6484                21.0974                13.3726

                     28                     29                     30
                      A                      A                      A
 Frequencies --    523.4800               593.4077               599.5142
 Red. masses --      3.7137                 2.5505                 3.1446
 Frc consts  --      0.5996                 0.5292                 0.6659
 IR Inten    --      1.7925               103.0192                43.3886

                     31                     32                     33
                      A                      A                      A
 Frequencies --    629.8004               636.1490               639.1006
 Red. masses --      5.0715                 6.2634                 6.2864
 Frc consts  --      1.1852                 1.4934                 1.5128
 IR Inten    --     56.3209                 0.6602                 1.2804

                     34                     35                     36
                      A                      A                      A
 Frequencies --    640.5648               662.6862               697.6389
 Red. masses --      5.4740                 2.4523                 4.8132
 Frc consts  --      1.3234                 0.6345                 1.3802
 IR Inten    --     36.4555                84.5239                21.2179

                     37                     38                     39
                      A                      A                      A
 Frequencies --    720.1950               726.2026               727.9876
 Red. masses --      1.8655                 1.3338                 1.6133
 Frc consts  --      0.5701                 0.4144                 0.5037
 IR Inten    --     66.9509                30.8358               127.2107

                     40                     41                     42
                      A                      A                      A
 Frequencies --    732.3541               742.5925               775.6705
 Red. masses --      1.6404                 2.4733                 2.9744
 Frc consts  --      0.5184                 0.8036                 1.0544
 IR Inten    --     85.0611               123.8129               102.1130

                     43                     44                     45
                      A                      A                      A
 Frequencies --    799.6796               807.1009               834.8089
 Red. masses --      2.1586                 2.4634                 3.0386
 Frc consts  --      0.8133                 0.9455                 1.2477
 IR Inten    --     31.5640                25.3311                 8.5537

                     46                     47                     48
                      A                      A                      A
 Frequencies --    862.9047               881.6041               881.7967
 Red. masses --      5.8915                 1.2485                 1.2538
 Frc consts  --      2.5847                 0.5717                 0.5744
 IR Inten    --     32.2524                 0.2116                 0.9934

                     49                     50                     51
                      A                      A                      A
 Frequencies --    882.6028               959.3316               970.0885
 Red. masses --      1.2409                 1.6933                 1.4606
 Frc consts  --      0.5696                 0.9181                 0.8099
 IR Inten    --      0.5269                17.0731                 3.7789

                     52                     53                     54
                      A                      A                      A
 Frequencies --    972.3209               986.1043              1005.9143
 Red. masses --      1.4408                 3.0473                 1.1580
 Frc consts  --      0.8025                 1.7459                 0.6904
 IR Inten    --      0.5142                17.2963                91.0122

                     55                     56                     57
                      A                      A                      A
 Frequencies --   1016.9620              1020.7044              1022.4939
 Red. masses --      1.3799                 1.5022                 1.3801
 Frc consts  --      0.8408                 0.9221                 0.8501
 IR Inten    --      1.4827                 8.3693                 0.4321

                     58                     59                     60
                      A                      A                      A
 Frequencies --   1025.8521              1026.5851              1027.4704
 Red. masses --      6.0090                 5.2099                 4.1021
 Frc consts  --      3.7258                 3.2350                 2.5515
 IR Inten    --      1.4178                 4.3096                 5.9707

                     61                     62                     63
                      A                      A                      A
 Frequencies --   1031.7475              1033.6361              1035.4790
 Red. masses --      1.3146                 1.3170                 1.3130
 Frc consts  --      0.8245                 0.8291                 0.8294
 IR Inten    --      0.9926                 1.4138                 0.0313

                     64                     65                     66
                      A                      A                      A
 Frequencies --   1057.2988              1063.6305              1069.3278
 Red. masses --      2.3536                 2.5532                 1.9690
 Frc consts  --      1.5501                 1.7018                 1.3266
 IR Inten    --      9.2522                22.8704                27.7424

                     67                     68                     69
                      A                      A                      A
 Frequencies --   1081.6011              1093.9743              1104.3822
 Red. masses --      1.4758                 2.3099                 1.7811
 Frc consts  --      1.0172                 1.6288                 1.2799
 IR Inten    --     77.7790                 9.3693                24.0362

                     70                     71                     72
                      A                      A                      A
 Frequencies --   1113.1350              1123.1580              1131.1236
 Red. masses --      2.1769                 1.6256                 1.7400
 Frc consts  --      1.5892                 1.2082                 1.3116
 IR Inten    --      8.9802                 8.5111                12.2640

                     73                     74                     75
                      A                      A                      A
 Frequencies --   1166.6220              1182.1882              1183.8896
 Red. masses --      2.5219                 1.1370                 1.1245
 Frc consts  --      2.0223                 0.9363                 0.9286
 IR Inten    --     50.8608                 0.9949                 0.1414

                     76                     77                     78
                      A                      A                      A
 Frequencies --   1187.5583              1201.4892              1207.2130
 Red. masses --      1.1303                 1.1541                 1.3011
 Frc consts  --      0.9392                 0.9816                 1.1172
 IR Inten    --      1.5502                21.9000                27.7100

                     79                     80                     81
                      A                      A                      A
 Frequencies --   1219.4779              1227.6410              1250.1338
 Red. masses --      1.2029                 1.1644                 2.1554
 Frc consts  --      1.0540                 1.0339                 1.9847
 IR Inten    --     17.8970                 6.4152               138.2610

                     82                     83                     84
                      A                      A                      A
 Frequencies --   1295.2798              1306.6305              1323.2158
 Red. masses --      4.2690                 3.2921                 4.4806
 Frc consts  --      4.2199                 3.3116                 4.6222
 IR Inten    --     42.0351               187.7939                20.9611

                     85                     86                     87
                      A                      A                      A
 Frequencies --   1329.8594              1347.1687              1351.2178
 Red. masses --      3.5585                 4.0692                 1.6549
 Frc consts  --      3.7079                 4.3512                 1.7802
 IR Inten    --     21.2534                83.3020                18.9332

                     88                     89                     90
                      A                      A                      A
 Frequencies --   1359.0887              1374.3541              1380.5343
 Red. masses --      1.5205                 1.2884                 1.3908
 Frc consts  --      1.6548                 1.4338                 1.5617
 IR Inten    --     12.0178                 3.0458                 9.0194

                     91                     92                     93
                      A                      A                      A
 Frequencies --   1456.2762              1475.4924              1488.5037
 Red. masses --      1.1891                 2.4202                 2.2426
 Frc consts  --      1.4858                 3.1044                 2.9275
 IR Inten    --     28.3585               654.1348                18.3266

                     94                     95                     96
                      A                      A                      A
 Frequencies --   1494.3764              1502.0082              1503.7868
 Red. masses --      2.3035                 2.1981                 1.1231
 Frc consts  --      3.0308                 2.9218                 1.4963
 IR Inten    --     32.9865               643.0456               113.2723

                     97                     98                     99
                      A                      A                      A
 Frequencies --   1508.9525              1540.6005              1542.4442
 Red. masses --      1.0383                 2.3743                 2.2791
 Frc consts  --      1.3929                 3.3202                 3.1947
 IR Inten    --      4.6098                57.5317                11.1797

                    100                    101                    102
                      A                      A                      A
 Frequencies --   1549.9147              1582.1807              1630.8363
 Red. masses --      2.1959                 4.0885                 1.2849
 Frc consts  --      3.1080                 6.0301                 2.0135
 IR Inten    --      6.7226               500.0522                64.4875

                    103                    104                    105
                      A                      A                      A
 Frequencies --   1650.2056              1653.1284              1658.2682
 Red. masses --      5.5845                 5.7212                 5.6757
 Frc consts  --      8.9600                 9.2119                 9.1955
 IR Inten    --      1.1415                 6.6129                38.6558

                    106                    107                    108
                      A                      A                      A
 Frequencies --   1672.6203              1674.6878              1676.6921
 Red. masses --      5.9314                 5.8623                 5.8130
 Frc consts  --      9.7770                 9.6869                 9.6285
 IR Inten    --      6.2707                 0.7351                 0.2226

                    109                    110                    111
                      A                      A                      A
 Frequencies --   3051.5694              3120.3937              3165.7690
 Red. masses --      1.0360                 1.1019                 1.1038
 Frc consts  --      5.6843                 6.3215                 6.5178
 IR Inten    --     42.2130                17.3512                17.5115

                    112                    113                    114
                      A                      A                      A
 Frequencies --   3192.4938              3195.9949              3197.6271
 Red. masses --      1.0857                 1.0858                 1.0863
 Frc consts  --      6.5195                 6.5343                 6.5441
 IR Inten    --      1.6349                 2.1599                 0.1105

                    115                    116                    117
                      A                      A                      A
 Frequencies --   3199.6623              3202.8579              3207.0875
 Red. masses --      1.0885                 1.0886                 1.0904
 Frc consts  --      6.5655                 6.5797                 6.6079
 IR Inten    --      5.1865                 4.6691                14.6093

                    118                    119                    120
                      A                      A                      A
 Frequencies --   3208.5210              3211.7590              3216.0622
 Red. masses --      1.0921                 1.0926                 1.0943
 Frc consts  --      6.6239                 6.6405                 6.6687
 IR Inten    --     18.8200                31.2731                27.3779

                    121                    122                    123
                      A                      A                      A
 Frequencies --   3218.8655              3220.9148              3222.0462
 Red. masses --      1.0952                 1.0950                 1.0979
 Frc consts  --      6.6856                 6.6930                 6.7154
 IR Inten    --     30.7318                26.0629                18.8518

                    124                    125                    126
                      A                      A                      A
 Frequencies --   3226.4965              3232.1339              3235.8095
 Red. masses --      1.0970                 1.0929                 1.0930
 Frc consts  --      6.7285                 6.7266                 6.7430
 IR Inten    --     11.3435                 6.0584                 8.6254

                    127                    128                    129
                      A                      A                      A
 Frequencies --   3238.9971              3456.6880              3618.3033
 Red. masses --      1.0892                 1.0608                 1.0871
 Frc consts  --      6.7327                 7.4682                 8.3854
 IR Inten    --      9.9411                64.6419                81.8622

 - Thermochemistry -
 -------------------
 Temperature   298.150 Kelvin.  Pressure   1.00000 Atm.
 Atom     1 has atomic number  6 and mass  12.00000

 Molecular mass:   315.16231 amu.
 Principal axes and moments of inertia in atomic units:
                           1         2         3
     Eigenvalues --  5570.76206********************
           X            0.99999  -0.00467  -0.00238
           Y            0.00464   0.99995  -0.00904
           Z            0.00242   0.00902   0.99996
 This molecule is an asymmetric top.
 Rotational symmetry number  1.
 Warning -- assumption of classical behavior for rotation
           may cause significant error
 Rotational temperatures (Kelvin)      0.01555     0.00817     0.00651
 Rotational constants (GHZ):           0.32397     0.17032     0.13559
    1 imaginary frequencies ignored.
 Zero-point vibrational energy     987791.5 (Joules/Mol)
                                  236.08784 (Kcal/Mol)
 Warning -- explicit consideration of  29 degrees of freedom as
           vibrations may cause significant error
 Vibrational temperatures:     37.88    48.35    51.46    86.42    87.36
          (Kelvin)            112.36   156.53   180.31   189.19   234.79
                              251.62   272.52   330.39   371.39   397.53
                              401.83   429.94   444.67   476.34   508.31
                              597.56   606.38   613.63   623.71   675.08
                              707.68   753.17   853.78   862.57   906.14
                              915.28   919.52   921.63   953.46  1003.75
                             1036.20  1044.84  1047.41  1053.69  1068.42
                             1116.02  1150.56  1161.24  1201.10  1241.53
                             1268.43  1268.71  1269.87  1380.26  1395.74
                             1398.95  1418.78  1447.29  1463.18  1468.57
                             1471.14  1475.97  1477.03  1478.30  1484.45
                             1487.17  1489.82  1521.22  1530.33  1538.52
                             1556.18  1573.99  1588.96  1601.55  1615.97
                             1627.43  1678.51  1700.91  1703.35  1708.63
                             1728.67  1736.91  1754.56  1766.30  1798.66
                             1863.62  1879.95  1903.81  1913.37  1938.28
                             1944.10  1955.43  1977.39  1986.28  2095.26
                             2122.90  2141.62  2150.07  2161.05  2163.61
                             2171.05  2216.58  2219.23  2229.98  2276.41
                             2346.41  2374.28  2378.48  2385.88  2406.53
                             2409.50  2412.39  4390.53  4489.55  4554.84
                             4593.29  4598.32  4600.67  4603.60  4608.20
                             4614.28  4616.35  4621.00  4627.20  4631.23
                             4634.18  4635.81  4642.21  4650.32  4655.61
                             4660.19  4973.40  5205.93

 Zero-point correction=                           0.376230 (Hartree/Particle)
 Thermal correction to Energy=                    0.396476
 Thermal correction to Enthalpy=                  0.397420
 Thermal correction to Gibbs Free Energy=         0.325950
 Sum of electronic and zero-point Energies=           -980.573760
 Sum of electronic and thermal Energies=              -980.553514
 Sum of electronic and thermal Enthalpies=            -980.552570
 Sum of electronic and thermal Free Energies=         -980.624040

                     E (Thermal)             CV                S
                      KCal/Mol        Cal/Mol-Kelvin    Cal/Mol-Kelvin
 Total                  248.792             80.198            150.421
 Electronic               0.000              0.000              0.000
 Translational            0.889              2.981             43.140
 Rotational               0.889              2.981             35.018
 Vibrational            247.015             74.236             72.264
 Vibration     1          0.593              1.985              6.088
 Vibration     2          0.594              1.983              5.605
 Vibration     3          0.594              1.982              5.481
 Vibration     4          0.597              1.973              4.455
 Vibration     5          0.597              1.973              4.434
 Vibration     6          0.599              1.964              3.938
 Vibration     7          0.606              1.942              3.290
 Vibration     8          0.610              1.928              3.017
 Vibration     9          0.612              1.922              2.924
 Vibration    10          0.623              1.888              2.513
 Vibration    11          0.627              1.873              2.382
 Vibration    12          0.633              1.854              2.234
 Vibration    13          0.652              1.796              1.882
 Vibration    14          0.667              1.749              1.674
 Vibration    15          0.678              1.717              1.557
 Vibration    16          0.680              1.712              1.538
 Vibration    17          0.692              1.676              1.423
 Vibration    18          0.698              1.656              1.367
 Vibration    19          0.713              1.613              1.255
 Vibration    20          0.729              1.569              1.151
 Vibration    21          0.779              1.437              0.908
 Vibration    22          0.784              1.424              0.887
 Vibration    23          0.788              1.413              0.870
 Vibration    24          0.794              1.397              0.847
 Vibration    25          0.826              1.318              0.740
 Vibration    26          0.848              1.268              0.679
 Vibration    27          0.878              1.198              0.602
 Vibration    28          0.951              1.046              0.461
 Vibration    29          0.958              1.033              0.450

 Optimization completed.
    -- Stationary point found.
 Normal termination of Gaussian 16 at Mon Jun 14 00:58:45 2021.
