 Gaussian 16, Revision A.03,
 Gaussian 16:  ES64L-G16RevA.03 25-Dec-2016

 ----------------------------------------------------------------------
 # wB97XD def2tzvp, opt=(ts, noeigen, calcfc, maxcycles=70, maxstep=5),
  freq=noraman, scrf=(iefpcm, solvent=water)
 ----------------------------------------------------------------------

 ------------------------
 2_iteration/TS-175-2.out
 ------------------------
 Symbolic Z-matrix:
 Charge =  0 Multiplicity = 1

 SCF Done:  E(RwB97XD) =  -1264.87700820     A.U. after   15 cycles
 Optimization completed.
    -- Stationary point found.
 Normal termination of Gaussian 16 at Sun Feb  7 09:52:37 2021.

 ---------------------------------------------------------------------
 #N Geom=AllCheck Guess=TCheck SCRF=Check GenChk RwB97XD/def2TZVP Freq
 ---------------------------------------------------------------------

 Structure from the checkpoint file:  "/beegfs/scratch/user/q/tla25/Gau-72177.chk"
 ------------------------
 2_iteration/TS-175-2.out
 ------------------------
 Charge =  0 Multiplicity = 1

                         Standard orientation:
 ---------------------------------------------------------------------
 Center     Atomic      Atomic             Coordinates (Angstroms)
 Number     Number       Type             X           Y           Z
 ---------------------------------------------------------------------
      1          6           0       -0.516970   -0.714200   -0.820521
      2          6           0        0.906780   -0.917330   -0.853151
      3          8           0        1.402840   -1.924011   -1.367171
      4          6           0       -1.280809    0.226110   -0.138281
      5          6           0       -1.102090   -1.218050    2.227829
      6          1           0       -0.606120   -1.311460    3.192319
      7          1           0       -2.154180   -1.468020    2.334269
      8          1           0       -0.636060   -1.899200    1.513439
      9          7           0       -0.971499    0.137790    1.706399
     10          1           0       -1.595859    0.792790    2.164669
     11          1           0       -0.023009    0.477580    1.822009
     12          6           0       -2.778009    0.085210   -0.193761
     13          6           0       -3.639499    1.178440   -0.218121
     14          6           0       -5.014729    0.999160   -0.246751
     15          6           0       -5.556489   -0.275289   -0.242511
     16          6           0       -4.709060   -1.372810   -0.205781
     17          6           0       -3.336540   -1.195790   -0.178551
     18          1           0       -3.243439    2.182960   -0.222641
     19          1           0       -5.661989    1.866261   -0.273491
     20          1           0       -6.629719   -0.413939   -0.264171
     21          1           0       -5.115830   -2.375739   -0.193781
     22          1           0       -2.698300   -2.066720   -0.135001
     23         17           0       -0.751489    1.988250   -0.259781
     24          1           0       -1.062110   -1.518190   -1.289641
     25          7           0        1.710391    0.043699   -0.254901
     26          6           0        3.104651    0.036999   -0.135821
     27          6           0        3.858770   -1.132931   -0.041381
     28          6           0        5.233670   -1.056811    0.124449
     29          6           0        5.879741    0.167939    0.208479
     30          6           0        5.128301    1.331939    0.125769
     31          6           0        3.756431    1.269159   -0.047851
     32          1           0        1.287071    0.951599   -0.147131
     33          1           0        3.367110   -2.090601   -0.101591
     34          1           0        5.804910   -1.974461    0.194549
     35          1           0        6.952981    0.215379    0.339319
     36          1           0        5.611391    2.298869    0.191819
     37          1           0        3.178611    2.183839   -0.116061
 ---------------------------------------------------------------------

 SCF Done:  E(RwB97XD) =  -1264.87700820     A.U. after    1 cycles

 The electronic state is 1-A.
 Alpha  occ. eigenvalues -- -101.69955 -19.20114 -14.50342 -14.45765 -10.41264
 Alpha  occ. eigenvalues --  -10.38283 -10.33510 -10.32163 -10.31833 -10.29995
 Alpha  occ. eigenvalues --  -10.29845 -10.29667 -10.29607 -10.29570 -10.28979
 Alpha  occ. eigenvalues --  -10.28853 -10.28751 -10.28268 -10.28244 -10.25589
 Alpha  occ. eigenvalues --   -9.58592  -7.33173  -7.32399  -7.32368  -1.12985
 Alpha  occ. eigenvalues --   -1.06023  -1.03457  -0.98723  -0.95943  -0.95075
 Alpha  occ. eigenvalues --   -0.88509  -0.86059  -0.85585  -0.85050  -0.82803
 Alpha  occ. eigenvalues --   -0.79830  -0.75320  -0.72045  -0.71244  -0.70481
 Alpha  occ. eigenvalues --   -0.67767  -0.65491  -0.64601  -0.62588  -0.61860
 Alpha  occ. eigenvalues --   -0.59099  -0.58572  -0.57607  -0.56247  -0.55599
 Alpha  occ. eigenvalues --   -0.54081  -0.53609  -0.52566  -0.52107  -0.51714
 Alpha  occ. eigenvalues --   -0.51196  -0.50641  -0.49522  -0.48763  -0.48485
 Alpha  occ. eigenvalues --   -0.46740  -0.46567  -0.45933  -0.44571  -0.44220
 Alpha  occ. eigenvalues --   -0.43262  -0.42907  -0.40409  -0.39892  -0.38978
 Alpha  occ. eigenvalues --   -0.34758  -0.34456  -0.34154  -0.33205  -0.30420
 Alpha  occ. eigenvalues --   -0.27610
 Alpha virt. eigenvalues --    0.01537   0.04506   0.05347   0.05473   0.06747
 Alpha virt. eigenvalues --    0.09345   0.10201   0.12946   0.13093   0.13965
 Alpha virt. eigenvalues --    0.14320   0.16066   0.16331   0.16749   0.17091

 Mulliken charges:
               1
     1  C   -0.431950
     2  C    0.345684
     3  O   -0.533832
     4  C    0.225764
     5  C   -0.308077
     6  H    0.168814
     7  H    0.168147
     8  H    0.161112
     9  N   -0.268988
    10  H    0.296686
    11  H    0.283887
    12  C    0.135570
    13  C   -0.248587
    14  C   -0.121644
    15  C   -0.149461
    16  C   -0.129124
    17  C   -0.311219
    18  H    0.149900
    19  H    0.147464
    20  H    0.147993
    21  H    0.147530
    22  H    0.178734
    23  Cl  -0.156382
    24  H    0.141210
    25  N   -0.274874
    26  C    0.284937
    27  C   -0.299689
    28  C   -0.093765
    29  C   -0.196042
    30  C   -0.101280
    31  C   -0.296510
    32  H    0.226247
    33  H    0.145500
    34  H    0.141282
    35  H    0.140371
    36  H    0.142598
    37  H    0.141992
 Sum of Mulliken charges =  -0.00000

 Dipole moment (field-independent basis, Debye):
    X=             -6.5050    Y=              3.5090    Z=              8.7511  Tot=             11.4547
 Quadrupole moment (field-independent basis, Debye-Ang):
   XX=           -109.0683   YY=           -122.6006   ZZ=           -126.0815
   XY=              8.9501   XZ=              0.2200   YZ=             -6.2561

  Exact polarizability: 420.842  -7.808 318.429  -1.836   9.772 212.094
 Approx polarizability: 298.893  -5.750 276.682   0.853   9.843 184.933

 ******    1 imaginary frequencies (negative Signs) ******

                      1                      2                      3
                      A                      A                      A
 Frequencies --   -386.3796                21.7345                25.7533
 Red. masses --      5.2581                 4.7269                 4.5680
 Frc consts  --      0.4625                 0.0013                 0.0018
 IR Inten    --    603.5374                 0.6775                 1.4196

                      4                      5                      6
                      A                      A                      A
 Frequencies --     41.8288                60.1565                84.1336
 Red. masses --      4.1273                 4.9953                 5.6658
 Frc consts  --      0.0043                 0.0107                 0.0236
 IR Inten    --      1.3683                 0.2707                 1.6983

                      7                      8                      9
                      A                      A                      A
 Frequencies --     89.7539               103.6811               132.5162
 Red. masses --      3.9469                 5.4549                 3.4197
 Frc consts  --      0.0187                 0.0345                 0.0354
 IR Inten    --      5.9752                 3.1507                19.3658

                     10                     11                     12
                      A                      A                      A
 Frequencies --    152.6640               178.9207               201.7223
 Red. masses --      2.3609                 2.4611                 1.9619
 Frc consts  --      0.0324                 0.0464                 0.0470
 IR Inten    --      5.5423                10.9334                 8.7904

                     13                     14                     15
                      A                      A                      A
 Frequencies --    212.2269               256.1354               260.6215
 Red. masses --      3.6539                 5.4541                 6.7228
 Frc consts  --      0.0970                 0.2108                 0.2690
 IR Inten    --      7.9443                 1.3358                 2.9397

                     16                     17                     18
                      A                      A                      A
 Frequencies --    300.6825               316.2026               341.4991
 Red. masses --      4.3158                 3.7076                 7.4121
 Frc consts  --      0.2299                 0.2184                 0.5093
 IR Inten    --      5.6384                33.8079                36.5039

                     19                     20                     21
                      A                      A                      A
 Frequencies --    354.4500               372.7703               423.3116
 Red. masses --      9.2903                 5.6690                 2.9486
 Frc consts  --      0.6877                 0.4641                 0.3113
 IR Inten    --     16.6350                 3.2545                 0.6422

                     22                     23                     24
                      A                      A                      A
 Frequencies --    424.9877               469.1480               507.3052
 Red. masses --      2.9199                 4.8582                 5.3505
 Frc consts  --      0.3107                 0.6300                 0.8113
 IR Inten    --      1.1193                25.8938                45.2447

                     25                     26                     27
                      A                      A                      A
 Frequencies --    526.7118               571.0413               597.9498
 Red. masses --      2.8267                 2.0954                 1.4382
 Frc consts  --      0.4620                 0.4026                 0.3030
 IR Inten    --     20.9466                25.1361               117.9421

                     28                     29                     30
                      A                      A                      A
 Frequencies --    616.9003               628.1500               637.4018
 Red. masses --      2.3764                 3.8746                 5.8660
 Frc consts  --      0.5328                 0.9007                 1.4042
 IR Inten    --    133.9925                16.4656                 4.2714

                     31                     32                     33
                      A                      A                      A
 Frequencies --    642.0478               699.1825               717.4444
 Red. masses --      3.6279                 2.1243                 1.9057
 Frc consts  --      0.8811                 0.6118                 0.5780
 IR Inten    --     48.5735                70.9955                59.3799

                     34                     35                     36
                      A                      A                      A
 Frequencies --    720.0390               725.9165               739.0471
 Red. masses --      2.8108                 1.7500                 2.6633
 Frc consts  --      0.8586                 0.5433                 0.8571
 IR Inten    --     48.5975                88.5130               128.7661

                     37                     38                     39
                      A                      A                      A
 Frequencies --    783.4526               795.0509               806.5022
 Red. masses --      1.9372                 4.8903                 2.1128
 Frc consts  --      0.7006                 1.8213                 0.8097
 IR Inten    --     66.2142               139.9785                13.1853

                     40                     41                     42
                      A                      A                      A
 Frequencies --    858.2407               874.7723               879.0013
 Red. masses --      1.2603                 4.1453                 1.2664
 Frc consts  --      0.5469                 1.8689                 0.5765
 IR Inten    --      2.1384                29.5529                 0.8407

                     43                     44                     45
                      A                      A                      A
 Frequencies --    920.0099               933.6478               969.3748
 Red. masses --      3.4593                 1.7046                 1.4841
 Frc consts  --      1.7251                 0.8754                 0.8217
 IR Inten    --     14.6413                12.0206                 2.9839

                     46                     47                     48
                      A                      A                      A
 Frequencies --    993.5730              1000.8015              1016.2979
 Red. masses --      4.0640                 1.3685                 1.2926
 Frc consts  --      2.3638                 0.8076                 0.7866
 IR Inten    --     34.7285                 1.2860                 0.7810

                     49                     50                     51
                      A                      A                      A
 Frequencies --   1021.7170              1022.2440              1025.3477
 Red. masses --      2.0631                 2.5584                 4.9269
 Frc consts  --      1.2689                 1.5752                 3.0519
 IR Inten    --      2.4032                 3.2963                 7.7518

                     52                     53                     54
                      A                      A                      A
 Frequencies --   1030.3663              1038.6698              1062.5236
 Red. masses --      1.1405                 1.3198                 2.0284
 Frc consts  --      0.7134                 0.8389                 1.3492
 IR Inten    --     23.8064                 1.1211                21.9573

                     55                     56                     57
                      A                      A                      A
 Frequencies --   1072.2686              1076.8189              1083.1316
 Red. masses --      1.8650                 1.3874                 3.8373
 Frc consts  --      1.2634                 0.9478                 2.6524
 IR Inten    --     21.8115                34.3372                65.7957

                     58                     59                     60
                      A                      A                      A
 Frequencies --   1118.1439              1131.4741              1181.2091
 Red. masses --      1.5197                 1.6275                 1.1223
 Frc consts  --      1.1194                 1.2276                 0.9226
 IR Inten    --      7.9482                47.9037                 3.9207

                     61                     62                     63
                      A                      A                      A
 Frequencies --   1190.5880              1206.2375              1206.4767
 Red. masses --      1.1815                 2.3987                 1.1451
 Frc consts  --      0.9867                 2.0564                 0.9820
 IR Inten    --     26.9405               241.2678                16.8970

                     64                     65                     66
                      A                      A                      A
 Frequencies --   1236.8025              1240.0633              1259.4578
 Red. masses --      1.2003                 1.4585                 2.1651
 Frc consts  --      1.0818                 1.3214                 2.0235
 IR Inten    --     16.5076               119.8914                96.6559

                     67                     68                     69
                      A                      A                      A
 Frequencies --   1273.5375              1296.5024              1327.4602
 Red. masses --      2.1967                 2.6438                 4.7500
 Frc consts  --      2.0992                 2.6184                 4.9316
 IR Inten    --    578.6744               139.1897                 2.3509

                     70                     71                     72
                      A                      A                      A
 Frequencies --   1342.4376              1348.0085              1360.8556
 Red. masses --      3.7153                 1.3493                 1.5726
 Frc consts  --      3.9449                 1.4446                 1.7159
 IR Inten    --    435.2315                32.2064                16.0940

                     73                     74                     75
                      A                      A                      A
 Frequencies --   1383.0875              1452.1022              1475.5290
 Red. masses --      1.3593                 1.2519                 2.4483
 Frc consts  --      1.5320                 1.5553                 3.1406
 IR Inten    --     16.0042               114.2314               478.9025

                     76                     77                     78
                      A                      A                      A
 Frequencies --   1476.2949              1490.6876              1499.3607
 Red. masses --      2.1160                 1.1163                 2.2213
 Frc consts  --      2.7172                 1.4615                 2.9422
 IR Inten    --    337.6020                22.4271               236.3270

                     79                     80                     81
                      A                      A                      A
 Frequencies --   1502.8233              1546.3316              1552.2826
 Red. masses --      1.0471                 2.4492                 2.2103
 Frc consts  --      1.3933                 3.4504                 3.1379
 IR Inten    --     14.4639               168.6397                 5.3780

                     82                     83                     84
                      A                      A                      A
 Frequencies --   1559.4605              1636.2013              1653.0520
 Red. masses --      2.0350                 1.1003                 5.5707
 Frc consts  --      2.9159                 1.7355                 8.9688
 IR Inten    --    440.0177               101.7494                66.4636

                     85                     86                     87
                      A                      A                      A
 Frequencies --   1657.7692              1666.5808              1676.3401
 Red. masses --      6.9087                 3.9550                 5.6247
 Frc consts  --     11.1864                 6.4722                 9.3126
 IR Inten    --    366.3319               354.8734                15.4294

                     88                     89                     90
                      A                      A                      A
 Frequencies --   1679.2542              3067.3182              3147.9611
 Red. masses --      6.0613                 1.0359                 1.1019
 Frc consts  --     10.0705                 5.7420                 6.4333
 IR Inten    --    559.6039                27.3849                 4.1690

                     91                     92                     93
                      A                      A                      A
 Frequencies --   3181.2218              3187.0469              3196.2187
 Red. masses --      1.1057                 1.0878                 1.0882
 Frc consts  --      6.5926                 6.5097                 6.5501
 IR Inten    --      8.9889                13.5045                 2.2908

                     94                     95                     96
                      A                      A                      A
 Frequencies --   3201.1407              3205.7269              3210.5672
 Red. masses --      1.0866                 1.0932                 1.0907
 Frc consts  --      6.5602                 6.6189                 6.6239
 IR Inten    --      0.1342                30.9746                13.6985

                     97                     98                     99
                      A                      A                      A
 Frequencies --   3220.5515              3221.9980              3232.5499
 Red. masses --      1.0979                 1.0955                 1.0936
 Frc consts  --      6.7091                 6.7006                 6.7327
 IR Inten    --     24.7090                26.0449                 4.6425

                    100                    101                    102
                      A                      A                      A
 Frequencies --   3242.7881              3249.3417              3259.8526
 Red. masses --      1.0876                 1.0916                 1.0927
 Frc consts  --      6.7384                 6.7907                 6.8417
 IR Inten    --      2.8300                 2.0531                 1.4498

                    103                    104                    105
                      A                      A                      A
 Frequencies --   3521.9112              3604.1401              3607.7247
 Red. masses --      1.0507                 1.0964                 1.0766
 Frc consts  --      7.6787                 8.3910                 8.2561
 IR Inten    --     45.8064                59.7572               186.5942

 - Thermochemistry -
 -------------------
 Temperature   298.150 Kelvin.  Pressure   1.00000 Atm.
 Atom     1 has atomic number  6 and mass  12.00000

 Molecular mass:   288.10294 amu.
 Principal axes and moments of inertia in atomic units:
                           1         2         3
     Eigenvalues --  2153.61652********************
           X            0.99999   0.00483  -0.00052
           Y           -0.00484   0.99969  -0.02437
           Z            0.00040   0.02437   0.99970
 This molecule is an asymmetric top.
 Rotational symmetry number  1.
 Warning -- assumption of classical behavior for rotation
           may cause significant error
 Rotational temperatures (Kelvin)      0.04022     0.00703     0.00658
 Rotational constants (GHZ):           0.83800     0.14649     0.13707
    1 imaginary frequencies ignored.
 Zero-point vibrational energy     793138.0 (Joules/Mol)
                                  189.56454 (Kcal/Mol)
 Warning -- explicit consideration of  27 degrees of freedom as
           vibrations may cause significant error
 Vibrational temperatures:     31.27    37.05    60.18    86.55   121.05
          (Kelvin)            129.14   149.17   190.66   219.65   257.43
                              290.23   305.35   368.52   374.98   432.62
                              454.95   491.34   509.97   536.33   609.05
                              611.46   675.00   729.90   757.82   821.60
                              860.32   887.58   903.77   917.08   923.76
                             1005.97  1032.24  1035.98  1044.43  1063.32
                             1127.21  1143.90  1160.38  1234.82  1258.60
                             1264.69  1323.69  1343.31  1394.71  1429.53
                             1439.93  1462.23  1470.02  1470.78  1475.25
                             1482.47  1494.41  1528.73  1542.76  1549.30
                             1558.38  1608.76  1627.94  1699.50  1712.99
                             1735.51  1735.85  1779.48  1784.17  1812.08
                             1832.34  1865.38  1909.92  1931.47  1939.48
                             1957.97  1989.95  2089.25  2122.96  2124.06
                             2144.77  2157.25  2162.23  2224.83  2233.39
                             2243.72  2354.13  2378.37  2385.16  2397.84
                             2411.88  2416.07  4413.19  4529.21  4577.07
                             4585.45  4598.65  4605.73  4612.33  4619.29
                             4633.66  4635.74  4650.92  4665.65  4675.08
                             4690.20  5067.24  5185.55  5190.71

 Zero-point correction=                           0.302090 (Hartree/Particle)
 Thermal correction to Energy=                    0.320369
 Thermal correction to Enthalpy=                  0.321313
 Thermal correction to Gibbs Free Energy=         0.253600
 Sum of electronic and zero-point Energies=          -1264.574918
 Sum of electronic and thermal Energies=             -1264.556639
 Sum of electronic and thermal Enthalpies=           -1264.555695
 Sum of electronic and thermal Free Energies=        -1264.623408

                     E (Thermal)             CV                S
                      KCal/Mol        Cal/Mol-Kelvin    Cal/Mol-Kelvin
 Total                  201.034             69.875            142.514
 Electronic               0.000              0.000              0.000
 Translational            0.889              2.981             42.872
 Rotational               0.889              2.981             34.212
 Vibrational            199.257             63.914             65.430
 Vibration     1          0.593              1.985              6.469
 Vibration     2          0.593              1.985              6.132
 Vibration     3          0.594              1.980              5.171
 Vibration     4          0.597              1.973              4.452
 Vibration     5          0.601              1.960              3.792
 Vibration     6          0.602              1.956              3.665
 Vibration     7          0.605              1.946              3.384
 Vibration     8          0.613              1.921              2.909
 Vibration     9          0.619              1.900              2.639
 Vibration    10          0.629              1.868              2.340
 Vibration    11          0.639              1.837              2.117
 Vibration    12          0.643              1.822              2.024
 Vibration    13          0.666              1.752              1.688
 Vibration    14          0.669              1.745              1.658
 Vibration    15          0.693              1.672              1.413
 Vibration    16          0.703              1.643              1.330
 Vibration    17          0.721              1.593              1.205
 Vibration    18          0.730              1.566              1.146
 Vibration    19          0.744              1.528              1.068
 Vibration    20          0.785              1.420              0.881
 Vibration    21          0.787              1.416              0.875
 Vibration    22          0.826              1.318              0.740
 Vibration    23          0.863              1.234              0.640
 Vibration    24          0.882              1.191              0.595
 Vibration    25          0.927              1.094              0.502
 Vibration    26          0.956              1.036              0.453
 Vibration    27          0.977              0.996              0.421

 Optimization completed.
    -- Stationary point found.
 Normal termination of Gaussian 16 at Sun Feb  7 11:49:50 2021.
