 Gaussian 16, Revision A.03,
 Gaussian 16:  ES64L-G16RevA.03 25-Dec-2016

 ----------------------------------------------------------------------
 # wB97XD def2tzvp, opt=(ts, noeigen, calcfc, maxcycles=70, maxstep=8),
  freq=noraman, scrf=(iefpcm, solvent=water)
 ----------------------------------------------------------------------

 ------------------------
 1_iteration/TS-103-1.out
 ------------------------
 Symbolic Z-matrix:
 Charge =  0 Multiplicity = 1

 SCF Done:  E(RwB97XD) =  -883.890235852     A.U. after   15 cycles
 Optimization completed.
    -- Stationary point found.
 Normal termination of Gaussian 16 at Mon Mar 29 13:09:02 2021.

 ---------------------------------------------------------------------
 #N Geom=AllCheck Guess=TCheck SCRF=Check GenChk RwB97XD/def2TZVP Freq
 ---------------------------------------------------------------------

 Structure from the checkpoint file:  "/beegfs/scratch/user/q/tla25/Gau-13481.chk"
 ------------------------
 1_iteration/TS-103-1.out
 ------------------------
 Charge =  0 Multiplicity = 1

                         Standard orientation:
 ---------------------------------------------------------------------
 Center     Atomic      Atomic             Coordinates (Angstroms)
 Number     Number       Type             X           Y           Z
 ---------------------------------------------------------------------
      1          6           0       -0.555798    0.024100    0.980389
      2          6           0        0.833902   -0.247101    1.067989
      3          8           0        1.319301   -0.928901    1.992389
      4          6           0       -1.304498    0.566000   -0.119111
      5          6           0       -0.594787    3.025500    0.796589
      6          1           0       -0.928087    3.920500    1.317089
      7          1           0       -0.037687    2.384500    1.479889
      8          1           0        0.040213    3.314400   -0.037311
      9          7           0       -1.741497    2.263500    0.299489
     10          1           0       -2.445897    2.189301    1.025989
     11          1           0       -2.165987    2.736600   -0.491411
     12          6           0       -2.663598   -0.106299   -0.318211
     13          6           0       -2.658599   -1.499899   -0.382811
     14          6           0       -3.816599   -2.212489   -0.642011
     15          6           0       -5.017799   -1.545588   -0.838811
     16          6           0       -5.037798   -0.162688   -0.784011
     17          6           0       -3.871098    0.550011   -0.535611
     18          1           0       -1.725899   -2.024000   -0.217411
     19          1           0       -3.780600   -3.293889   -0.685111
     20          1           0       -5.927299   -2.099088   -1.034111
     21          1           0       -5.964498    0.375412   -0.938411
     22          1           0       -3.946297    1.628211   -0.522011
     23          6           0       -0.691998    0.783100   -1.502411
     24          1           0       -1.477098    1.042000   -2.212311
     25          1           0        0.042312    1.586910   -1.541311
     26          1           0       -0.216198   -0.135390   -1.842611
     27          6           0       -1.335998   -0.366900    2.218089
     28          1           0       -0.797998   -0.077000    3.122789
     29          1           0       -2.314498    0.118401    2.248989
     30          1           0       -1.522399   -1.444500    2.295089
     31          7           0        1.708702    0.271309    0.101189
     32          6           0        3.035602   -0.056292   -0.141311
     33          6           0        3.656701   -1.214892    0.336889
     34          6           0        4.977201   -1.481792    0.006989
     35          6           0        5.709702   -0.621993   -0.798611
     36          6           0        5.094602    0.526408   -1.279411
     37          6           0        3.779602    0.808308   -0.955011
     38          1           0        1.376002    1.050899   -0.430811
     39          1           0        3.100301   -1.889092    0.967589
     40          1           0        5.437601   -2.385393    0.388889
     41          1           0        6.739601   -0.841603   -1.047911
     42          1           0        5.642802    1.214297   -1.911711
     43          1           0        3.314313    1.711108   -1.335311
 ---------------------------------------------------------------------

 SCF Done:  E(RwB97XD) =  -883.890235852     A.U. after    1 cycles

 The electronic state is 1-A.
 Alpha  occ. eigenvalues --  -19.18050 -14.50841 -14.44539 -10.36052 -10.36002
 Alpha  occ. eigenvalues --  -10.33120 -10.32276 -10.30706 -10.29609 -10.29295
 Alpha  occ. eigenvalues --  -10.29180 -10.29048 -10.28966 -10.28946 -10.28633
 Alpha  occ. eigenvalues --  -10.28473 -10.28204 -10.27674 -10.27555 -10.25957
 Alpha  occ. eigenvalues --  -10.24275  -1.10838  -1.06362  -1.02213  -0.97432
 Alpha  occ. eigenvalues --   -0.94687  -0.91686  -0.85673  -0.85055  -0.84547
 Alpha  occ. eigenvalues --   -0.83329  -0.83071  -0.80034  -0.74918  -0.73632
 Alpha  occ. eigenvalues --   -0.70892  -0.70661  -0.69356  -0.67012  -0.64891
 Alpha  occ. eigenvalues --   -0.63606  -0.62007  -0.61748  -0.58526  -0.57387
 Alpha  occ. eigenvalues --   -0.57233  -0.56168  -0.54255  -0.53527  -0.52870
 Alpha  occ. eigenvalues --   -0.52282  -0.51317  -0.51154  -0.50708  -0.50530
 Alpha  occ. eigenvalues --   -0.50058  -0.49085  -0.48505  -0.47867  -0.46929
 Alpha  occ. eigenvalues --   -0.46425  -0.45392  -0.44709  -0.44186  -0.43690
 Alpha  occ. eigenvalues --   -0.42721  -0.42335  -0.42119  -0.41708  -0.38187
 Alpha  occ. eigenvalues --   -0.34062  -0.33618  -0.33317  -0.31833  -0.29061
 Alpha  occ. eigenvalues --   -0.24636
 Alpha virt. eigenvalues --    0.04537   0.04889   0.05812   0.05888   0.08949
 Alpha virt. eigenvalues --    0.10222   0.11609   0.12696   0.13306   0.13969
 Alpha virt. eigenvalues --    0.14643   0.15385   0.15883   0.16728   0.17009

 Mulliken charges:
               1
     1  C   -0.278788
     2  C    0.315320
     3  O   -0.575228
     4  C    0.103828
     5  C   -0.331131
     6  H    0.172150
     7  H    0.169689
     8  H    0.164919
     9  N   -0.234086
    10  H    0.291955
    11  H    0.296648
    12  C    0.243384
    13  C   -0.315344
    14  C   -0.142987
    15  C   -0.142948
    16  C   -0.156560
    17  C   -0.211216
    18  H    0.169719
    19  H    0.142247
    20  H    0.144735
    21  H    0.143416
    22  H    0.132103
    23  C   -0.442885
    24  H    0.158674
    25  H    0.138220
    26  H    0.173259
    27  C   -0.394282
    28  H    0.120380
    29  H    0.117609
    30  H    0.104192
    31  N   -0.226633
    32  C    0.286861
    33  C   -0.307482
    34  C   -0.102014
    35  C   -0.207915
    36  C   -0.103635
    37  C   -0.313123
    38  H    0.200380
    39  H    0.143401
    40  H    0.137419
    41  H    0.136801
    42  H    0.139050
    43  H    0.139896
 Sum of Mulliken charges =  -0.00000

 Dipole moment (field-independent basis, Debye):
    X=             -9.0052    Y=              9.9119    Z=             -5.6304  Tot=             14.5272
 Quadrupole moment (field-independent basis, Debye-Ang):
   XX=           -119.2900   YY=           -101.5838   ZZ=           -139.0585
   XY=             -7.0621   XZ=             -6.8011   YZ=              3.8676

  Exact polarizability: 423.920 -24.266 318.581  -1.862 -28.126 245.227
 Approx polarizability: 304.980 -19.302 268.765   0.277 -24.061 209.704

 ******    1 imaginary frequencies (negative Signs) ******

                      1                      2                      3
                      A                      A                      A
 Frequencies --   -338.9075                18.1597                22.0001
 Red. masses --      5.2013                 4.9388                 3.7480
 Frc consts  --      0.3520                 0.0010                 0.0011
 IR Inten    --   1019.1036                 0.6204                 0.1933

                      4                      5                      6
                      A                      A                      A
 Frequencies --     34.3747                41.3167                78.7345
 Red. masses --      4.2480                 3.6098                 6.5120
 Frc consts  --      0.0030                 0.0036                 0.0238
 IR Inten    --      3.9667                 1.4093                11.8036

                      7                      8                      9
                      A                      A                      A
 Frequencies --     91.7116               122.9477               137.5680
 Red. masses --      4.0710                 2.9073                 2.5603
 Frc consts  --      0.0202                 0.0259                 0.0285
 IR Inten    --      0.8905                 2.3337                 0.4418

                     10                     11                     12
                      A                      A                      A
 Frequencies --    156.3476               167.9160               177.6191
 Red. masses --      3.2424                 1.1936                 2.6650
 Frc consts  --      0.0467                 0.0198                 0.0495
 IR Inten    --      4.2642                 1.4577                 3.4467

                     13                     14                     15
                      A                      A                      A
 Frequencies --    192.4473               223.8654               249.7339
 Red. masses --      1.7099                 1.8272                 4.8335
 Frc consts  --      0.0373                 0.0540                 0.1776
 IR Inten    --      4.9343                 6.2585                 4.4878

                     16                     17                     18
                      A                      A                      A
 Frequencies --    270.7333               297.0339               300.9779
 Red. masses --      2.2639                 2.0424                 2.6639
 Frc consts  --      0.0978                 0.1062                 0.1422
 IR Inten    --      2.2323                 4.2218                 3.7419

                     19                     20                     21
                      A                      A                      A
 Frequencies --    325.7521               334.2481               365.4700
 Red. masses --      3.9165                 3.0329                 4.4790
 Frc consts  --      0.2449                 0.1996                 0.3525
 IR Inten    --     15.2001                34.2752                19.8304

                     22                     23                     24
                      A                      A                      A
 Frequencies --    376.3078               382.4467               420.7332
 Red. masses --      1.9083                 3.5240                 2.9987
 Frc consts  --      0.1592                 0.3037                 0.3127
 IR Inten    --     24.8397                 6.7518                 0.4498

                     25                     26                     27
                      A                      A                      A
 Frequencies --    424.4147               433.0728               466.8705
 Red. masses --      3.0211                 4.7690                 1.1815
 Frc consts  --      0.3206                 0.5270                 0.1517
 IR Inten    --      0.2166                 2.3247               110.5402

                     28                     29                     30
                      A                      A                      A
 Frequencies --    498.6245               525.1074               564.6503
 Red. masses --      3.5766                 2.7921                 3.1813
 Frc consts  --      0.5239                 0.4536                 0.5976
 IR Inten    --     15.1495                12.5045               152.2295

                     31                     32                     33
                      A                      A                      A
 Frequencies --    594.2593               630.0925               637.3118
 Red. masses --      3.9815                 5.3032                 5.7646
 Frc consts  --      0.8284                 1.2405                 1.3795
 IR Inten    --     80.5375                 5.3452                 3.7480

                     34                     35                     36
                      A                      A                      A
 Frequencies --    639.9010               654.8600               716.5247
 Red. masses --      6.0936                 4.4606                 1.9134
 Frc consts  --      1.4701                 1.1270                 0.5788
 IR Inten    --      4.7656                51.5975                52.4705

                     37                     38                     39
                      A                      A                      A
 Frequencies --    726.2516               731.4511               766.5126
 Red. masses --      1.4977                 1.6590                 6.7373
 Frc consts  --      0.4654                 0.5229                 2.3323
 IR Inten    --     99.9101                37.7542                50.0365

                     40                     41                     42
                      A                      A                      A
 Frequencies --    777.2423               797.9530               801.8808
 Red. masses --      1.8450                 2.9315                 2.3253
 Frc consts  --      0.6567                 1.0997                 0.8809
 IR Inten    --     89.1934                32.6059                22.2030

                     43                     44                     45
                      A                      A                      A
 Frequencies --    854.7920               860.8750               873.4930
 Red. masses --      1.3957                 3.1959                 1.2551
 Frc consts  --      0.6008                 1.3955                 0.5642
 IR Inten    --      1.6860                 4.9072                 0.5209

                     46                     47                     48
                      A                      A                      A
 Frequencies --    898.6832               922.6371               950.8293
 Red. masses --      3.2146                 1.5731                 1.4532
 Frc consts  --      1.5296                 0.7890                 0.7741
 IR Inten    --     67.8873                13.4883                 3.1895

                     49                     50                     51
                      A                      A                      A
 Frequencies --    979.7647               996.3340              1008.7746
 Red. masses --      1.8016                 1.3332                 1.2788
 Frc consts  --      1.0189                 0.7797                 0.7667
 IR Inten    --     25.1761                 0.0679                 0.8315

                     52                     53                     54
                      A                      A                      A
 Frequencies --   1012.6463              1016.9870              1024.8710
 Red. masses --      1.3627                 5.7042                 5.4585
 Frc consts  --      0.8233                 3.4760                 3.3780
 IR Inten    --      1.5654                11.9359                 1.7860

                     55                     56                     57
                      A                      A                      A
 Frequencies --   1031.2505              1036.7030              1044.7715
 Red. masses --      1.3101                 1.2400                 1.7294
 Frc consts  --      0.8209                 0.7852                 1.1122
 IR Inten    --      2.1285                18.7938               113.5206

                     58                     59                     60
                      A                      A                      A
 Frequencies --   1056.1810              1062.4657              1064.2900
 Red. masses --      1.7956                 2.1427                 1.5503
 Frc consts  --      1.1802                 1.4251                 1.0346
 IR Inten    --      1.2466                22.3673                 4.9063

                     61                     62                     63
                      A                      A                      A
 Frequencies --   1069.5593              1082.4366              1103.3228
 Red. masses --      1.5006                 3.5326                 1.6783
 Frc consts  --      1.0114                 2.4386                 1.2037
 IR Inten    --     42.2143                12.3245                92.3583

                     64                     65                     66
                      A                      A                      A
 Frequencies --   1115.9699              1121.4291              1137.5319
 Red. masses --      1.7466                 1.8879                 1.7560
 Frc consts  --      1.2816                 1.3988                 1.3387
 IR Inten    --     44.6556                71.0894                21.3712

                     67                     68                     69
                      A                      A                      A
 Frequencies --   1140.3616              1180.5409              1185.4374
 Red. masses --      2.5173                 1.1130                 1.1294
 Frc consts  --      1.9287                 0.9139                 0.9351
 IR Inten    --    217.1163                 6.0390                 0.7885

                     70                     71                     72
                      A                      A                      A
 Frequencies --   1206.8923              1231.3296              1241.8229
 Red. masses --      1.1316                 1.4722                 2.1906
 Frc consts  --      0.9712                 1.3151                 1.9904
 IR Inten    --     22.5098                35.3385               118.4907

                     73                     74                     75
                      A                      A                      A
 Frequencies --   1267.3571              1278.0997              1320.7778
 Red. masses --      1.3476                 2.5581                 5.4530
 Frc consts  --      1.2753                 2.4620                 5.6046
 IR Inten    --     81.3036               179.9731                 6.0644

                     76                     77                     78
                      A                      A                      A
 Frequencies --   1341.4870              1358.6066              1362.9778
 Red. masses --      3.1909                 1.9139                 1.5571
 Frc consts  --      3.3833                 2.0814                 1.7043
 IR Inten    --    317.7199                52.5451                45.7053

                     79                     80                     81
                      A                      A                      A
 Frequencies --   1380.5494              1385.2986              1403.0792
 Red. masses --      2.7307                 1.3849                 2.9609
 Frc consts  --      3.0664                 1.5659                 3.4343
 IR Inten    --    134.6008                20.9979               588.9077

                     82                     83                     84
                      A                      A                      A
 Frequencies --   1415.5272              1416.9305              1445.6206
 Red. masses --      1.3081                 1.2371                 1.1991
 Frc consts  --      1.5443                 1.4633                 1.4765
 IR Inten    --    123.2078                 3.3777                34.2482

                     85                     86                     87
                      A                      A                      A
 Frequencies --   1461.3063              1468.3113              1486.9468
 Red. masses --      1.9290                 1.1173                 1.0680
 Frc consts  --      2.4270                 1.4193                 1.3913
 IR Inten    --    385.0902                40.2340                 4.0451

                     88                     89                     90
                      A                      A                      A
 Frequencies --   1490.2428              1504.0391              1505.0399
 Red. masses --      2.2187                 1.1084                 1.0484
 Frc consts  --      2.9031                 1.4773                 1.3992
 IR Inten    --     33.7149                57.1187                15.2541

                     91                     92                     93
                      A                      A                      A
 Frequencies --   1507.2390              1520.9712              1543.1254
 Red. masses --      1.0549                 1.1475                 2.1773
 Frc consts  --      1.4120                 1.5640                 3.0548
 IR Inten    --    106.5208                29.0054               331.1527

                     94                     95                     96
                      A                      A                      A
 Frequencies --   1545.6747              1549.4703              1622.8544
 Red. masses --      2.2374                 2.1057                 4.7074
 Frc consts  --      3.1495                 2.9786                 7.3045
 IR Inten    --     63.4085                34.0438              1296.6717

                     97                     98                     99
                      A                      A                      A
 Frequencies --   1649.4610              1656.1219              1665.7783
 Red. masses --      2.6504                 4.2018                 1.6251
 Frc consts  --      4.2486                 6.7900                 2.6568
 IR Inten    --     54.8099               142.1859                30.5079

                    100                    101                    102
                      A                      A                      A
 Frequencies --   1672.3849              1678.5020              3013.0220
 Red. masses --      5.7709                 3.5773                 1.0468
 Frc consts  --      9.5097                 5.9382                 5.5991
 IR Inten    --    239.5082                 8.8490               129.6010

                    103                    104                    105
                      A                      A                      A
 Frequencies --   3070.7349              3071.0142              3078.3010
 Red. masses --      1.0604                 1.0639                 1.0343
 Frc consts  --      5.8914                 5.9116                 5.7745
 IR Inten    --     39.5381                41.6564                35.5157

                    106                    107                    108
                      A                      A                      A
 Frequencies --   3106.0694              3139.1073              3161.0310
 Red. masses --      1.1011                 1.1022                 1.1029
 Frc consts  --      6.2587                 6.3991                 6.4929
 IR Inten    --     58.9042                56.9433                12.2127

                    109                    110                    111
                      A                      A                      A
 Frequencies --   3162.4122              3179.7802              3183.5929
 Red. masses --      1.1032                 1.0882                 1.1056
 Frc consts  --      6.5002                 6.4824                 6.6022
 IR Inten    --      1.0150                19.6151                14.8347

                    112                    113                    114
                      A                      A                      A
 Frequencies --   3191.7694              3196.3887              3201.4284
 Red. masses --      1.0880                 1.0859                 1.0928
 Frc consts  --      6.5303                 6.5368                 6.5989
 IR Inten    --      4.5045                 1.2892                34.1757

                    115                    116                    117
                      A                      A                      A
 Frequencies --   3204.1131              3213.4274              3218.7737
 Red. masses --      1.0888                 1.0928                 1.0976
 Frc consts  --      6.5860                 6.6483                 6.6999
 IR Inten    --      3.4125                19.8807                26.3156

                    118                    119                    120
                      A                      A                      A
 Frequencies --   3221.6463              3232.8469              3263.0043
 Red. masses --      1.0965                 1.0935                 1.0922
 Frc consts  --      6.7050                 6.7333                 6.8517
 IR Inten    --     34.6373                21.2680                 1.9653

                    121                    122                    123
                      A                      A                      A
 Frequencies --   3510.1451              3590.0546              3712.1082
 Red. masses --      1.0510                 1.0964                 1.0752
 Frc consts  --      7.6299                 8.3255                 8.7291
 IR Inten    --     45.0799                52.9952                54.3767

 - Thermochemistry -
 -------------------
 Temperature   298.150 Kelvin.  Pressure   1.00000 Atm.
 Atom     1 has atomic number  6 and mass  12.00000

 Molecular mass:   282.17321 amu.
 Principal axes and moments of inertia in atomic units:
                           1         2         3
     Eigenvalues --  2765.07347********************
           X            0.99999  -0.00215  -0.00417
           Y            0.00211   0.99996  -0.00901
           Z            0.00419   0.00901   0.99995
 This molecule is an asymmetric top.
 Rotational symmetry number  1.
 Warning -- assumption of classical behavior for rotation
           may cause significant error
 Rotational temperatures (Kelvin)      0.03132     0.00734     0.00697
 Rotational constants (GHZ):           0.65269     0.15299     0.14514
    1 imaginary frequencies ignored.
 Zero-point vibrational energy     966062.0 (Joules/Mol)
                                  230.89437 (Kcal/Mol)
 Warning -- explicit consideration of  30 degrees of freedom as
           vibrations may cause significant error
 Vibrational temperatures:     26.13    31.65    49.46    59.45   113.28
          (Kelvin)            131.95   176.89   197.93   224.95   241.59
                              255.55   276.89   322.09   359.31   389.52
                              427.37   433.04   468.68   480.91   525.83
                              541.42   550.26   605.34   610.64   623.10
                              671.72   717.41   755.51   812.41   855.01
                              906.56   916.95   920.67   942.20  1030.92
                             1044.91  1052.39  1102.84  1118.28  1148.08
                             1153.73  1229.86  1238.61  1256.76  1293.00
                             1327.47  1368.03  1409.66  1433.50  1451.40
                             1456.97  1463.22  1474.56  1483.74  1491.58
                             1503.19  1519.61  1528.65  1531.28  1538.86
                             1557.38  1587.44  1605.63  1613.49  1636.65
                             1640.73  1698.53  1705.58  1736.45  1771.61
                             1786.71  1823.44  1838.90  1900.30  1930.10
                             1954.73  1961.02  1986.30  1993.14  2018.72
                             2036.63  2038.65  2079.93  2102.49  2112.57
                             2139.38  2144.13  2163.98  2165.42  2168.58
                             2188.34  2220.21  2223.88  2229.34  2334.93
                             2373.21  2382.79  2396.68  2406.19  2414.99
                             4335.07  4418.10  4418.50  4428.99  4468.94
                             4516.48  4548.02  4550.01  4574.99  4580.48
                             4592.24  4598.89  4606.14  4610.00  4623.41
                             4631.10  4635.23  4651.35  4694.74  5050.32
                             5165.29  5340.90

 Zero-point correction=                           0.367954 (Hartree/Particle)
 Thermal correction to Energy=                    0.387920
 Thermal correction to Enthalpy=                  0.388864
 Thermal correction to Gibbs Free Energy=         0.317687
 Sum of electronic and zero-point Energies=           -883.522282
 Sum of electronic and thermal Energies=              -883.502316
 Sum of electronic and thermal Enthalpies=            -883.501371
 Sum of electronic and thermal Free Energies=         -883.572548

                     E (Thermal)             CV                S
                      KCal/Mol        Cal/Mol-Kelvin    Cal/Mol-Kelvin
 Total                  243.424             77.270            149.805
 Electronic               0.000              0.000              0.000
 Translational            0.889              2.981             42.810
 Rotational               0.889              2.981             34.361
 Vibrational            241.646             71.309             72.634
 Vibration     1          0.593              1.986              6.826
 Vibration     2          0.593              1.985              6.445
 Vibration     3          0.594              1.983              5.559
 Vibration     4          0.594              1.981              5.195
 Vibration     5          0.600              1.963              3.922
 Vibration     6          0.602              1.955              3.623
 Vibration     7          0.610              1.930              3.054
 Vibration     8          0.614              1.916              2.837
 Vibration     9          0.620              1.896              2.594
 Vibration    10          0.625              1.882              2.459
 Vibration    11          0.628              1.870              2.353
 Vibration    12          0.634              1.850              2.204
 Vibration    13          0.649              1.805              1.928
 Vibration    14          0.663              1.763              1.732
 Vibration    15          0.674              1.727              1.592
 Vibration    16          0.691              1.679              1.434
 Vibration    17          0.693              1.672              1.411
 Vibration    18          0.710              1.624              1.281
 Vibration    19          0.716              1.607              1.239
 Vibration    20          0.739              1.543              1.099
 Vibration    21          0.747              1.521              1.054
 Vibration    22          0.752              1.508              1.029
 Vibration    23          0.783              1.425              0.889
 Vibration    24          0.786              1.417              0.877
 Vibration    25          0.794              1.398              0.849
 Vibration    26          0.824              1.324              0.746
 Vibration    27          0.854              1.253              0.662
 Vibration    28          0.880              1.194              0.598
 Vibration    29          0.920              1.108              0.515
 Vibration    30          0.952              1.044              0.460

 Optimization completed.
    -- Stationary point found.
 Normal termination of Gaussian 16 at Mon Mar 29 15:57:38 2021.
