 Gaussian 16, Revision A.03,
 Gaussian 16:  ES64L-G16RevA.03 25-Dec-2016

 ----------------------------------------------------------------------
 # wB97XD def2tzvp, opt=(ts, noeigen, calcfc, maxcycles=70, maxstep=5),
  freq=noraman, scrf=(iefpcm, solvent=water)
 ----------------------------------------------------------------------

 ------------------------
 2_iteration/TS-180-2.out
 ------------------------
 Symbolic Z-matrix:
 Charge =  0 Multiplicity = 1

 SCF Done:  E(RwB97XD) =  -1132.31505166     A.U. after   15 cycles
 SCF Done:  E(RwB97XD) =  -1132.31505681     A.U. after   10 cycles
 SCF Done:  E(RwB97XD) =  -1132.31500482     A.U. after   12 cycles
 SCF Done:  E(RwB97XD) =  -1132.31505952     A.U. after   12 cycles
 SCF Done:  E(RwB97XD) =  -1132.31505129     A.U. after   11 cycles
 SCF Done:  E(RwB97XD) =  -1132.31505865     A.U. after    9 cycles
 SCF Done:  E(RwB97XD) =  -1132.31505916     A.U. after    7 cycles
 Optimization completed on the basis of negligible forces.
    -- Stationary point found.
 Normal termination of Gaussian 16 at Sun Feb  7 09:54:37 2021.

 ---------------------------------------------------------------------
 #N Geom=AllCheck Guess=TCheck SCRF=Check GenChk RwB97XD/def2TZVP Freq
 ---------------------------------------------------------------------

 Structure from the checkpoint file:  "/beegfs/scratch/user/q/tla25/Gau-117398.chk"
 ------------------------
 2_iteration/TS-180-2.out
 ------------------------
 Charge =  0 Multiplicity = 1

                         Standard orientation:
 ---------------------------------------------------------------------
 Center     Atomic      Atomic             Coordinates (Angstroms)
 Number     Number       Type             X           Y           Z
 ---------------------------------------------------------------------
      1          6           0       -0.785638   -0.749632   -0.520487
      2          6           0       -2.213236   -0.838747   -0.398546
      3          8           0       -2.915550   -1.696828   -0.914690
      4          6           0       -0.002354    0.111464    0.241575
      5          6           0       -0.676655    2.141873   -1.598365
      6          1           0       -1.395185    2.941272   -1.773407
      7          1           0        0.264926    2.392014   -2.080342
      8          1           0       -1.061230    1.215267   -2.030583
      9          7           0       -0.477943    1.914776   -0.172652
     10          1           0        0.134092    2.593339    0.265891
     11          1           0       -1.369080    1.929319    0.311548
     12          6           0        1.493389    0.013280    0.118624
     13          6           0        2.086674   -1.165195    0.575203
     14          6           0        3.453191   -1.352765    0.486280
     15          6           0        4.259273   -0.361848   -0.060373
     16          6           0        3.681177    0.811108   -0.511673
     17          6           0        2.306903    0.998780   -0.421603
     18          1           0        1.462822   -1.940974    1.000632
     19          1           0        3.891361   -2.275460    0.844701
     20          1           0        5.329685   -0.505841   -0.131184
     21          1           0        4.295834    1.592804   -0.939160
     22          1           0        1.896655    1.926228   -0.790047
     23         17           0       -0.377974    0.311308    2.031229
     24          6           0       -0.169147   -1.597848   -1.612141
     25          1           0       -0.882563   -1.728202   -2.426244
     26          1           0        0.726608   -1.136061   -2.026068
     27          1           0        0.111249   -2.597501   -1.264221
     28          8           0       -2.776319    0.174168    0.311437
     29          6           0       -4.181778    0.113364    0.508120
     30          1           0       -4.435065    0.981548    1.111572
     31          1           0       -4.712101    0.154090   -0.443467
     32          1           0       -4.462683   -0.799239    1.034395
 ---------------------------------------------------------------------

 SCF Done:  E(RwB97XD) =  -1132.31505916     A.U. after    1 cycles

 The electronic state is 1-A.
 Alpha  occ. eigenvalues -- -101.68689 -19.28343 -19.21225 -14.49036 -10.40224
 Alpha  occ. eigenvalues --  -10.39433 -10.32694 -10.31795 -10.31471 -10.29975
 Alpha  occ. eigenvalues --  -10.29611 -10.29531 -10.29476 -10.29401 -10.26967
 Alpha  occ. eigenvalues --  -10.26494  -9.57293  -7.31907  -7.31092  -7.31051
 Alpha  occ. eigenvalues --   -1.19554  -1.09851  -1.04832  -0.98495  -0.95157
 Alpha  occ. eigenvalues --   -0.88770  -0.86252  -0.85763  -0.81664  -0.79265
 Alpha  occ. eigenvalues --   -0.77071  -0.72633  -0.71263  -0.67873  -0.65071
 Alpha  occ. eigenvalues --   -0.63030  -0.60992  -0.58572  -0.57960  -0.56818
 Alpha  occ. eigenvalues --   -0.56514  -0.55392  -0.54835  -0.53115  -0.51902
 Alpha  occ. eigenvalues --   -0.51473  -0.51366  -0.49362  -0.48270  -0.47256
 Alpha  occ. eigenvalues --   -0.46500  -0.45738  -0.45583  -0.45207  -0.43897
 Alpha  occ. eigenvalues --   -0.43514  -0.42987  -0.39686  -0.38654  -0.37560
 Alpha  occ. eigenvalues --   -0.35581  -0.34387  -0.33320  -0.27263
 Alpha virt. eigenvalues --    0.03193   0.04636   0.05280   0.08829   0.10477
 Alpha virt. eigenvalues --    0.12739   0.13096   0.14265   0.14947   0.15690
 Alpha virt. eigenvalues --    0.16124   0.16961   0.17198   0.18286   0.18413

 Mulliken charges:
               1
     1  C   -0.336719
     2  C    0.407452
     3  O   -0.502227
     4  C    0.314039
     5  C   -0.284494
     6  H    0.160591
     7  H    0.151191
     8  H    0.153733
     9  N   -0.332620
    10  H    0.290364
    11  H    0.282760
    12  C    0.151558
    13  C   -0.316823
    14  C   -0.121202
    15  C   -0.145976
    16  C   -0.169064
    17  C   -0.163779
    18  H    0.160193
    19  H    0.146007
    20  H    0.146633
    21  H    0.145042
    22  H    0.130570
    23  Cl  -0.166451
    24  C   -0.366492
    25  H    0.130022
    26  H    0.138684
    27  H    0.120665
    28  O   -0.317707
    29  C   -0.199975
    30  H    0.137607
    31  H    0.127395
    32  H    0.129022
 Sum of Mulliken charges =  -0.00000

 Dipole moment (field-independent basis, Debye):
    X=              3.4318    Y=              7.8723    Z=             -0.7655  Tot=              8.6219
 Quadrupole moment (field-independent basis, Debye-Ang):
   XX=            -96.0184   YY=            -93.7404   ZZ=           -107.1897
   XY=            -13.9717   XZ=             -7.0838   YZ=             -9.2587

  Exact polarizability: 279.123  11.157 239.552  -2.376  -5.114 197.175
 Approx polarizability: 210.802   8.232 203.361  -2.154  -4.679 168.909

 ******    1 imaginary frequencies (negative Signs) ******

                      1                      2                      3
                      A                      A                      A
 Frequencies --   -361.4323                12.8987                60.8047
 Red. masses --      5.4209                 3.5829                 3.5416
 Frc consts  --      0.4172                 0.0004                 0.0077
 IR Inten    --    581.3880                 0.7924                 2.4122

                      4                      5                      6
                      A                      A                      A
 Frequencies --     78.3848                83.4838               112.7432
 Red. masses --      4.7639                 5.6533                 1.4587
 Frc consts  --      0.0172                 0.0232                 0.0109
 IR Inten    --      1.8340                 1.5141                 3.0535

                      7                      8                      9
                      A                      A                      A
 Frequencies --    115.5479               134.6661               141.3011
 Red. masses --      2.3110                 1.7503                 3.1390
 Frc consts  --      0.0182                 0.0187                 0.0369
 IR Inten    --      5.2126                 0.6928                 7.9065

                     10                     11                     12
                      A                      A                      A
 Frequencies --    151.8363               165.9919               186.9579
 Red. masses --      1.3765                 1.3861                 2.5610
 Frc consts  --      0.0187                 0.0225                 0.0527
 IR Inten    --      1.9244                 0.8525                 3.9708

                     13                     14                     15
                      A                      A                      A
 Frequencies --    208.9353               219.6977               252.7281
 Red. masses --      3.9561                 4.7779                 3.3571
 Frc consts  --      0.1018                 0.1359                 0.1263
 IR Inten    --      5.6279                11.0577                 1.6039

                     16                     17                     18
                      A                      A                      A
 Frequencies --    295.8496               316.8672               331.1358
 Red. masses --      4.0813                 4.1007                 3.1252
 Frc consts  --      0.2105                 0.2426                 0.2019
 IR Inten    --      7.7128                10.4381                38.8061

                     19                     20                     21
                      A                      A                      A
 Frequencies --    338.3989               367.6998               390.1866
 Red. masses --      4.0387                 5.4734                 7.0806
 Frc consts  --      0.2725                 0.4360                 0.6351
 IR Inten    --      7.2708                16.9228                40.9628

                     22                     23                     24
                      A                      A                      A
 Frequencies --    419.3842               493.9277               535.1978
 Red. masses --      2.8667                 5.7886                 3.4780
 Frc consts  --      0.2971                 0.8321                 0.5870
 IR Inten    --      0.6916               108.5220                 2.8545

                     25                     26                     27
                      A                      A                      A
 Frequencies --    589.2353               624.4574               645.8674
 Red. masses --      2.6560                 5.3513                 6.3106
 Frc consts  --      0.5433                 1.2295                 1.5510
 IR Inten    --     66.5350                42.1502                47.9434

                     28                     29                     30
                      A                      A                      A
 Frequencies --    689.8161               721.6369               729.1533
 Red. masses --      2.1984                 2.1940                 1.9710
 Frc consts  --      0.6164                 0.6732                 0.6174
 IR Inten    --     41.5058                 6.7137               227.9174

                     31                     32                     33
                      A                      A                      A
 Frequencies --    785.3896               800.0664               839.2494
 Red. masses --      3.2705                 6.4572                 3.4882
 Frc consts  --      1.1886                 2.4353                 1.4475
 IR Inten    --     65.7097                70.7137                51.0318

                     34                     35                     36
                      A                      A                      A
 Frequencies --    871.7512               903.5238               957.8091
 Red. masses --      1.2525                 3.9295                 1.4619
 Frc consts  --      0.5608                 1.8900                 0.7902
 IR Inten    --      0.4059                45.7810                 4.3239

                     37                     38                     39
                      A                      A                      A
 Frequencies --    988.2919              1012.1508              1017.2285
 Red. masses --      1.3106                 1.4328                 2.4063
 Frc consts  --      0.7542                 0.8648                 1.4670
 IR Inten    --     69.3738                10.1485               110.3076

                     40                     41                     42
                      A                      A                      A
 Frequencies --   1026.6917              1033.0517              1049.8135
 Red. masses --      5.1888                 1.3191                 2.2436
 Frc consts  --      3.2225                 0.8294                 1.4569
 IR Inten    --      1.8939                 0.1392                84.2383

                     43                     44                     45
                      A                      A                      A
 Frequencies --   1068.1020              1069.6498              1080.2404
 Red. masses --      1.4202                 1.9722                 3.0004
 Frc consts  --      0.9546                 1.3295                 2.0628
 IR Inten    --      6.3519                 1.0660                96.8988

                     46                     47                     48
                      A                      A                      A
 Frequencies --   1089.7465              1128.0755              1167.0300
 Red. masses --      1.3189                 1.5967                 5.9321
 Frc consts  --      0.9228                 1.1972                 4.7602
 IR Inten    --     34.6235                 8.7637               371.3819

                     49                     50                     51
                      A                      A                      A
 Frequencies --   1181.4797              1186.7730              1213.0042
 Red. masses --      1.2853                 1.1355                 1.6814
 Frc consts  --      1.0571                 0.9423                 1.4576
 IR Inten    --      3.3867                 0.7348                90.0381

                     52                     53                     54
                      A                      A                      A
 Frequencies --   1216.6111              1224.7488              1238.5775
 Red. masses --      1.4223                 1.1991                 2.7045
 Frc consts  --      1.2404                 1.0598                 2.4444
 IR Inten    --     90.6116                 3.2281                20.2901

                     55                     56                     57
                      A                      A                      A
 Frequencies --   1322.1035              1343.4609              1357.6791
 Red. masses --      4.7295                 1.5623                 3.2915
 Frc consts  --      4.8708                 1.6614                 3.5747
 IR Inten    --      7.4004               157.7095               377.9495

                     58                     59                     60
                      A                      A                      A
 Frequencies --   1370.3710              1416.7327              1439.1277
 Red. masses --      1.3951                 1.2914                 1.4367
 Frc consts  --      1.5436                 1.5271                 1.7531
 IR Inten    --      8.0648                16.3745               245.3654

                     61                     62                     63
                      A                      A                      A
 Frequencies --   1464.2831              1477.6130              1480.9433
 Red. masses --      1.8816                 1.0587                 1.1980
 Frc consts  --      2.3770                 1.3619                 1.5480
 IR Inten    --    278.7619                13.1687                45.7802

                     64                     65                     66
                      A                      A                      A
 Frequencies --   1482.5824              1489.0721              1490.0455
 Red. masses --      1.0622                 1.2496                 1.5769
 Frc consts  --      1.3756                 1.6325                 2.0627
 IR Inten    --     15.6116                 2.5295                36.9157

                     67                     68                     69
                      A                      A                      A
 Frequencies --   1497.3017              1503.6507              1508.9012
 Red. masses --      1.0587                 1.0522                 1.2683
 Frc consts  --      1.3984                 1.4017                 1.7014
 IR Inten    --      5.7562                 5.9806               254.6572

                     70                     71                     72
                      A                      A                      A
 Frequencies --   1549.5657              1633.1732              1654.7952
 Red. masses --      2.3827                 1.1219                 5.1383
 Frc consts  --      3.3708                 1.7630                 8.2900
 IR Inten    --     25.7708               130.1310                 0.2319

                     73                     74                     75
                      A                      A                      A
 Frequencies --   1677.1394              1692.4813              3028.8142
 Red. masses --      5.8516                 9.9711                 1.0485
 Frc consts  --      9.6976                16.8283                 5.6669
 IR Inten    --      2.5534              1086.7776                98.3300

                     76                     77                     78
                      A                      A                      A
 Frequencies --   3059.6529              3061.9827              3100.7475
 Red. masses --      1.0375                 1.0309                 1.0878
 Frc consts  --      5.7224                 5.6947                 6.1624
 IR Inten    --     40.9721                63.3212                36.8184

                     79                     80                     81
                      A                      A                      A
 Frequencies --   3137.3254              3137.4365              3139.6765
 Red. masses --      1.1061                 1.1000                 1.1015
 Frc consts  --      6.4146                 6.3794                 6.3972
 IR Inten    --     30.9117                14.9436                28.4659

                     82                     83                     84
                      A                      A                      A
 Frequencies --   3170.6202              3174.0024              3198.8920
 Red. masses --      1.1053                 1.1052                 1.0862
 Frc consts  --      6.5467                 6.5599                 6.5487
 IR Inten    --     24.0595                17.4272                 0.5235

                     85                     86                     87
                      A                      A                      A
 Frequencies --   3206.5006              3215.2137              3224.4612
 Red. masses --      1.0893                 1.0939                 1.0982
 Frc consts  --      6.5987                 6.6626                 6.7272
 IR Inten    --      4.4338                21.6585                19.9252

                     88                     89                     90
                      A                      A                      A
 Frequencies --   3254.0010              3518.6583              3601.8517
 Red. masses --      1.0915                 1.0512                 1.0965
 Frc consts  --      6.8093                 7.6685                 8.3811
 IR Inten    --     14.2798                44.2397                85.6506

 - Thermochemistry -
 -------------------
 Temperature   298.150 Kelvin.  Pressure   1.00000 Atm.
 Atom     1 has atomic number  6 and mass  12.00000

 Molecular mass:   241.08696 amu.
 Principal axes and moments of inertia in atomic units:
                           1         2         3
     Eigenvalues --  2100.681155794.090605967.70548
           X            0.99993  -0.01193  -0.00154
           Y            0.01144   0.98238  -0.18654
           Z            0.00374   0.18651   0.98245
 This molecule is an asymmetric top.
 Rotational symmetry number  1.
 Warning -- assumption of classical behavior for rotation
           may cause significant error
 Rotational temperatures (Kelvin)      0.04123     0.01495     0.01451
 Rotational constants (GHZ):           0.85912     0.31148     0.30242
    1 imaginary frequencies ignored.
 Zero-point vibrational energy     691709.0 (Joules/Mol)
                                  165.32241 (Kcal/Mol)
 Warning -- explicit consideration of  24 degrees of freedom as
           vibrations may cause significant error
 Vibrational temperatures:     18.56    87.48   112.78   120.11   162.21
          (Kelvin)            166.25   193.75   203.30   218.46   238.83
                              268.99   300.61   316.10   363.62   425.66
                              455.90   476.43   486.88   529.04   561.39
                              603.40   710.65   770.03   847.78   898.45
                              929.26   992.49  1038.27  1049.09  1130.00
                             1151.12  1207.49  1254.26  1299.97  1378.07
                             1421.93  1456.26  1463.56  1477.18  1486.33
                             1510.45  1536.76  1538.99  1554.22  1567.90
                             1623.05  1679.10  1699.89  1707.50  1745.24
                             1750.43  1762.14  1782.04  1902.21  1932.94
                             1953.40  1971.66  2038.36  2070.58  2106.78
                             2125.96  2130.75  2133.11  2142.44  2143.84
                             2154.28  2163.42  2170.97  2229.48  2349.77
                             2380.88  2413.03  2435.10  4357.79  4402.16
                             4405.51  4461.28  4513.91  4514.07  4517.29
                             4561.82  4566.68  4602.49  4613.44  4625.98
                             4639.28  4681.78  5062.56  5182.26

 Zero-point correction=                           0.263458 (Hartree/Particle)
 Thermal correction to Energy=                    0.280386
 Thermal correction to Enthalpy=                  0.281330
 Thermal correction to Gibbs Free Energy=         0.217734
 Sum of electronic and zero-point Energies=          -1132.051601
 Sum of electronic and thermal Energies=             -1132.034673
 Sum of electronic and thermal Enthalpies=           -1132.033729
 Sum of electronic and thermal Free Energies=        -1132.097325

                     E (Thermal)             CV                S
                      KCal/Mol        Cal/Mol-Kelvin    Cal/Mol-Kelvin
 Total                  175.945             61.417            133.848
 Electronic               0.000              0.000              0.000
 Translational            0.889              2.981             42.341
 Rotational               0.889              2.981             32.652
 Vibrational            174.167             55.455             58.856
 Vibration     1          0.593              1.987              7.505
 Vibration     2          0.597              1.973              4.431
 Vibration     3          0.600              1.964              3.931
 Vibration     4          0.600              1.961              3.807
 Vibration     5          0.607              1.939              3.221
 Vibration     6          0.608              1.937              3.174
 Vibration     7          0.613              1.919              2.878
 Vibration     8          0.615              1.912              2.786
 Vibration     9          0.619              1.901              2.649
 Vibration    10          0.624              1.884              2.480
 Vibration    11          0.632              1.858              2.258
 Vibration    12          0.642              1.827              2.053
 Vibration    13          0.647              1.811              1.962
 Vibration    14          0.664              1.758              1.711
 Vibration    15          0.690              1.681              1.440
 Vibration    16          0.704              1.641              1.326
 Vibration    17          0.714              1.613              1.255
 Vibration    18          0.719              1.599              1.220
 Vibration    19          0.740              1.539              1.089
 Vibration    20          0.758              1.491              0.999
 Vibration    21          0.782              1.428              0.894
 Vibration    22          0.850              1.263              0.673
 Vibration    23          0.890              1.172              0.576
 Vibration    24          0.947              1.055              0.469

 Optimization completed on the basis of negligible forces.
    -- Stationary point found.
 Normal termination of Gaussian 16 at Sun Feb  7 11:09:22 2021.
