 Gaussian 16, Revision A.03,
 Gaussian 16:  ES64L-G16RevA.03 25-Dec-2016

 ----------------------------------------------------------------------
 # wB97XD def2tzvp, opt=(ts, noeigen, calcfc, maxcycles=70, maxstep=3),
  freq=noraman, scrf=(iefpcm, solvent=water)
 ----------------------------------------------------------------------

 ------------------------
 3_iteration/TS-192-3.out
 ------------------------
 Symbolic Z-matrix:
 Charge =  0 Multiplicity = 1

 SCF Done:  E(RwB97XD) =  -3783.10467936     A.U. after   15 cycles
 SCF Done:  E(RwB97XD) =  -3783.10469207     A.U. after   11 cycles
 SCF Done:  E(RwB97XD) =  -3783.10469758     A.U. after   11 cycles
 SCF Done:  E(RwB97XD) =  -3783.10469797     A.U. after    7 cycles
 Optimization completed.
    -- Stationary point found.
 Normal termination of Gaussian 16 at Sun Feb  7 19:59:51 2021.

 ---------------------------------------------------------------------
 #N Geom=AllCheck Guess=TCheck SCRF=Check GenChk RwB97XD/def2TZVP Freq
 ---------------------------------------------------------------------

 Structure from the checkpoint file:  "/beegfs/scratch/user/q/tla25/Gau-1870.chk"
 ------------------------
 3_iteration/TS-192-3.out
 ------------------------
 Charge =  0 Multiplicity = 1

                         Standard orientation:
 ---------------------------------------------------------------------
 Center     Atomic      Atomic             Coordinates (Angstroms)
 Number     Number       Type             X           Y           Z
 ---------------------------------------------------------------------
      1          6           0       -0.028573    0.770165   -0.148961
      2          6           0       -1.347323    1.270646   -0.430045
      3          8           0       -1.561228    2.433687   -0.766206
      4          6           0        0.420196   -0.538715    0.062113
      5          6           0        0.080877    0.031821    2.872609
      6          1           0       -0.535322   -0.180246    3.745714
      7          1           0        1.102948    0.217751    3.192031
      8          1           0       -0.295720    0.929968    2.379783
      9          7           0        0.040057   -1.069339    1.917164
     10          1           0        0.615768   -1.855894    2.197070
     11          1           0       -0.907206   -1.415504    1.810639
     12          6           0        1.888101   -0.849716   -0.101133
     13          6           0        2.351971   -1.005351   -1.407144
     14          6           0        3.689924   -1.250036   -1.656693
     15          6           0        4.589905   -1.347311   -0.604038
     16          6           0        4.136556   -1.191769    0.694311
     17          6           0        2.794094   -0.942133    0.945039
     18          1           0        1.658531   -0.926170   -2.234362
     19          1           0        4.030045   -1.365362   -2.677695
     20          1           0        5.636941   -1.541535   -0.797142
     21          1           0        4.826609   -1.259550    1.525237
     22          1           0        2.486801   -0.797368    1.969101
     23         17           0       -0.531863   -1.871361   -0.657928
     24         35           0        1.298468    2.151715   -0.045898
     25          6           0       -2.549975    0.376359   -0.293843
     26          6           0       -3.270985    0.018104   -1.427520
     27          6           0       -4.413842   -0.754972   -1.310089
     28          6           0       -4.860044   -1.156595   -0.056996
     29          6           0       -4.164341   -0.769811    1.077995
     30          6           0       -3.011775   -0.005226    0.959194
     31          1           0       -2.922096    0.329770   -2.404230
     32          1           0       -4.960322   -1.045496   -2.198419
     33          1           0       -5.753923   -1.760416    0.033123
     34          1           0       -4.518222   -1.059313    2.059241
     35          1           0       -2.488738    0.315604    1.851850
 ---------------------------------------------------------------------

 SCF Done:  E(RwB97XD) =  -3783.10469797     A.U. after    1 cycles

 The electronic state is 1-A.
 Alpha  occ. eigenvalues -- -483.12384-101.70791 -62.67196 -56.46316 -56.45962
 Alpha  occ. eigenvalues --  -56.45952 -19.22404 -14.49525 -10.42440 -10.37552
 Alpha  occ. eigenvalues --  -10.32491 -10.32388 -10.32144 -10.30510 -10.30291
 Alpha  occ. eigenvalues --  -10.30004 -10.29776 -10.29749 -10.29713 -10.29634
 Alpha  occ. eigenvalues --  -10.29550 -10.29502 -10.29435 -10.29341  -9.59394
 Alpha  occ. eigenvalues --   -8.81293  -7.34057  -7.33171  -7.33120  -6.63445
 Alpha  occ. eigenvalues --   -6.62314  -6.62282  -2.73833  -2.73507  -2.73482
 Alpha  occ. eigenvalues --   -2.72567  -2.72566  -1.13456  -1.05433  -1.00037
 Alpha  occ. eigenvalues --   -0.97282  -0.96520  -0.91696  -0.87449  -0.86729
 Alpha  occ. eigenvalues --   -0.86109  -0.85710  -0.81806  -0.79788  -0.76226
 Alpha  occ. eigenvalues --   -0.71650  -0.71583  -0.71024  -0.68535  -0.65137
 Alpha  occ. eigenvalues --   -0.64025  -0.61598  -0.59641  -0.58592  -0.57698
 Alpha  occ. eigenvalues --   -0.56672  -0.56347  -0.55535  -0.54129  -0.53566
 Alpha  occ. eigenvalues --   -0.53046  -0.51752  -0.51593  -0.51237  -0.49615
 Alpha  occ. eigenvalues --   -0.48547  -0.47685  -0.47333  -0.46500  -0.46104
 Alpha  occ. eigenvalues --   -0.44633  -0.44173  -0.43641  -0.43154  -0.41198
 Alpha  occ. eigenvalues --   -0.40013  -0.39306  -0.37402  -0.35028  -0.34440
 Alpha  occ. eigenvalues --   -0.34340  -0.34028  -0.32035  -0.29070
 Alpha virt. eigenvalues --    0.01040   0.02951   0.04412   0.04654   0.04938
 Alpha virt. eigenvalues --    0.05951   0.10228   0.10886   0.13092   0.13610
 Alpha virt. eigenvalues --    0.13888   0.14177   0.14768   0.15076   0.17058

 Mulliken charges:
               1
     1  C   -0.304068
     2  C    0.218661
     3  O   -0.448639
     4  C    0.320673
     5  C   -0.323019
     6  H    0.174645
     7  H    0.166687
     8  H    0.165063
     9  N   -0.352101
    10  H    0.296337
    11  H    0.281053
    12  C    0.177973
    13  C   -0.295550
    14  C   -0.128760
    15  C   -0.135509
    16  C   -0.174781
    17  C   -0.163771
    18  H    0.155995
    19  H    0.148415
    20  H    0.148725
    21  H    0.146689
    22  H    0.131181
    23  Cl  -0.084511
    24  Br  -0.125884
    25  C    0.202498
    26  C   -0.233576
    27  C   -0.132032
    28  C   -0.154250
    29  C   -0.129817
    30  C   -0.325756
    31  H    0.143237
    32  H    0.145931
    33  H    0.146710
    34  H    0.145492
    35  H    0.196059
 Sum of Mulliken charges =  -0.00000

 Dipole moment (field-independent basis, Debye):
    X=              2.0069    Y=             -8.9141    Z=              6.6284  Tot=             11.2882
 Quadrupole moment (field-independent basis, Debye-Ang):
   XX=           -121.0405   YY=           -153.6168   ZZ=           -112.8229
   XY=              7.1016   XZ=             -1.9760   YZ=             -0.5891

  Exact polarizability: 371.968  11.854 285.117  12.573 -14.207 317.103
 Approx polarizability: 282.294  12.344 242.601   9.995 -11.045 275.396

 ******    1 imaginary frequencies (negative Signs) ******

                      1                      2                      3
                      A                      A                      A
 Frequencies --   -319.5816                33.4676                38.3128
 Red. masses --      5.5714                 5.1802                 5.3711
 Frc consts  --      0.3353                 0.0034                 0.0046
 IR Inten    --    719.3935                 2.9579                 1.0746

                      4                      5                      6
                      A                      A                      A
 Frequencies --     46.0624                58.5500                72.7640
 Red. masses --      5.3539                 6.4719                 4.3315
 Frc consts  --      0.0067                 0.0131                 0.0135
 IR Inten    --      3.0851                 2.4680                 0.5064

                      7                      8                      9
                      A                      A                      A
 Frequencies --     76.1232               107.2062               147.4605
 Red. masses --      6.5868                 4.3904                 3.2271
 Frc consts  --      0.0225                 0.0297                 0.0413
 IR Inten    --      2.3886                 2.6096                 0.8727

                     10                     11                     12
                      A                      A                      A
 Frequencies --    169.8407               188.7145               196.6646
 Red. masses --      6.2504                 7.1634                 3.8452
 Frc consts  --      0.1062                 0.1503                 0.0876
 IR Inten    --      3.6959                 0.2067                 1.5054

                     13                     14                     15
                      A                      A                      A
 Frequencies --    210.0898               214.7669               223.3905
 Red. masses --      1.8186                 2.3574                 6.8221
 Frc consts  --      0.0473                 0.0641                 0.2006
 IR Inten    --      8.3532                 6.7572                 0.5135

                     16                     17                     18
                      A                      A                      A
 Frequencies --    234.9270               262.8995               303.6285
 Red. masses --      3.5111                 5.3609                 3.6459
 Frc consts  --      0.1142                 0.2183                 0.1980
 IR Inten    --      3.0319                 8.2709                25.5802

                     19                     20                     21
                      A                      A                      A
 Frequencies --    333.9128               345.8943               374.6087
 Red. masses --      6.4982                 6.6852                 9.4008
 Frc consts  --      0.4269                 0.4713                 0.7773
 IR Inten    --     13.1095                13.6456                25.9363

                     22                     23                     24
                      A                      A                      A
 Frequencies --    384.5839               418.6407               419.6744
 Red. masses --      5.3752                 2.8958                 2.9537
 Frc consts  --      0.4684                 0.2990                 0.3065
 IR Inten    --      6.4127                 0.1850                 1.2907

                     25                     26                     27
                      A                      A                      A
 Frequencies --    520.4459               556.3766               574.7196
 Red. masses --      4.2209                 3.8638                 4.1731
 Frc consts  --      0.6736                 0.7047                 0.8121
 IR Inten    --     41.6201                12.9409               163.2136

                     28                     29                     30
                      A                      A                      A
 Frequencies --    620.8766               635.8213               639.6008
 Red. masses --      3.6373                 6.4190                 6.1002
 Frc consts  --      0.8261                 1.5289                 1.4703
 IR Inten    --     40.8671                 0.5455                22.2759

                     31                     32                     33
                      A                      A                      A
 Frequencies --    660.8052               687.6053               724.5810
 Red. masses --      2.5075                 3.1889                 1.7017
 Frc consts  --      0.6451                 0.8883                 0.5264
 IR Inten    --    155.7723                19.1791                75.2251

                     34                     35                     36
                      A                      A                      A
 Frequencies --    731.7011               746.8756               768.5679
 Red. masses --      1.6568                 3.6861                 5.9939
 Frc consts  --      0.5226                 1.2115                 2.0860
 IR Inten    --     96.3054               167.6171                62.1408

                     37                     38                     39
                      A                      A                      A
 Frequencies --    785.4453               816.6737               846.4563
 Red. masses --      2.6433                 2.9247                 4.7332
 Frc consts  --      0.9608                 1.1493                 1.9981
 IR Inten    --     42.7233                75.7112                27.7238

                     40                     41                     42
                      A                      A                      A
 Frequencies --    871.6451               884.3889               918.2959
 Red. masses --      1.2525                 1.2617                 4.2942
 Frc consts  --      0.5607                 0.5814                 2.1335
 IR Inten    --      0.9858                 1.4400                 3.7049

                     43                     44                     45
                      A                      A                      A
 Frequencies --    960.3213               964.9388               999.1755
 Red. masses --      1.4448                 1.4683                 1.1394
 Frc consts  --      0.7850                 0.8055                 0.6702
 IR Inten    --      0.0200                16.8897                36.6093

                     46                     47                     48
                      A                      A                      A
 Frequencies --   1012.7540              1016.5228              1026.3192
 Red. masses --      1.3762                 1.4747                 5.3108
 Frc consts  --      0.8316                 0.8978                 3.2959
 IR Inten    --      0.5361                 6.0155                 2.9859

                     49                     50                     51
                      A                      A                      A
 Frequencies --   1027.2841              1033.1766              1034.4308
 Red. masses --      3.8038                 1.3603                 1.3218
 Frc consts  --      2.3651                 0.8555                 0.8334
 IR Inten    --      1.9963                 2.8368                 0.1010

                     52                     53                     54
                      A                      A                      A
 Frequencies --   1058.5809              1062.9688              1067.9402
 Red. masses --      2.1376                 1.5272                 2.1739
 Frc consts  --      1.4113                 1.0167                 1.4608
 IR Inten    --     40.9391                89.5009                16.1065

                     55                     56                     57
                      A                      A                      A
 Frequencies --   1079.4533              1114.2067              1128.7667
 Red. masses --      2.7452                 1.5592                 1.5779
 Frc consts  --      1.8846                 1.1404                 1.1845
 IR Inten    --      7.4283                13.8409                 5.8505

                     58                     59                     60
                      A                      A                      A
 Frequencies --   1146.6327              1184.8747              1188.0840
 Red. masses --      4.0538                 1.1402                 1.1464
 Frc consts  --      3.1402                 0.9432                 0.9534
 IR Inten    --     38.4426                 0.0988                 1.2444

                     61                     62                     63
                      A                      A                      A
 Frequencies --   1208.5314              1211.1736              1219.2068
 Red. masses --      1.4409                 1.7831                 1.5520
 Frc consts  --      1.2399                 1.5411                 1.3592
 IR Inten    --     50.1301                59.5005                25.4866

                     64                     65                     66
                      A                      A                      A
 Frequencies --   1224.0827              1316.4991              1321.4945
 Red. masses --      1.1709                 4.6249                 4.6609
 Frc consts  --      1.0337                 4.7228                 4.7957
 IR Inten    --      2.6959               113.1783                14.4914

                     67                     68                     69
                      A                      A                      A
 Frequencies --   1327.4821              1338.9045              1360.9868
 Red. masses --      4.8724                 1.3570                 1.4547
 Frc consts  --      5.0589                 1.4333                 1.5875
 IR Inten    --     87.7817                27.9095                 1.9982

                     70                     71                     72
                      A                      A                      A
 Frequencies --   1366.5634              1405.9598              1457.8119
 Red. masses --      1.4114                 5.7753                 1.2291
 Frc consts  --      1.5529                 6.7262                 1.5390
 IR Inten    --      6.5992              1257.4643                39.5002

                     73                     74                     75
                      A                      A                      A
 Frequencies --   1489.0155              1490.3296              1493.1210
 Red. masses --      2.1909                 2.0908                 1.0777
 Frc consts  --      2.8620                 2.7360                 1.4156
 IR Inten    --     21.2984                12.8342                19.0706

                     76                     77                     78
                      A                      A                      A
 Frequencies --   1509.0702              1542.6334              1545.6949
 Red. masses --      1.0555                 2.2977                 2.2722
 Frc consts  --      1.4162                 3.2216                 3.1985
 IR Inten    --     18.4330                 6.7627                11.7682

                     79                     80                     81
                      A                      A                      A
 Frequencies --   1648.1104              1650.9000              1654.9516
 Red. masses --      5.6665                 1.6985                 4.2569
 Frc consts  --      9.0686                 2.7275                 6.8693
 IR Inten    --    298.0751                41.6791               295.3444

                     82                     83                     84
                      A                      A                      A
 Frequencies --   1656.8563              1674.7247              1675.5659
 Red. masses --      2.9178                 5.8401                 5.7632
 Frc consts  --      4.7193                 9.6507                 9.5332
 IR Inten    --    127.6928                 0.2635                 0.8880

                     85                     86                     87
                      A                      A                      A
 Frequencies --   3066.6263              3139.9148              3177.2859
 Red. masses --      1.0356                 1.1030                 1.1040
 Frc consts  --      5.7379                 6.4070                 6.5667
 IR Inten    --     24.0109                 7.9834                16.5991

                     88                     89                     90
                      A                      A                      A
 Frequencies --   3195.6310              3200.9886              3201.4547
 Red. masses --      1.0859                 1.0877                 1.0863
 Frc consts  --      6.5337                 6.5665                 6.5601
 IR Inten    --      1.6171                 0.0459                 0.2587

                     91                     92                     93
                      A                      A                      A
 Frequencies --   3208.3897              3209.5358              3215.4476
 Red. masses --      1.0915                 1.0895                 1.0951
 Frc consts  --      6.6201                 6.6122                 6.6712
 IR Inten    --     11.0352                 5.0920                34.1630

                     94                     95                     96
                      A                      A                      A
 Frequencies --   3217.9973              3224.3773              3226.5626
 Red. masses --      1.0939                 1.0989                 1.0982
 Frc consts  --      6.6740                 6.7311                 6.7363
 IR Inten    --     18.7139                15.8338                17.0899

                     97                     98                     99
                      A                      A                      A
 Frequencies --   3256.0472              3516.6994              3595.9273
 Red. masses --      1.0913                 1.0520                 1.0953
 Frc consts  --      6.8170                 7.6652                 8.3443
 IR Inten    --      9.1339                52.8901                82.3233

 - Thermochemistry -
 -------------------
 Temperature   298.150 Kelvin.  Pressure   1.00000 Atm.
 Atom     1 has atomic number  6 and mass  12.00000

 Molecular mass:   351.00255 amu.
 Principal axes and moments of inertia in atomic units:
                           1         2         3
     Eigenvalues --  4170.131609464.44856**********
           X            0.99979  -0.02027  -0.00130
           Y            0.02026   0.99977  -0.00630
           Z            0.00143   0.00627   0.99998
 This molecule is an asymmetric top.
 Rotational symmetry number  1.
 Warning -- assumption of classical behavior for rotation
           may cause significant error
 Rotational temperatures (Kelvin)      0.02077     0.00915     0.00805
 Rotational constants (GHZ):           0.43278     0.19069     0.16767
    1 imaginary frequencies ignored.
 Zero-point vibrational energy     720164.2 (Joules/Mol)
                                  172.12338 (Kcal/Mol)
 Warning -- explicit consideration of  26 degrees of freedom as
           vibrations may cause significant error
 Vibrational temperatures:     48.15    55.12    66.27    84.24   104.69
          (Kelvin)            109.52   154.25   212.16   244.36   271.52
                              282.96   302.27   309.00   321.41   338.01
                              378.25   436.85   480.43   497.66   538.98
                              553.33   602.33   603.82   748.81   800.50
                              826.89   893.30   914.80   920.24   950.75
                              989.31  1042.51  1052.75  1074.59  1105.80
                             1130.08  1175.01  1217.86  1254.10  1272.44
                             1321.22  1381.69  1388.33  1437.59  1457.13
                             1462.55  1476.64  1478.03  1486.51  1488.32
                             1523.06  1529.37  1536.53  1553.09  1603.09
                             1624.04  1649.75  1704.77  1709.39  1738.81
                             1742.61  1754.17  1761.18  1894.15  1901.34
                             1909.95  1926.38  1958.16  1966.18  2022.86
                             2097.47  2142.36  2144.25  2148.27  2171.22
                             2219.51  2223.91  2371.26  2375.28  2381.11
                             2383.85  2409.56  2410.77  4412.19  4517.64
                             4571.41  4597.80  4605.51  4606.18  4616.16
                             4617.81  4626.31  4629.98  4639.16  4642.30
                             4684.73  5059.75  5173.74

 Zero-point correction=                           0.274296 (Hartree/Particle)
 Thermal correction to Energy=                    0.292936
 Thermal correction to Enthalpy=                  0.293881
 Thermal correction to Gibbs Free Energy=         0.225582
 Sum of electronic and zero-point Energies=          -3782.830402
 Sum of electronic and thermal Energies=             -3782.811762
 Sum of electronic and thermal Enthalpies=           -3782.810817
 Sum of electronic and thermal Free Energies=        -3782.879116

                     E (Thermal)             CV                S
                      KCal/Mol        Cal/Mol-Kelvin    Cal/Mol-Kelvin
 Total                  183.820             69.635            143.747
 Electronic               0.000              0.000              0.000
 Translational            0.889              2.981             43.461
 Rotational               0.889              2.981             34.407
 Vibrational            182.043             63.673             65.880
 Vibration     1          0.594              1.983              5.612
 Vibration     2          0.594              1.982              5.344
 Vibration     3          0.595              1.979              4.980
 Vibration     4          0.596              1.974              4.505
 Vibration     5          0.599              1.967              4.077
 Vibration     6          0.599              1.965              3.988
 Vibration     7          0.606              1.943              3.319
 Vibration     8          0.617              1.905              2.705
 Vibration     9          0.625              1.880              2.437
 Vibration    10          0.633              1.855              2.240
 Vibration    11          0.636              1.845              2.164
 Vibration    12          0.642              1.825              2.043
 Vibration    13          0.645              1.818              2.003
 Vibration    14          0.649              1.805              1.931
 Vibration    15          0.655              1.787              1.841
 Vibration    16          0.670              1.741              1.642
 Vibration    17          0.695              1.667              1.397
 Vibration    18          0.715              1.608              1.241
 Vibration    19          0.724              1.584              1.185
 Vibration    20          0.746              1.524              1.061
 Vibration    21          0.754              1.503              1.021
 Vibration    22          0.781              1.430              0.897
 Vibration    23          0.782              1.427              0.893
 Vibration    24          0.875              1.205              0.609
 Vibration    25          0.912              1.126              0.531
 Vibration    26          0.931              1.086              0.495

 Optimization completed.
    -- Stationary point found.
 Normal termination of Gaussian 16 at Sun Feb  7 22:16:24 2021.
