 Gaussian 16, Revision A.03,
 Gaussian 16:  ES64L-G16RevA.03 25-Dec-2016

 ----------------------------------------------------------------------
 # wB97XD def2tzvp, opt=(ts, noeigen, calcfc, maxcycles=70, maxstep=5),
  freq=noraman, scrf=(iefpcm, solvent=water)
 ----------------------------------------------------------------------

 ------------------------
 2_iteration/TS-145-2.out
 ------------------------
 Symbolic Z-matrix:
 Charge =  0 Multiplicity = 1

 SCF Done:  E(RwB97XD) =  -5666.06094732     A.U. after   15 cycles
 SCF Done:  E(RwB97XD) =  -5666.06094723     A.U. after    9 cycles
 Optimization completed.
    -- Stationary point found.
 Normal termination of Gaussian 16 at Sun Feb  7 10:08:49 2021.

 ---------------------------------------------------------------------
 #N Geom=AllCheck Guess=TCheck SCRF=Check GenChk RwB97XD/def2TZVP Freq
 ---------------------------------------------------------------------

 Structure from the checkpoint file:  "/beegfs/scratch/user/q/tla25/Gau-112353.chk"
 ------------------------
 2_iteration/TS-145-2.out
 ------------------------
 Charge =  0 Multiplicity = 1

                         Standard orientation:
 ---------------------------------------------------------------------
 Center     Atomic      Atomic             Coordinates (Angstroms)
 Number     Number       Type             X           Y           Z
 ---------------------------------------------------------------------
      1          6           0        1.141373   -0.308737   -0.384144
      2          6           0        2.342911    0.128296   -1.002219
      3          8           0        3.326987   -0.558691   -1.255310
      4          6           0        0.061880    0.474170    0.022201
      5          6           0        1.790893    1.099626    2.175891
      6          1           0        2.344850    0.204084    1.903306
      7          1           0        2.128767    1.930264    1.556966
      8          1           0        1.983999    1.333157    3.222457
      9          7           0        0.369584    0.877572    1.945594
     10          1           0        0.034623    0.073576    2.464837
     11          1           0       -0.171517    1.687387    2.223565
     12          6           0       -1.341326   -0.062304    0.028095
     13          6           0       -2.300741    0.255320    0.983703
     14          6           0       -3.594477   -0.230420    0.871226
     15          6           0       -3.954308   -1.024615   -0.205684
     16          6           0       -3.010419   -1.327096   -1.175917
     17          6           0       -1.716600   -0.849768   -1.060529
     18          1           0       -2.070686    0.890788    1.825832
     19          1           0       -4.323368    0.021158    1.630482
     20          1           0       -4.965616   -1.400375   -0.291876
     21          1           0       -3.279716   -1.937468   -2.028126
     22          1           0       -0.986056   -1.083080   -1.823461
     23         35           0        0.047854    2.310358   -0.625486
     24         35           0        1.130759   -2.124981    0.211529
     25          1           0        2.335181    1.192004   -1.287917
 ---------------------------------------------------------------------

 SCF Done:  E(RwB97XD) =  -5666.06094723     A.U. after    1 cycles

 The electronic state is 1-A.
 Alpha  occ. eigenvalues -- -483.14478-483.12871 -62.69298 -62.67685 -56.48431
 Alpha  occ. eigenvalues --  -56.48059 -56.48043 -56.46798 -56.46454 -56.46444
 Alpha  occ. eigenvalues --  -19.22095 -14.49334 -10.41918 -10.35940 -10.32226
 Alpha  occ. eigenvalues --  -10.32122 -10.32090 -10.30468 -10.30132 -10.29873
 Alpha  occ. eigenvalues --  -10.29815 -10.29737  -8.83386  -8.81783  -6.65575
 Alpha  occ. eigenvalues --   -6.64395  -6.64344  -6.63916  -6.62814  -6.62781
 Alpha  occ. eigenvalues --   -2.75952  -2.75622  -2.75584  -2.74630  -2.74629
 Alpha  occ. eigenvalues --   -2.74309  -2.73989  -2.73963  -2.73072  -2.73072
 Alpha  occ. eigenvalues --   -1.12545  -1.04909  -0.99000  -0.95356  -0.90271
 Alpha  occ. eigenvalues --   -0.86854  -0.86226  -0.82012  -0.79529  -0.76006
 Alpha  occ. eigenvalues --   -0.71537  -0.69411  -0.64271  -0.63372  -0.61432
 Alpha  occ. eigenvalues --   -0.58764  -0.57628  -0.56503  -0.54837  -0.54160
 Alpha  occ. eigenvalues --   -0.53078  -0.51652  -0.50726  -0.49030  -0.48011
 Alpha  occ. eigenvalues --   -0.47599  -0.46427  -0.44828  -0.44377  -0.43399
 Alpha  occ. eigenvalues --   -0.39743  -0.39609  -0.38170  -0.37605  -0.34649
 Alpha  occ. eigenvalues --   -0.33662  -0.33259  -0.29225
 Alpha virt. eigenvalues --    0.00481   0.02277   0.04410   0.05548   0.09872
 Alpha virt. eigenvalues --    0.10237   0.13166   0.13534   0.14078   0.14886
 Alpha virt. eigenvalues --    0.16177   0.16735   0.17492   0.18565   0.19255

 Mulliken charges:
               1
     1  C   -0.143754
     2  C    0.070292
     3  O   -0.471104
     4  C    0.131101
     5  C   -0.307370
     6  H    0.164756
     7  H    0.159101
     8  H    0.170468
     9  N   -0.365498
    10  H    0.297458
    11  H    0.296066
    12  C    0.202127
    13  C   -0.201131
    14  C   -0.155751
    15  C   -0.137533
    16  C   -0.123919
    17  C   -0.270124
    18  H    0.140732
    19  H    0.148964
    20  H    0.150069
    21  H    0.149123
    22  H    0.170164
    23  Br  -0.057572
    24  Br  -0.121607
    25  H    0.104942
 Sum of Mulliken charges =  -0.00000

 Dipole moment (field-independent basis, Debye):
    X=             -7.1230    Y=              4.4901    Z=              7.2472  Tot=             11.1094
 Quadrupole moment (field-independent basis, Debye-Ang):
   XX=           -118.6945   YY=           -107.8276   ZZ=            -94.2174
   XY=             12.1279   XZ=              9.4824   YZ=              6.4526

  Exact polarizability: 276.002   1.332 240.401 -25.029  19.852 221.076
 Approx polarizability: 215.155  -0.274 198.927 -20.360  15.390 190.912

 ******    1 imaginary frequencies (negative Signs) ******

                      1                      2                      3
                      A                      A                      A
 Frequencies --   -334.9533                43.3684                57.9543
 Red. masses --      5.2566                 4.2435                 9.8748
 Frc consts  --      0.3475                 0.0047                 0.0195
 IR Inten    --    689.8722                 1.5065                 0.9931

                      4                      5                      6
                      A                      A                      A
 Frequencies --     71.5680                90.4476               113.7662
 Red. masses --      6.8837                 3.1848                 3.6113
 Frc consts  --      0.0208                 0.0154                 0.0275
 IR Inten    --      0.1733                 1.4570                 5.5567

                      7                      8                      9
                      A                      A                      A
 Frequencies --    126.6321               148.2868               184.4853
 Red. masses --      3.4578                 2.2037                11.7913
 Frc consts  --      0.0327                 0.0286                 0.2364
 IR Inten    --      4.8958                 1.5065                 8.5473

                     10                     11                     12
                      A                      A                      A
 Frequencies --    201.6252               208.1294               232.7446
 Red. masses --      2.7232                 9.6972                 2.4998
 Frc consts  --      0.0652                 0.2475                 0.0798
 IR Inten    --      1.7059                 4.8439                 6.1751

                     13                     14                     15
                      A                      A                      A
 Frequencies --    259.9308               268.2160               306.2646
 Red. masses --      4.8216                 2.9468                 3.5719
 Frc consts  --      0.1919                 0.1249                 0.1974
 IR Inten    --      6.3288                10.5446                28.8071

                     16                     17                     18
                      A                      A                      A
 Frequencies --    363.0969               398.2983               420.5914
 Red. masses --      6.0138                 4.3739                 2.8789
 Frc consts  --      0.4671                 0.4088                 0.3000
 IR Inten    --      3.7453                16.2269                 0.4464

                     19                     20                     21
                      A                      A                      A
 Frequencies --    505.2011               565.9765               584.1733
 Red. masses --      3.5944                 2.8091                 7.3286
 Frc consts  --      0.5405                 0.5302                 1.4735
 IR Inten    --      4.2499               108.9193                94.3707

                     22                     23                     24
                      A                      A                      A
 Frequencies --    623.9977               637.9229               654.3594
 Red. masses --      2.0581                 6.0519                 6.7707
 Frc consts  --      0.4722                 1.4510                 1.7081
 IR Inten    --     35.4098                 6.5870                29.9376

                     25                     26                     27
                      A                      A                      A
 Frequencies --    720.2974               746.3960               811.7929
 Red. masses --      1.7206                 2.7194                 2.6939
 Frc consts  --      0.5260                 0.8926                 1.0460
 IR Inten    --     58.3805               289.8068                18.2200

                     28                     29                     30
                      A                      A                      A
 Frequencies --    870.5969               889.7575               963.8634
 Red. masses --      1.2529                 5.1510                 1.4457
 Frc consts  --      0.5595                 2.4026                 0.7914
 IR Inten    --      0.4112                18.0850                 0.5763

                     31                     32                     33
                      A                      A                      A
 Frequencies --   1009.7463              1013.6152              1016.0279
 Red. masses --      1.2007                 1.4404                 1.4145
 Frc consts  --      0.7213                 0.8719                 0.8603
 IR Inten    --     60.7458                 9.8202                28.5054

                     34                     35                     36
                      A                      A                      A
 Frequencies --   1022.5046              1026.6316              1036.3667
 Red. masses --      1.5310                 2.6491                 1.3192
 Frc consts  --      0.9431                 1.6450                 0.8348
 IR Inten    --     58.3937                11.5210                 0.0645

                     37                     38                     39
                      A                      A                      A
 Frequencies --   1068.9987              1083.9430              1129.5451
 Red. masses --      2.2483                 4.1253                 1.6177
 Frc consts  --      1.5138                 2.8557                 1.2160
 IR Inten    --      9.2530                13.5628                 8.0649

                     40                     41                     42
                      A                      A                      A
 Frequencies --   1188.7676              1203.0742              1216.2015
 Red. masses --      1.1407                 4.3956                 1.4081
 Frc consts  --      0.9498                 3.7485                 1.2271
 IR Inten    --      0.4465                51.6070                13.7877

                     43                     44                     45
                      A                      A                      A
 Frequencies --   1217.1991              1232.1431              1322.8325
 Red. masses --      4.0012                 1.1849                 4.8679
 Frc consts  --      3.4927                 1.0598                 5.0188
 IR Inten    --    146.6435                 4.5315                 7.4171

                     46                     47                     48
                      A                      A                      A
 Frequencies --   1355.7078              1374.4924              1390.9048
 Red. masses --      1.3262                 1.4073                 1.9110
 Frc consts  --      1.4361                 1.5665                 2.1782
 IR Inten    --      1.0429                49.7080               643.6803

                     49                     50                     51
                      A                      A                      A
 Frequencies --   1457.4045              1478.9945              1492.9597
 Red. masses --      1.2641                 2.0885                 1.3862
 Frc consts  --      1.5819                 2.6916                 1.8204
 IR Inten    --     89.8376               260.4858                18.8220

                     52                     53                     54
                      A                      A                      A
 Frequencies --   1493.8081              1507.2931              1546.8396
 Red. masses --      1.4681                 1.0319                 2.2504
 Frc consts  --      1.9302                 1.3812                 3.1724
 IR Inten    --    133.5165                18.8465                 7.3488

                     55                     56                     57
                      A                      A                      A
 Frequencies --   1645.8887              1656.7010              1674.3381
 Red. masses --      1.4778                 2.4804                 5.1996
 Frc consts  --      2.3587                 4.0111                 8.5883
 IR Inten    --     15.7840                55.3490                 9.2900

                     58                     59                     60
                      A                      A                      A
 Frequencies --   1679.9121              2999.8919              3074.1794
 Red. masses --      8.8923                 1.0825                 1.0334
 Frc consts  --     14.7856                 5.7399                 5.7542
 IR Inten    --   1017.1192                68.9729                22.1759

                     61                     62                     63
                      A                      A                      A
 Frequencies --   3152.3724              3172.2623              3202.9836
 Red. masses --      1.1052                 1.1047                 1.0865
 Frc consts  --      6.4712                 6.5501                 6.5671
 IR Inten    --      9.9360                 6.9402                 0.0759

                     64                     65                     66
                      A                      A                      A
 Frequencies --   3212.0630              3220.9047              3228.5044
 Red. masses --      1.0897                 1.0935                 1.0974
 Frc consts  --      6.6242                 6.6839                 6.7392
 IR Inten    --      5.9214                19.0925                16.1316

                     67                     68                     69
                      A                      A                      A
 Frequencies --   3245.7525              3522.5918              3610.8772
 Red. masses --      1.0926                 1.0503                 1.0964
 Frc consts  --      6.7815                 7.6789                 8.4228
 IR Inten    --     12.0229                59.3951                53.4902

 - Thermochemistry -
 -------------------
 Temperature   298.150 Kelvin.  Pressure   1.00000 Atm.
 Atom     1 has atomic number  6 and mass  12.00000

 Molecular mass:   318.92074 amu.
 Principal axes and moments of inertia in atomic units:
                           1         2         3
     Eigenvalues --  4073.983604767.183086878.04862
           X            0.97517   0.22111   0.01257
           Y           -0.22147   0.97338   0.05903
           Z            0.00082  -0.06035   0.99818
 This molecule is an asymmetric top.
 Rotational symmetry number  1.
 Warning -- assumption of classical behavior for rotation
           may cause significant error
 Rotational temperatures (Kelvin)      0.02126     0.01817     0.01259
 Rotational constants (GHZ):           0.44299     0.37858     0.26239
    1 imaginary frequencies ignored.
 Zero-point vibrational energy     503956.6 (Joules/Mol)
                                  120.44852 (Kcal/Mol)
 Warning -- explicit consideration of  20 degrees of freedom as
           vibrations may cause significant error
 Vibrational temperatures:     62.40    83.38   102.97   130.13   163.68
          (Kelvin)            182.20   213.35   265.43   290.09   299.45
                              334.87   373.98   385.90   440.65   522.42
                              573.06   605.14   726.87   814.31   840.50
                              897.79   917.83   941.48  1036.35  1073.90
                             1167.99  1252.59  1280.16  1386.78  1452.80
                             1458.37  1461.84  1471.16  1477.09  1491.10
                             1538.05  1559.55  1625.16  1710.37  1730.96
                             1749.84  1751.28  1772.78  1903.26  1950.56
                             1977.59  2001.20  2096.88  2127.94  2148.04
                             2149.26  2168.66  2225.56  2368.07  2383.62
                             2409.00  2417.02  4316.18  4423.06  4535.56
                             4564.18  4608.38  4621.44  4634.16  4645.10
                             4669.91  5068.22  5195.25

 Zero-point correction=                           0.191947 (Hartree/Particle)
 Thermal correction to Energy=                    0.206386
 Thermal correction to Enthalpy=                  0.207330
 Thermal correction to Gibbs Free Energy=         0.148565
 Sum of electronic and zero-point Energies=          -5665.869000
 Sum of electronic and thermal Energies=             -5665.854561
 Sum of electronic and thermal Enthalpies=           -5665.853617
 Sum of electronic and thermal Free Energies=        -5665.912382

                     E (Thermal)             CV                S
                      KCal/Mol        Cal/Mol-Kelvin    Cal/Mol-Kelvin
 Total                  129.509             51.501            123.683
 Electronic               0.000              0.000              0.000
 Translational            0.889              2.981             43.175
 Rotational               0.889              2.981             33.257
 Vibrational            127.732             45.539             47.251
 Vibration     1          0.595              1.980              5.099
 Vibration     2          0.596              1.974              4.526
 Vibration     3          0.598              1.968              4.110
 Vibration     4          0.602              1.956              3.650
 Vibration     5          0.607              1.938              3.204
 Vibration     6          0.611              1.927              2.997
 Vibration     7          0.618              1.905              2.694
 Vibration     8          0.631              1.861              2.283
 Vibration     9          0.639              1.838              2.118
 Vibration    10          0.641              1.828              2.060
 Vibration    11          0.653              1.791              1.858
 Vibration    12          0.668              1.746              1.662
 Vibration    13          0.673              1.732              1.608
 Vibration    14          0.697              1.662              1.382
 Vibration    15          0.737              1.548              1.109
 Vibration    16          0.765              1.474              0.969
 Vibration    17          0.783              1.425              0.890
 Vibration    18          0.860              1.238              0.645
 Vibration    19          0.922              1.105              0.512
 Vibration    20          0.941              1.066              0.478

 Optimization completed.
    -- Stationary point found.
 Normal termination of Gaussian 16 at Sun Feb  7 10:58:50 2021.
