 Gaussian 16, Revision A.03,
 Gaussian 16:  ES64L-G16RevA.03 25-Dec-2016

 ----------------------------------------------------------------------
 # wB97XD def2tzvp, opt=(ts, noeigen, calcfc, maxcycles=70, maxstep=8),
  freq=noraman, scrf=(iefpcm, solvent=water)
 ----------------------------------------------------------------------

 ------------------------
 1_iteration/TS-167-1.out
 ------------------------
 Symbolic Z-matrix:
 Charge =  0 Multiplicity = 1

 SCF Done:  E(RwB97XD) =  -1495.93390812     A.U. after   15 cycles
 SCF Done:  E(RwB97XD) =  -1495.93399129     A.U. after   12 cycles
 SCF Done:  E(RwB97XD) =  -1495.93399635     A.U. after    8 cycles
 SCF Done:  E(RwB97XD) =  -1495.93399734     A.U. after    8 cycles
 SCF Done:  E(RwB97XD) =  -1495.93399738     A.U. after    7 cycles
 SCF Done:  E(RwB97XD) =  -1495.93399738     A.U. after    5 cycles
 Optimization completed.
    -- Stationary point found.
 Normal termination of Gaussian 16 at Thu Apr 15 23:47:43 2021.

 ---------------------------------------------------------------------
 #N Geom=AllCheck Guess=TCheck SCRF=Check GenChk RwB97XD/def2TZVP Freq
 ---------------------------------------------------------------------

 Structure from the checkpoint file:  "/beegfs/scratch/user/q/tla25/Gau-100586.chk"
 ------------------------
 1_iteration/TS-167-1.out
 ------------------------
 Charge =  0 Multiplicity = 1

                         Standard orientation:
 ---------------------------------------------------------------------
 Center     Atomic      Atomic             Coordinates (Angstroms)
 Number     Number       Type             X           Y           Z
 ---------------------------------------------------------------------
      1          6           0        0.208022   -0.233621   -0.140469
      2          6           0       -1.145724   -0.763810   -0.089699
      3          8           0       -1.406208   -1.944859    0.167585
      4          6           0        1.279892   -1.117306   -0.251262
      5          6           0        0.989843   -1.766992    2.564187
      6          1           0        0.450016   -2.427420    3.243671
      7          1           0        1.953192   -1.515790    3.000621
      8          1           0        0.402302   -0.854219    2.430605
      9          7           0        1.170587   -2.379537    1.260851
     10          1           0        1.942704   -3.032404    1.220696
     11          1           0        0.308710   -2.819908    0.951050
     12          6           0        2.690297   -0.621501   -0.149777
     13          6           0        3.653506   -0.886762   -1.117012
     14          6           0        4.939778   -0.379791   -0.994344
     15          6           0        5.288263    0.389561    0.102841
     16          6           0        4.336519    0.654907    1.078244
     17          6           0        3.052377    0.158564    0.950453
     18          1           0        3.401768   -1.483175   -1.981351
     19          1           0        5.669938   -0.591462   -1.764953
     20          1           0        6.292626    0.781739    0.199040
     21          1           0        4.592680    1.256200    1.941090
     22          1           0        2.318501    0.398838    1.705145
     23         17           0        1.119047   -2.463844   -1.463866
     24          6           0        0.430384    1.236854   -0.069131
     25          6           0       -0.019156    1.988015    1.019526
     26          6           0        0.180510    3.358291    1.078231
     27          6           0        0.844657    4.010821    0.048613
     28          6           0        1.291792    3.282148   -1.044187
     29          6           0        1.075777    1.913968   -1.105180
     30          1           0       -0.525061    1.485271    1.835765
     31          1           0       -0.173439    3.916382    1.936128
     32          1           0        1.008574    5.079907    0.096300
     33          1           0        1.803339    3.781779   -1.857538
     34          1           0        1.419267    1.353093   -1.965777
     35          7           0       -2.145882    0.148384   -0.339498
     36          6           0       -3.530418    0.018349   -0.217158
     37          6           0       -4.179226   -1.150093    0.185812
     38          6           0       -5.564000   -1.169571    0.283365
     39          6           0       -6.324043   -0.049733   -0.014607
     40          6           0       -5.677897    1.112126   -0.416832
     41          6           0       -4.299605    1.148027   -0.516887
     42          1           0       -1.831411    1.069352   -0.596043
     43          1           0       -3.599292   -2.028229    0.415962
     44          1           0       -6.051396   -2.084254    0.598342
     45          1           0       -7.402956   -0.079513    0.063651
     46          1           0       -6.250060    2.000178   -0.654764
     47          1           0       -3.806354    2.061220   -0.830411
 ---------------------------------------------------------------------

 SCF Done:  E(RwB97XD) =  -1495.93399738     A.U. after    1 cycles

 The electronic state is 1-A.
 Alpha  occ. eigenvalues -- -101.68886 -19.21203 -14.47428 -14.46437 -10.40327
 Alpha  occ. eigenvalues --  -10.38883 -10.33842 -10.31369 -10.31338 -10.30284
 Alpha  occ. eigenvalues --  -10.29629 -10.29550 -10.29477 -10.29363 -10.29337
 Alpha  occ. eigenvalues --  -10.29051 -10.28983 -10.28922 -10.28897 -10.28846
 Alpha  occ. eigenvalues --  -10.28843 -10.28799 -10.28700 -10.28248 -10.28200
 Alpha  occ. eigenvalues --  -10.27298  -9.57504  -7.32118  -7.31301  -7.31262
 Alpha  occ. eigenvalues --   -1.14007  -1.04310  -1.03447  -0.98640  -0.96719
 Alpha  occ. eigenvalues --   -0.95439  -0.95180  -0.89376  -0.86634  -0.85603
 Alpha  occ. eigenvalues --   -0.85121  -0.84996  -0.84555  -0.81870  -0.78514
 Alpha  occ. eigenvalues --   -0.75537  -0.72353  -0.71208  -0.70813  -0.70221
 Alpha  occ. eigenvalues --   -0.69805  -0.67184  -0.65153  -0.63034  -0.62810
 Alpha  occ. eigenvalues --   -0.61890  -0.60299  -0.58350  -0.57574  -0.57067
 Alpha  occ. eigenvalues --   -0.55683  -0.55444  -0.55041  -0.53895  -0.53576
 Alpha  occ. eigenvalues --   -0.52959  -0.52527  -0.52194  -0.51509  -0.51168
 Alpha  occ. eigenvalues --   -0.50726  -0.50522  -0.50246  -0.48912  -0.47882
 Alpha  occ. eigenvalues --   -0.47743  -0.46774  -0.46279  -0.45192  -0.44715
 Alpha  occ. eigenvalues --   -0.43830  -0.43055  -0.42991  -0.42686  -0.42603
 Alpha  occ. eigenvalues --   -0.40386  -0.38897  -0.38414  -0.35714  -0.34204
 Alpha  occ. eigenvalues --   -0.34161  -0.33760  -0.33403  -0.32776  -0.30493
 Alpha  occ. eigenvalues --   -0.26750
 Alpha virt. eigenvalues --    0.00712   0.03861   0.04986   0.05320   0.05475
 Alpha virt. eigenvalues --    0.05902   0.08719   0.09189   0.11010   0.12495
 Alpha virt. eigenvalues --    0.12793   0.13564   0.13859   0.14239   0.15099

 Mulliken charges:
               1
     1  C   -0.290647
     2  C    0.421929
     3  O   -0.564896
     4  C    0.327314
     5  C   -0.312642
     6  H    0.158353
     7  H    0.161668
     8  H    0.141718
     9  N   -0.317740
    10  H    0.278411
    11  H    0.277020
    12  C    0.090176
    13  C   -0.249608
    14  C   -0.134989
    15  C   -0.134804
    16  C   -0.171582
    17  C   -0.243929
    18  H    0.140581
    19  H    0.144305
    20  H    0.145864
    21  H    0.143180
    22  H    0.190366
    23  Cl  -0.142682
    24  C    0.116419
    25  C   -0.280182
    26  C   -0.127728
    27  C   -0.128250
    28  C   -0.175805
    29  C   -0.187812
    30  H    0.152483
    31  H    0.140746
    32  H    0.142799
    33  H    0.138506
    34  H    0.143558
    35  N   -0.248766
    36  C    0.298668
    37  C   -0.296771
    38  C   -0.112189
    39  C   -0.197011
    40  C   -0.096576
    41  C   -0.321997
    42  H    0.255421
    43  H    0.160734
    44  H    0.140940
    45  H    0.140462
    46  H    0.143134
    47  H    0.141852
 Sum of Mulliken charges =  -0.00000

 Dipole moment (field-independent basis, Debye):
    X=              5.0233    Y=              1.9363    Z=              3.8591  Tot=              6.6238
 Quadrupole moment (field-independent basis, Debye-Ang):
   XX=           -146.8584   YY=           -148.6548   ZZ=           -151.1304
   XY=             -8.2973   XZ=              1.3410   YZ=             -8.7470

  Exact polarizability: 501.015   0.947 422.314 -23.824   1.157 333.868
 Approx polarizability: 360.950   6.858 344.815 -22.164   3.612 292.192

 ******    1 imaginary frequencies (negative Signs) ******

                      1                      2                      3
                      A                      A                      A
 Frequencies --   -368.0260                16.7655                23.2764
 Red. masses --      6.0052                 3.8713                 5.5613
 Frc consts  --      0.4792                 0.0006                 0.0018
 IR Inten    --    750.4019                 0.3108                 0.5213

                      4                      5                      6
                      A                      A                      A
 Frequencies --     39.2313                42.2021                49.2856
 Red. masses --      5.1111                 4.8406                 4.3635
 Frc consts  --      0.0046                 0.0051                 0.0062
 IR Inten    --      0.4662                 0.0343                 0.5343

                      7                      8                      9
                      A                      A                      A
 Frequencies --     65.6122                70.1238                92.5003
 Red. masses --      3.6245                 3.8465                 3.4387
 Frc consts  --      0.0092                 0.0111                 0.0173
 IR Inten    --      1.0241                 3.3707                 1.0995

                     10                     11                     12
                      A                      A                      A
 Frequencies --    101.8880               115.9180               140.7781
 Red. masses --      4.9227                 5.1458                 6.8538
 Frc consts  --      0.0301                 0.0407                 0.0800
 IR Inten    --      4.4291                 0.8927                 4.7155

                     13                     14                     15
                      A                      A                      A
 Frequencies --    173.3303               178.6478               203.6363
 Red. masses --      2.5008                 5.0504                 5.0371
 Frc consts  --      0.0443                 0.0950                 0.1231
 IR Inten    --     20.0229                21.6169                 2.3523

                     16                     17                     18
                      A                      A                      A
 Frequencies --    217.7933               237.1126               249.5735
 Red. masses --      4.6691                 4.4995                 1.6246
 Frc consts  --      0.1305                 0.1490                 0.0596
 IR Inten    --      6.9103                 5.6452                 1.0974

                     19                     20                     21
                      A                      A                      A
 Frequencies --    258.4713               267.8969               283.8010
 Red. masses --      5.0672                 4.9009                 3.1278
 Frc consts  --      0.1995                 0.2072                 0.1484
 IR Inten    --      2.6283                 4.7064                 1.5193

                     22                     23                     24
                      A                      A                      A
 Frequencies --    305.8442               353.9233               365.2489
 Red. masses --      3.2432                 8.7409                 6.4638
 Frc consts  --      0.1787                 0.6451                 0.5081
 IR Inten    --     36.7470                25.8966                 3.4505

                     25                     26                     27
                      A                      A                      A
 Frequencies --    383.5056               398.3242               423.1650
 Red. masses --      5.9338                 6.9357                 2.9858
 Frc consts  --      0.5142                 0.6484                 0.3150
 IR Inten    --     74.3392                16.2133                 0.0736

                     28                     29                     30
                      A                      A                      A
 Frequencies --    425.3574               431.3600               496.4022
 Red. masses --      2.8749                 2.9982                 4.5154
 Frc consts  --      0.3065                 0.3287                 0.6556
 IR Inten    --      0.4630                 4.3971                31.9977

                     31                     32                     33
                      A                      A                      A
 Frequencies --    522.0435               531.3849               563.4260
 Red. masses --      3.9111                 3.0234                 4.2189
 Frc consts  --      0.6280                 0.5030                 0.7891
 IR Inten    --     37.3224                 8.0072                34.7995

                     34                     35                     36
                      A                      A                      A
 Frequencies --    584.3731               597.7367               623.3329
 Red. masses --      2.2499                 1.5335                 2.5980
 Frc consts  --      0.4527                 0.3228                 0.5947
 IR Inten    --    106.4660               142.1423                23.5027

                     37                     38                     39
                      A                      A                      A
 Frequencies --    634.2165               636.6872               638.4962
 Red. masses --      6.4171                 5.9304                 6.3540
 Frc consts  --      1.5208                 1.4164                 1.5262
 IR Inten    --     10.7653                 3.5016                 1.8356

                     40                     41                     42
                      A                      A                      A
 Frequencies --    660.7031               686.3261               718.7775
 Red. masses --      3.5423                 3.3579                 1.8814
 Frc consts  --      0.9111                 0.9319                 0.5727
 IR Inten    --     70.7736                39.6234                66.8280

                     43                     44                     45
                      A                      A                      A
 Frequencies --    727.8260               729.5472               744.1918
 Red. masses --      1.6393                 1.7736                 2.8144
 Frc consts  --      0.5116                 0.5562                 0.9183
 IR Inten    --     59.8698                61.8636               182.1447

                     46                     47                     48
                      A                      A                      A
 Frequencies --    783.9454               785.6303               802.0390
 Red. masses --      2.4500                 3.2244                 2.2923
 Frc consts  --      0.8871                 1.1725                 0.8688
 IR Inten    --     80.7633               144.8971                17.0518

                     49                     50                     51
                      A                      A                      A
 Frequencies --    810.7391               832.9850               862.0119
 Red. masses --      3.1931                 5.6596                 1.2607
 Frc consts  --      1.2366                 2.3137                 0.5519
 IR Inten    --      3.1343               156.3280                 0.2248

                     52                     53                     54
                      A                      A                      A
 Frequencies --    877.8873               881.0698               883.7771
 Red. masses --      1.5574                 2.8782                 1.2502
 Frc consts  --      0.7072                 1.3164                 0.5753
 IR Inten    --     16.9446                16.8818                 1.7912

                     55                     56                     57
                      A                      A                      A
 Frequencies --    932.8659               933.3658               959.2281
 Red. masses --      4.4148                 1.5918                 1.4786
 Frc consts  --      2.2636                 0.8170                 0.8016
 IR Inten    --     12.3711                 8.6498                 5.8106

                     58                     59                     60
                      A                      A                      A
 Frequencies --    973.8702               990.5160              1002.1047
 Red. masses --      1.4059                 1.1049                 1.3467
 Frc consts  --      0.7856                 0.6387                 0.7968
 IR Inten    --      3.3297                81.7256                 0.0533

                     61                     62                     63
                      A                      A                      A
 Frequencies --   1015.8607              1018.0008              1019.7957
 Red. masses --      1.3783                 1.2939                 5.6844
 Frc consts  --      0.8381                 0.7900                 3.4831
 IR Inten    --      0.8831                 1.0046                 5.2938

                     64                     65                     66
                      A                      A                      A
 Frequencies --   1023.6364              1025.9852              1027.1921
 Red. masses --      1.6095                 5.6914                 3.3495
 Frc consts  --      0.9937                 3.5298                 2.0823
 IR Inten    --      0.6384                 1.1050                 2.1570

                     67                     68                     69
                      A                      A                      A
 Frequencies --   1028.9674              1040.0569              1046.0000
 Red. masses --      1.3303                 1.3865                 3.5651
 Frc consts  --      0.8299                 0.8837                 2.2982
 IR Inten    --      0.3179                 3.9035                15.9197

                     70                     71                     72
                      A                      A                      A
 Frequencies --   1062.1352              1065.6648              1068.5997
 Red. masses --      2.1305                 1.6733                 1.9786
 Frc consts  --      1.4161                 1.1196                 1.3312
 IR Inten    --     23.4804                80.5356                17.5369

                     73                     74                     75
                      A                      A                      A
 Frequencies --   1081.7651              1097.5363              1111.7745
 Red. masses --      1.8803                 2.9484                 1.5640
 Frc consts  --      1.2964                 2.0925                 1.1390
 IR Inten    --     59.9238                 9.6132                 8.5003

                     76                     77                     78
                      A                      A                      A
 Frequencies --   1120.6654              1128.9899              1181.3844
 Red. masses --      1.5492                 1.6010                 1.1677
 Frc consts  --      1.1463                 1.2023                 0.9602
 IR Inten    --     22.2052                 4.0086                 7.1012

                     79                     80                     81
                      A                      A                      A
 Frequencies --   1181.7912              1187.5194              1189.0422
 Red. masses --      1.1286                 1.2217                 2.2303
 Frc consts  --      0.9287                 1.0151                 1.8578
 IR Inten    --      4.6872                 3.9219                42.9929

                     82                     83                     84
                      A                      A                      A
 Frequencies --   1195.2336              1208.2497              1209.9282
 Red. masses --      1.5665                 1.1531                 1.1224
 Frc consts  --      1.3186                 0.9919                 0.9681
 IR Inten    --     21.1645                53.5926                 0.4998

                     85                     86                     87
                      A                      A                      A
 Frequencies --   1223.7807              1253.2590              1279.4920
 Red. masses --      1.1338                 3.4005                 3.1004
 Frc consts  --      1.0005                 3.1468                 2.9905
 IR Inten    --     31.5230               712.5980               205.4970

                     88                     89                     90
                      A                      A                      A
 Frequencies --   1304.6167              1322.9628              1325.4234
 Red. masses --      4.4409                 4.5347                 5.0945
 Frc consts  --      4.4534                 4.6762                 5.2731
 IR Inten    --     52.4053                11.7582               153.7927

                     91                     92                     93
                      A                      A                      A
 Frequencies --   1347.0011              1355.0748              1360.0077
 Red. masses --      3.5912                 1.3313                 1.5568
 Frc consts  --      3.8390                 1.4403                 1.6966
 IR Inten    --    792.7011                11.2924                 9.3796

                     94                     95                     96
                      A                      A                      A
 Frequencies --   1361.3516              1370.0726              1430.7046
 Red. masses --      1.5391                 1.4257                 2.4209
 Frc consts  --      1.6805                 1.5768                 2.9196
 IR Inten    --     15.9528                 5.6648               513.4774

                     97                     98                     99
                      A                      A                      A
 Frequencies --   1454.2308              1479.6643              1489.0384
 Red. masses --      1.5453                 2.1364                 2.2480
 Frc consts  --      1.9254                 2.7558                 2.9367
 IR Inten    --    155.9823               262.8251                38.8796

                    100                    101                    102
                      A                      A                      A
 Frequencies --   1493.4048              1499.0278              1502.8770
 Red. masses --      2.3143                 1.0436                 1.0450
 Frc consts  --      3.0411                 1.3817                 1.3907
 IR Inten    --     82.9977                18.4993                 3.5084

                    103                    104                    105
                      A                      A                      A
 Frequencies --   1541.8207              1545.8234              1548.8787
 Red. masses --      2.3548                 2.4000                 2.3367
 Frc consts  --      3.2981                 3.3789                 3.3029
 IR Inten    --     54.2003               243.9387                29.9786

                    106                    107                    108
                      A                      A                      A
 Frequencies --   1570.7657              1609.7860              1642.2509
 Red. masses --      2.0489                 1.2075                 5.5270
 Frc consts  --      2.9785                 1.8436                 8.7826
 IR Inten    --    696.3627               220.7807                16.2142

                    109                    110                    111
                      A                      A                      A
 Frequencies --   1652.2673              1659.3930              1669.1371
 Red. masses --      5.4823                 5.5991                 4.9202
 Frc consts  --      8.8182                 9.0837                 8.0763
 IR Inten    --      5.4916               141.5716               106.0162

                    112                    113                    114
                      A                      A                      A
 Frequencies --   1672.1311              1675.7712              1684.7003
 Red. masses --      4.5895                 5.8148                 5.1837
 Frc consts  --      7.5605                 9.6209                 8.6683
 IR Inten    --     14.0538                 0.1300               467.9990

                    115                    116                    117
                      A                      A                      A
 Frequencies --   3048.2683              3118.3706              3169.8255
 Red. masses --      1.0381                 1.0999                 1.1031
 Frc consts  --      5.6834                 6.3017                 6.5302
 IR Inten    --     40.5692                16.4394                19.0049

                    118                    119                    120
                      A                      A                      A
 Frequencies --   3186.7806              3187.2585              3192.6941
 Red. masses --      1.0881                 1.0872                 1.0873
 Frc consts  --      6.5104                 6.5070                 6.5302
 IR Inten    --     14.3220                 8.9895                 0.8637

                    121                    122                    123
                      A                      A                      A
 Frequencies --   3196.6777              3199.9552              3202.2490
 Red. masses --      1.0882                 1.0865                 1.0912
 Frc consts  --      6.5518                 6.5550                 6.5930
 IR Inten    --      2.8378                 0.1416                11.6314

                    124                    125                    126
                      A                      A                      A
 Frequencies --   3206.5691              3209.0749              3210.1012
 Red. masses --      1.0931                 1.0950                 1.0909
 Frc consts  --      6.6219                 6.6440                 6.6236
 IR Inten    --     29.5506                40.5597                16.7562

                    127                    128                    129
                      A                      A                      A
 Frequencies --   3220.2709              3221.6622              3221.7403
 Red. masses --      1.0988                 1.0964                 1.0979
 Frc consts  --      6.7136                 6.7048                 6.7141
 IR Inten    --     19.2028                34.8761                16.7024

                    130                    131                    132
                      A                      A                      A
 Frequencies --   3243.8316              3247.4804              3270.8943
 Red. masses --      1.0923                 1.0925                 1.0925
 Frc consts  --      6.7718                 6.7884                 6.8869
 IR Inten    --      5.4875                 4.6193                 5.9547

                    133                    134                    135
                      A                      A                      A
 Frequencies --   3484.1543              3609.8228              3637.5544
 Red. masses --      1.0556                 1.0932                 1.0763
 Frc consts  --      7.5497                 8.3932                 8.3910
 IR Inten    --     81.6213               118.5226                97.3399

 - Thermochemistry -
 -------------------
 Temperature   298.150 Kelvin.  Pressure   1.00000 Atm.
 Atom     1 has atomic number  6 and mass  12.00000

 Molecular mass:   364.13424 amu.
 Principal axes and moments of inertia in atomic units:
                           1         2         3
     Eigenvalues --  5448.54928********************
           X            1.00000   0.00229   0.00161
           Y           -0.00225   0.99966  -0.02586
           Z           -0.00167   0.02586   0.99966
 This molecule is an asymmetric top.
 Rotational symmetry number  1.
 Warning -- assumption of classical behavior for rotation
           may cause significant error
 Rotational temperatures (Kelvin)      0.01590     0.00618     0.00511
 Rotational constants (GHZ):           0.33123     0.12885     0.10645
    1 imaginary frequencies ignored.
 Zero-point vibrational energy    1006465.0 (Joules/Mol)
                                  240.55090 (Kcal/Mol)
 Warning -- explicit consideration of  34 degrees of freedom as
           vibrations may cause significant error
 Vibrational temperatures:     24.12    33.49    56.45    60.72    70.91
          (Kelvin)             94.40   100.89   133.09   146.59   166.78
                              202.55   249.38   257.03   292.99   313.36
                              341.15   359.08   371.88   385.44   408.33
                              440.04   509.22   525.51   551.78   573.10
                              608.84   611.99   620.63   714.21   751.10
                              764.54   810.64   840.78   860.01   896.84
                              912.50   916.05   918.65   950.60   987.47
                             1034.16  1047.18  1049.66  1070.73  1127.92
                             1130.35  1153.96  1166.47  1198.48  1240.24
                             1263.08  1267.66  1271.56  1342.19  1342.91
                             1380.12  1401.18  1425.13  1441.81  1461.60
                             1464.68  1467.26  1472.78  1476.16  1477.90
                             1480.45  1496.41  1504.96  1528.18  1533.25
                             1537.48  1556.42  1579.11  1599.60  1612.39
                             1624.36  1699.75  1700.33  1708.58  1710.77
                             1719.67  1738.40  1740.82  1760.75  1803.16
                             1840.90  1877.05  1903.45  1906.99  1938.03
                             1949.65  1956.75  1958.68  1971.23  2058.46
                             2092.31  2128.91  2142.39  2148.68  2156.77
                             2162.30  2218.34  2224.10  2228.49  2259.98
                             2316.12  2362.83  2377.24  2387.50  2401.52
                             2405.82  2411.06  2423.91  4385.78  4486.64
                             4560.67  4585.07  4585.75  4593.57  4599.31
                             4604.02  4607.32  4613.54  4617.14  4618.62
                             4633.25  4635.25  4635.37  4667.15  4672.40
                             4706.09  5012.92  5193.73  5233.63

 Zero-point correction=                           0.383342 (Hartree/Particle)
 Thermal correction to Energy=                    0.406286
 Thermal correction to Enthalpy=                  0.407230
 Thermal correction to Gibbs Free Energy=         0.328597
 Sum of electronic and zero-point Energies=          -1495.550655
 Sum of electronic and thermal Energies=             -1495.527712
 Sum of electronic and thermal Enthalpies=           -1495.526768
 Sum of electronic and thermal Free Energies=        -1495.605400

                     E (Thermal)             CV                S
                      KCal/Mol        Cal/Mol-Kelvin    Cal/Mol-Kelvin
 Total                  254.948             88.712            165.497
 Electronic               0.000              0.000              0.000
 Translational            0.889              2.981             43.570
 Rotational               0.889              2.981             35.513
 Vibrational            253.171             82.750             86.413
 Vibration     1          0.593              1.986              6.985
 Vibration     2          0.593              1.985              6.333
 Vibration     3          0.594              1.981              5.298
 Vibration     4          0.595              1.980              5.153
 Vibration     5          0.595              1.978              4.846
 Vibration     6          0.597              1.971              4.281
 Vibration     7          0.598              1.968              4.150
 Vibration     8          0.602              1.955              3.606
 Vibration     9          0.604              1.948              3.418
 Vibration    10          0.608              1.936              3.167
 Vibration    11          0.615              1.913              2.793
 Vibration    12          0.627              1.875              2.399
 Vibration    13          0.629              1.869              2.342
 Vibration    14          0.639              1.835              2.100
 Vibration    15          0.646              1.814              1.977
 Vibration    16          0.656              1.784              1.824
 Vibration    17          0.662              1.763              1.734
 Vibration    18          0.667              1.748              1.672
 Vibration    19          0.673              1.732              1.610
 Vibration    20          0.682              1.704              1.511
 Vibration    21          0.696              1.663              1.385
 Vibration    22          0.730              1.567              1.149
 Vibration    23          0.738              1.544              1.100
 Vibration    24          0.753              1.505              1.025
 Vibration    25          0.765              1.474              0.969
 Vibration    26          0.785              1.420              0.881
 Vibration    27          0.787              1.415              0.874
 Vibration    28          0.792              1.402              0.854
 Vibration    29          0.852              1.258              0.667
 Vibration    30          0.877              1.201              0.605
 Vibration    31          0.886              1.181              0.584
 Vibration    32          0.919              1.110              0.517
 Vibration    33          0.941              1.065              0.477
 Vibration    34          0.956              1.037              0.454

 Optimization completed on the basis of negligible forces.
    -- Stationary point found.
 Normal termination of Gaussian 16 at Fri Apr 16 02:08:08 2021.
