 Gaussian 16, Revision A.03,
 Gaussian 16:  ES64L-G16RevA.03 25-Dec-2016

 ----------------------------------------------------------------------
 # wB97XD def2tzvp, opt=(ts, noeigen, calcfc, maxcycles=70, maxstep=8),
  freq=noraman, scrf=(iefpcm, solvent=water)
 ----------------------------------------------------------------------

 ------------------------
 1_iteration/TS-116-1.out
 ------------------------
 Symbolic Z-matrix:
 Charge =  0 Multiplicity = 1

 SCF Done:  E(RwB97XD) =  -1132.32139080     A.U. after   14 cycles
 Optimization completed.
    -- Stationary point found.
 Normal termination of Gaussian 16 at Thu Apr 15 18:45:50 2021.

 ---------------------------------------------------------------------
 #N Geom=AllCheck Guess=TCheck SCRF=Check GenChk RwB97XD/def2TZVP Freq
 ---------------------------------------------------------------------

 Structure from the checkpoint file:  "/beegfs/scratch/user/q/tla25/Gau-86930.chk"
 ------------------------
 1_iteration/TS-116-1.out
 ------------------------
 Charge =  0 Multiplicity = 1

                         Standard orientation:
 ---------------------------------------------------------------------
 Center     Atomic      Atomic             Coordinates (Angstroms)
 Number     Number       Type             X           Y           Z
 ---------------------------------------------------------------------
      1          6           0        0.842350   -0.417780    0.291530
      2          6           0        2.211950   -0.701921    0.008460
      3          8           0        2.948960   -1.411221    0.681630
      4          6           0       -0.057290    0.481190   -0.324260
      5          6           0        1.364910    2.392349    1.119330
      6          1           0        1.786290    1.540869    1.648760
      7          1           0        1.964680    2.590969    0.233620
      8          1           0        1.381700    3.265929    1.769520
      9          7           0       -0.002810    2.072360    0.717490
     10          1           0       -0.581670    1.900700    1.532380
     11          1           0       -0.410620    2.843850    0.202410
     12          6           0       -1.529970    0.111410   -0.269980
     13          6           0       -2.565230    1.021990   -0.083930
     14          6           0       -3.891800    0.618380   -0.155480
     15          6           0       -4.209610   -0.700210   -0.434750
     16          6           0       -3.186430   -1.613300   -0.645980
     17          6           0       -1.864460   -1.210230   -0.563760
     18          1           0       -2.371380    2.066770    0.113960
     19          1           0       -4.677120    1.346301    0.003710
     20          1           0       -5.244200   -1.013199   -0.492580
     21          1           0       -3.416601   -2.646330   -0.874310
     22          1           0       -1.070751   -1.927370   -0.727640
     23          6           0        0.268950    1.078920   -1.682260
     24          1           0        0.304060    0.278930   -2.421520
     25          1           0       -0.521220    1.771260   -1.971460
     26          1           0        1.227550    1.586569   -1.696260
     27         17           0        0.304880   -1.082090    1.840590
     28          8           0        2.668560   -0.131991   -1.136000
     29          6           0        4.022070   -0.396261   -1.472120
     30          1           0        4.204820    0.141539   -2.399570
     31          1           0        4.698220   -0.036381   -0.695970
     32          1           0        4.190170   -1.462921   -1.623290
 ---------------------------------------------------------------------

 SCF Done:  E(RwB97XD) =  -1132.32139080     A.U. after    1 cycles

 The electronic state is 1-A.
 Alpha  occ. eigenvalues -- -101.68019 -19.27821 -19.20668 -14.49337 -10.39568
 Alpha  occ. eigenvalues --  -10.36630 -10.32515 -10.31880 -10.30957 -10.30244
 Alpha  occ. eigenvalues --  -10.29681 -10.29334 -10.29237 -10.29171 -10.29140
 Alpha  occ. eigenvalues --  -10.28360  -9.56551  -7.31164  -7.30351  -7.30337
 Alpha  occ. eigenvalues --   -1.19254  -1.09450  -1.04969  -0.97960  -0.95308
 Alpha  occ. eigenvalues --   -0.90023  -0.85546  -0.84855  -0.82402  -0.79308
 Alpha  occ. eigenvalues --   -0.77209  -0.72722  -0.70767  -0.67931  -0.63922
 Alpha  occ. eigenvalues --   -0.63536  -0.61973  -0.58797  -0.57475  -0.56586
 Alpha  occ. eigenvalues --   -0.56265  -0.55640  -0.54125  -0.53228  -0.52108
 Alpha  occ. eigenvalues --   -0.51300  -0.50898  -0.49606  -0.49048  -0.47536
 Alpha  occ. eigenvalues --   -0.47362  -0.46820  -0.45982  -0.43923  -0.43468
 Alpha  occ. eigenvalues --   -0.42366  -0.41918  -0.40683  -0.38856  -0.37705
 Alpha  occ. eigenvalues --   -0.35146  -0.34080  -0.33101  -0.26998
 Alpha virt. eigenvalues --    0.03732   0.04947   0.07126   0.10031   0.11506
 Alpha virt. eigenvalues --    0.12174   0.13571   0.14517   0.15109   0.15769
 Alpha virt. eigenvalues --    0.16514   0.16671   0.17470   0.18034   0.18581

 Mulliken charges:
               1
     1  C   -0.251190
     2  C    0.388475
     3  O   -0.508240
     4  C    0.172625
     5  C   -0.311369
     6  H    0.163035
     7  H    0.155154
     8  H    0.167166
     9  N   -0.322253
    10  H    0.291965
    11  H    0.291397
    12  C    0.226488
    13  C   -0.240442
    14  C   -0.154802
    15  C   -0.152664
    16  C   -0.121217
    17  C   -0.300208
    18  H    0.140805
    19  H    0.144431
    20  H    0.145392
    21  H    0.144286
    22  H    0.158995
    23  C   -0.366342
    24  H    0.147695
    25  H    0.147636
    26  H    0.146848
    27  Cl  -0.193243
    28  O   -0.302494
    29  C   -0.193118
    30  H    0.135365
    31  H    0.124123
    32  H    0.125702
 Sum of Mulliken charges =  -0.00000

 Dipole moment (field-independent basis, Debye):
    X=             -4.2126    Y=              9.6652    Z=             -2.8447  Tot=             10.9204
 Quadrupole moment (field-independent basis, Debye-Ang):
   XX=            -99.8598   YY=            -88.8001   ZZ=           -104.7303
   XY=              9.3575   XZ=             -8.8167   YZ=             11.1445

  Exact polarizability: 278.406 -13.588 238.502  -2.261   2.930 185.090
 Approx polarizability: 211.119 -10.721 202.201  -1.008   1.278 160.235

 ******    1 imaginary frequencies (negative Signs) ******

                      1                      2                      3
                      A                      A                      A
 Frequencies --   -339.6434                29.1662                45.7510
 Red. masses --      5.2208                 3.8203                 3.8438
 Frc consts  --      0.3548                 0.0019                 0.0047
 IR Inten    --    667.3621                 2.7817                 0.8231

                      4                      5                      6
                      A                      A                      A
 Frequencies --     66.1169                87.3873                95.9331
 Red. masses --      5.2120                 3.0394                 2.2427
 Frc consts  --      0.0134                 0.0137                 0.0122
 IR Inten    --      1.9641                 0.3971                 3.0281

                      7                      8                      9
                      A                      A                      A
 Frequencies --    113.2401               140.4242               147.5159
 Red. masses --      4.6767                 3.4880                 3.3586
 Frc consts  --      0.0353                 0.0405                 0.0431
 IR Inten    --      5.3656                 6.5675                 7.2431

                     10                     11                     12
                      A                      A                      A
 Frequencies --    168.8334               180.6289               209.6436
 Red. masses --      3.0832                 1.2090                 1.7196
 Frc consts  --      0.0518                 0.0232                 0.0445
 IR Inten    --      2.3344                 1.0340                 0.7307

                     13                     14                     15
                      A                      A                      A
 Frequencies --    237.1995               284.5937               300.1347
 Red. masses --      4.5690                 2.1610                 3.6823
 Frc consts  --      0.1515                 0.1031                 0.1954
 IR Inten    --      0.7550                 1.8729                 1.1678

                     16                     17                     18
                      A                      A                      A
 Frequencies --    311.4594               329.9287               334.5068
 Red. masses --      1.9379                 5.7401                 3.0719
 Frc consts  --      0.1108                 0.3681                 0.2025
 IR Inten    --     18.9101                15.2103                25.7949

                     19                     20                     21
                      A                      A                      A
 Frequencies --    375.4315               392.0314               419.2761
 Red. masses --      2.0963                 3.6612                 2.9006
 Frc consts  --      0.1741                 0.3315                 0.3004
 IR Inten    --     16.6853                11.8353                 0.1929

                     22                     23                     24
                      A                      A                      A
 Frequencies --    427.8214               448.8450               564.1819
 Red. masses --      6.9617                 4.3252                 2.8935
 Frc consts  --      0.7507                 0.5134                 0.5426
 IR Inten    --     16.2204                 1.1460                53.2343

                     25                     26                     27
                      A                      A                      A
 Frequencies --    589.2404               636.5032               643.4095
 Red. masses --      4.4836                 4.9484                 4.7933
 Frc consts  --      0.9172                 1.1812                 1.1691
 IR Inten    --     89.0009                 6.0290                29.8308

                     28                     29                     30
                      A                      A                      A
 Frequencies --    682.5820               722.5937               761.1818
 Red. masses --      1.5930                 1.5602                 5.5671
 Frc consts  --      0.4373                 0.4800                 1.9004
 IR Inten    --     49.1641                90.5325                 0.1999

                     31                     32                     33
                      A                      A                      A
 Frequencies --    785.5292               796.0794               846.0190
 Red. masses --     10.4681                 2.0855                 3.6475
 Frc consts  --      3.8058                 0.7787                 1.5382
 IR Inten    --     41.6198                31.0538                27.8567

                     34                     35                     36
                      A                      A                      A
 Frequencies --    870.5314               911.6733               951.6045
 Red. masses --      1.2543                 6.1898                 1.4320
 Frc consts  --      0.5600                 3.0311                 0.7640
 IR Inten    --      0.5490               102.4108                 3.9212

                     37                     38                     39
                      A                      A                      A
 Frequencies --   1010.6930              1020.1745              1024.3554
 Red. masses --      1.3565                 1.2512                 4.9612
 Frc consts  --      0.8164                 0.7672                 3.0672
 IR Inten    --      1.6667                 1.2566                11.3543

                     40                     41                     42
                      A                      A                      A
 Frequencies --   1031.3352              1037.2167              1043.9822
 Red. masses --      1.3115                 1.6820                 1.4381
 Frc consts  --      0.8219                 1.0661                 0.9235
 IR Inten    --     10.2170               165.6808                13.7035

                     43                     44                     45
                      A                      A                      A
 Frequencies --   1061.8809              1072.4252              1083.7998
 Red. masses --      2.2525                 1.7964                 3.7771
 Frc consts  --      1.4964                 1.2173                 2.6140
 IR Inten    --     21.6741                19.7752                 3.9948

                     46                     47                     48
                      A                      A                      A
 Frequencies --   1104.5871              1124.5221              1137.9097
 Red. masses --      1.9057                 1.5716                 6.2790
 Frc consts  --      1.3699                 1.1709                 4.7902
 IR Inten    --     38.2061                 7.8818               302.2152

                     49                     50                     51
                      A                      A                      A
 Frequencies --   1181.2178              1185.5433              1213.0453
 Red. masses --      1.2776                 1.1276                 1.5511
 Frc consts  --      1.0503                 0.9338                 1.3447
 IR Inten    --      1.6070                 0.2890               151.0005

                     52                     53                     54
                      A                      A                      A
 Frequencies --   1217.2326              1240.6540              1252.2121
 Red. masses --      1.1520                 1.3857                 3.9668
 Frc consts  --      1.0057                 1.2567                 3.6647
 IR Inten    --      5.8150                55.4331                59.9539

                     55                     56                     57
                      A                      A                      A
 Frequencies --   1310.8572              1332.3462              1357.1100
 Red. masses --      4.9574                 6.1078                 1.3832
 Frc consts  --      5.0189                 6.3880                 1.5010
 IR Inten    --    186.2544               236.3941                10.6221

                     58                     59                     60
                      A                      A                      A
 Frequencies --   1366.0400              1414.2775              1422.4457
 Red. masses --      1.3525                 2.2193                 1.5889
 Frc consts  --      1.4870                 2.6154                 1.8942
 IR Inten    --      4.1507               505.7551               215.3202

                     61                     62                     63
                      A                      A                      A
 Frequencies --   1466.4556              1479.1437              1481.6574
 Red. masses --      1.1717                 1.1904                 1.0483
 Frc consts  --      1.4846                 1.5344                 1.3559
 IR Inten    --      0.4792                81.0234                12.2228

                     64                     65                     66
                      A                      A                      A
 Frequencies --   1489.3614              1493.5375              1495.9826
 Red. masses --      2.0075                 1.0558                 1.0438
 Frc consts  --      2.6236                 1.3876                 1.3764
 IR Inten    --     21.8970                14.8978                28.5499

                     67                     68                     69
                      A                      A                      A
 Frequencies --   1499.8084              1501.7811              1511.6668
 Red. masses --      1.1760                 1.1313                 1.0344
 Frc consts  --      1.5585                 1.5033                 1.3927
 IR Inten    --     13.8687                80.1386                22.7464

                     70                     71                     72
                      A                      A                      A
 Frequencies --   1543.6152              1645.3273              1655.2151
 Red. masses --      2.2621                 1.5039                 2.3463
 Frc consts  --      3.1756                 2.3986                 3.7875
 IR Inten    --     10.4264                23.1065                62.6438

                     73                     74                     75
                      A                      A                      A
 Frequencies --   1674.8684              1679.9462              3059.9894
 Red. masses --      6.1426                10.0113                 1.0307
 Frc consts  --     10.1522                16.6468                 5.6863
 IR Inten    --    144.9761               988.1977                73.5551

                     76                     77                     78
                      A                      A                      A
 Frequencies --   3078.4806              3082.3341              3134.2877
 Red. masses --      1.0381                 1.0337                 1.1066
 Frc consts  --      5.7965                 5.7864                 6.4048
 IR Inten    --     20.6018                27.9803                41.8698

                     79                     80                     81
                      A                      A                      A
 Frequencies --   3149.1022              3163.0247              3166.7090
 Red. masses --      1.1024                 1.1047                 1.1051
 Frc consts  --      6.4411                 6.5120                 6.5293
 IR Inten    --     18.3175                10.1142                27.1496

                     82                     83                     84
                      A                      A                      A
 Frequencies --   3180.9014              3193.5639              3197.1815
 Red. masses --      1.1052                 1.1002                 1.0860
 Frc consts  --      6.5888                 6.6112                 6.5405
 IR Inten    --      7.9523                15.6667                 1.0289

                     85                     86                     87
                      A                      A                      A
 Frequencies --   3205.2101              3215.0314              3221.8984
 Red. masses --      1.0890                 1.0925                 1.0957
 Frc consts  --      6.5916                 6.6535                 6.7017
 IR Inten    --      4.6366                19.1155                31.3464

                     88                     89                     90
                      A                      A                      A
 Frequencies --   3230.1279              3521.2962              3604.7435
 Red. masses --      1.0955                 1.0505                 1.0961
 Frc consts  --      6.7342                 7.6748                 8.3918
 IR Inten    --     13.8788                45.6956                48.2728

 - Thermochemistry -
 -------------------
 Temperature   298.150 Kelvin.  Pressure   1.00000 Atm.
 Atom     1 has atomic number  6 and mass  12.00000

 Molecular mass:   241.08696 amu.
 Principal axes and moments of inertia in atomic units:
                           1         2         3
     Eigenvalues --  2256.089635771.109476081.57246
           X            0.99988   0.01284  -0.00905
           Y           -0.01128   0.98792   0.15458
           Z            0.01092  -0.15446   0.98794
 This molecule is an asymmetric top.
 Rotational symmetry number  1.
 Warning -- assumption of classical behavior for rotation
           may cause significant error
 Rotational temperatures (Kelvin)      0.03839     0.01501     0.01424
 Rotational constants (GHZ):           0.79994     0.31272     0.29676
    1 imaginary frequencies ignored.
 Zero-point vibrational energy     694881.5 (Joules/Mol)
                                  166.08066 (Kcal/Mol)
 Warning -- explicit consideration of  24 degrees of freedom as
           vibrations may cause significant error
 Vibrational temperatures:     41.96    65.83    95.13   125.73   138.03
          (Kelvin)            162.93   202.04   212.24   242.91   259.88
                              301.63   341.28   409.47   431.83   448.12
                              474.69   481.28   540.16   564.05   603.24
                              615.54   645.79   811.73   847.79   915.79
                              925.72   982.08  1039.65  1095.17  1130.20
                             1145.38  1217.23  1252.50  1311.69  1369.15
                             1454.16  1467.80  1473.82  1483.86  1492.32
                             1502.06  1527.81  1542.98  1559.35  1589.25
                             1617.94  1637.20  1699.51  1705.73  1745.30
                             1751.33  1785.02  1801.65  1886.03  1916.95
                             1952.58  1965.43  2034.83  2046.58  2109.90
                             2128.16  2131.77  2142.86  2148.87  2152.39
                             2157.89  2160.73  2174.95  2220.92  2367.26
                             2381.49  2409.76  2417.07  4402.64  4429.25
                             4434.79  4509.54  4530.86  4550.89  4556.19
                             4576.61  4594.83  4600.03  4611.58  4625.71
                             4635.59  4647.43  5066.36  5186.42

 Zero-point correction=                           0.264666 (Hartree/Particle)
 Thermal correction to Energy=                    0.281196
 Thermal correction to Enthalpy=                  0.282140
 Thermal correction to Gibbs Free Energy=         0.219797
 Sum of electronic and zero-point Energies=          -1132.056724
 Sum of electronic and thermal Energies=             -1132.040195
 Sum of electronic and thermal Enthalpies=           -1132.039250
 Sum of electronic and thermal Free Energies=        -1132.101594

                     E (Thermal)             CV                S
                      KCal/Mol        Cal/Mol-Kelvin    Cal/Mol-Kelvin
 Total                  176.453             60.780            131.213
 Electronic               0.000              0.000              0.000
 Translational            0.889              2.981             42.341
 Rotational               0.889              2.981             32.737
 Vibrational            174.676             54.818             56.135
 Vibration     1          0.593              1.984              5.885
 Vibration     2          0.595              1.979              4.993
 Vibration     3          0.598              1.970              4.266
 Vibration     4          0.601              1.958              3.718
 Vibration     5          0.603              1.952              3.535
 Vibration     6          0.607              1.938              3.213
 Vibration     7          0.615              1.913              2.798
 Vibration     8          0.617              1.905              2.704
 Vibration     9          0.625              1.881              2.448
 Vibration    10          0.630              1.866              2.322
 Vibration    11          0.642              1.826              2.047
 Vibration    12          0.656              1.784              1.824
 Vibration    13          0.683              1.702              1.506
 Vibration    14          0.693              1.673              1.416
 Vibration    15          0.700              1.652              1.355
 Vibration    16          0.713              1.616              1.260
 Vibration    17          0.716              1.607              1.238
 Vibration    18          0.746              1.522              1.058
 Vibration    19          0.759              1.487              0.992
 Vibration    20          0.782              1.428              0.894
 Vibration    21          0.789              1.410              0.866
 Vibration    22          0.808              1.363              0.799
 Vibration    23          0.920              1.109              0.516
 Vibration    24          0.947              1.055              0.469

 Optimization completed.
    -- Stationary point found.
 Normal termination of Gaussian 16 at Thu Apr 15 19:20:14 2021.
