 Gaussian 16, Revision A.03,
 Gaussian 16:  ES64L-G16RevA.03 25-Dec-2016

 ----------------------------------------------------------------------
 # wB97XD def2tzvp, opt=(ts, noeigen, calcfc, maxcycles=70, maxstep=1),
  freq=noraman, scrf=(iefpcm, solvent=water)
 ----------------------------------------------------------------------

 ------------------------
 0_iteration/TS-129-0.out
 ------------------------
 Symbolic Z-matrix:
 Charge =  0 Multiplicity = 1

 SCF Done:  E(RwB97XD) =  -3092.44530573     A.U. after   15 cycles
 SCF Done:  E(RwB97XD) =  -3092.44528841     A.U. after   11 cycles
 SCF Done:  E(RwB97XD) =  -3092.44527448     A.U. after   11 cycles
 SCF Done:  E(RwB97XD) =  -3092.44526423     A.U. after   11 cycles
 SCF Done:  E(RwB97XD) =  -3092.44525858     A.U. after   11 cycles
 SCF Done:  E(RwB97XD) =  -3092.44526136     A.U. after   10 cycles
 SCF Done:  E(RwB97XD) =  -3092.44529324     A.U. after   12 cycles
 SCF Done:  E(RwB97XD) =  -3092.44534389     A.U. after   12 cycles
 SCF Done:  E(RwB97XD) =  -3092.44540208     A.U. after   12 cycles
 SCF Done:  E(RwB97XD) =  -3092.44546544     A.U. after   12 cycles
 SCF Done:  E(RwB97XD) =  -3092.44708635     A.U. after   11 cycles
 SCF Done:  E(RwB97XD) =  -3092.44712474     A.U. after   11 cycles
 SCF Done:  E(RwB97XD) =  -3092.44715264     A.U. after   11 cycles
 SCF Done:  E(RwB97XD) =  -3092.44717064     A.U. after   11 cycles
 SCF Done:  E(RwB97XD) =  -3092.44717830     A.U. after   10 cycles
 SCF Done:  E(RwB97XD) =  -3092.44717963     A.U. after   10 cycles
 SCF Done:  E(RwB97XD) =  -3092.44717977     A.U. after    9 cycles
 SCF Done:  E(RwB97XD) =  -3092.44717978     A.U. after    8 cycles
 SCF Done:  E(RwB97XD) =  -3092.44717978     A.U. after    6 cycles
 Optimization completed.
    -- Stationary point found.
 Normal termination of Gaussian 16 at Thu Feb  4 14:31:49 2021.

 ---------------------------------------------------------------------
 #N Geom=AllCheck Guess=TCheck SCRF=Check GenChk RwB97XD/def2TZVP Freq
 ---------------------------------------------------------------------

 Structure from the checkpoint file:  "/beegfs/scratch/user/q/tla25/Gau-16883.chk"
 ------------------------
 0_iteration/TS-129-0.out
 ------------------------
 Charge =  0 Multiplicity = 1

                         Standard orientation:
 ---------------------------------------------------------------------
 Center     Atomic      Atomic             Coordinates (Angstroms)
 Number     Number       Type             X           Y           Z
 ---------------------------------------------------------------------
      1          6           0       -1.150359    1.094065   -0.746377
      2          6           0       -2.558019    1.174481   -0.806569
      3          8           0       -3.203622    2.060477   -1.375872
      4          6           0       -0.414452    0.121526   -0.061748
      5          6           0       -0.189628    1.782777    2.187149
      6          1           0       -0.543012    2.014151    3.190811
      7          1           0        0.887855    1.917644    2.143334
      8          1           0       -0.671118    2.453578    1.473401
      9          7           0       -0.524434    0.412779    1.817315
     10          1           0        0.055419   -0.268025    2.296960
     11          1           0       -1.493879    0.203288    2.030351
     12          6           0        1.080325    0.097234   -0.226147
     13          6           0        1.830101   -1.074466   -0.173464
     14          6           0        3.210257   -1.044592   -0.307473
     15          6           0        3.871412    0.158653   -0.487631
     16          6           0        3.138174    1.335267   -0.530231
     17          6           0        1.760537    1.306271   -0.400399
     18          1           0        1.340055   -2.026729   -0.033439
     19          1           0        3.766695   -1.972235   -0.270560
     20          1           0        4.948485    0.181556   -0.591778
     21          1           0        3.638869    2.285629   -0.662877
     22          1           0        1.219249    2.241088   -0.422923
     23         35           0       -1.245876   -1.667608   -0.000796
     24          1           0       -0.600222    1.891272   -1.226845
     25          1           0       -3.112813    0.364492   -0.295463
 ---------------------------------------------------------------------

 SCF Done:  E(RwB97XD) =  -3092.44717978     A.U. after    1 cycles

 The electronic state is 1-A.
 Alpha  occ. eigenvalues -- -483.13311 -62.68164 -56.47276 -56.46928 -56.46916
 Alpha  occ. eigenvalues --  -19.20711 -14.49972 -10.40980 -10.34447 -10.32096
 Alpha  occ. eigenvalues --  -10.31942 -10.30105 -10.29896 -10.29717 -10.29658
 Alpha  occ. eigenvalues --  -10.29617 -10.25782  -8.82271  -6.64403  -6.63307
 Alpha  occ. eigenvalues --   -6.63267  -2.74787  -2.74484  -2.74452  -2.73567
 Alpha  occ. eigenvalues --   -2.73565  -1.10780  -1.05398  -0.98260  -0.93505
 Alpha  occ. eigenvalues --   -0.86899  -0.85936  -0.83959  -0.79581  -0.75217
 Alpha  occ. eigenvalues --   -0.71341  -0.68403  -0.64565  -0.63606  -0.61732
 Alpha  occ. eigenvalues --   -0.58282  -0.57035  -0.56026  -0.55451  -0.53467
 Alpha  occ. eigenvalues --   -0.52303  -0.51038  -0.49515  -0.48679  -0.48345
 Alpha  occ. eigenvalues --   -0.46545  -0.45881  -0.44907  -0.43950  -0.42902
 Alpha  occ. eigenvalues --   -0.38160  -0.37749  -0.34516  -0.34445  -0.32083
 Alpha  occ. eigenvalues --   -0.28528
 Alpha virt. eigenvalues --    0.00963   0.04160   0.04828   0.07220   0.10394
 Alpha virt. eigenvalues --    0.12702   0.13932   0.14824   0.14962   0.16646
 Alpha virt. eigenvalues --    0.17108   0.17404   0.18126   0.19421   0.19933

 Mulliken charges:
               1
     1  C   -0.304960
     2  C    0.091925
     3  O   -0.512300
     4  C    0.208032
     5  C   -0.307615
     6  H    0.167053
     7  H    0.166807
     8  H    0.158674
     9  N   -0.285607
    10  H    0.296042
    11  H    0.288201
    12  C    0.132089
    13  C   -0.244213
    14  C   -0.123958
    15  C   -0.151925
    16  C   -0.124194
    17  C   -0.305131
    18  H    0.154139
    19  H    0.147881
    20  H    0.148357
    21  H    0.148018
    22  H    0.167331
    23  Br  -0.119762
    24  H    0.137044
    25  H    0.068070
 Sum of Mulliken charges =  -0.00000

 Dipole moment (field-independent basis, Debye):
    X=              7.5991    Y=             -2.2535    Z=              8.6974  Tot=             11.7673
 Quadrupole moment (field-independent basis, Debye-Ang):
   XX=           -101.0375   YY=            -93.0486   ZZ=            -86.5939
   XY=             14.9794   XZ=            -15.0577   YZ=              9.3019

  Exact polarizability: 265.695 -15.361 226.292  15.917 -16.882 167.544
 Approx polarizability: 199.644  -8.780 190.262   8.910 -14.224 141.670

 ******    1 imaginary frequencies (negative Signs) ******

                      1                      2                      3
                      A                      A                      A
 Frequencies --   -356.7106                31.7294                69.5758
 Red. masses --      5.7690                 3.8972                 3.6229
 Frc consts  --      0.4325                 0.0023                 0.0103
 IR Inten    --    734.7981                 1.0244                 3.1118

                      4                      5                      6
                      A                      A                      A
 Frequencies --     89.7023               113.8166               128.1220
 Red. masses --      3.5641                 4.6260                 3.3468
 Frc consts  --      0.0169                 0.0353                 0.0324
 IR Inten    --      3.2605                19.4626                 6.4378

                      7                      8                      9
                      A                      A                      A
 Frequencies --    170.7976               186.5408               202.8788
 Red. masses --      3.7364                 3.3430                 3.3334
 Frc consts  --      0.0642                 0.0685                 0.0808
 IR Inten    --     11.6873                 2.9084                 4.4682

                     10                     11                     12
                      A                      A                      A
 Frequencies --    221.2992               278.2441               281.6851
 Red. masses --      1.2280                 7.3618                 3.3613
 Frc consts  --      0.0354                 0.3358                 0.1571
 IR Inten    --      3.4406                 8.4710                 3.8561

                     13                     14                     15
                      A                      A                      A
 Frequencies --    299.1618               344.4142               391.5039
 Red. masses --      3.2464                 5.9509                 5.4890
 Frc consts  --      0.1712                 0.4159                 0.4957
 IR Inten    --     40.5158                 7.6341                20.1120

                     16                     17                     18
                      A                      A                      A
 Frequencies --    422.8694               460.5457               578.6503
 Red. masses --      2.9183                 3.6254                 3.0561
 Frc consts  --      0.3075                 0.4531                 0.6029
 IR Inten    --      0.3671                17.2602               104.0921

                     19                     20                     21
                      A                      A                      A
 Frequencies --    629.5890               637.7579               665.4261
 Red. masses --      3.2448                 6.0999                 3.1383
 Frc consts  --      0.7578                 1.4618                 0.8187
 IR Inten    --     12.3737                 3.1022                61.9551

                     22                     23                     24
                      A                      A                      A
 Frequencies --    714.6003               723.2676               751.1238
 Red. masses --      1.6457                 1.6198                 1.7313
 Frc consts  --      0.4951                 0.4992                 0.5755
 IR Inten    --     58.1073               111.7046               193.7824

                     25                     26                     27
                      A                      A                      A
 Frequencies --    805.8761               875.7683               899.2950
 Red. masses --      2.0926                 1.2492                 4.3805
 Frc consts  --      0.8007                 0.5645                 2.0872
 IR Inten    --      5.8360                 0.2709                59.0427

                     28                     29                     30
                      A                      A                      A
 Frequencies --    967.5192              1014.9913              1019.1410
 Red. masses --      1.4204                 1.1132                 1.3903
 Frc consts  --      0.7834                 0.6757                 0.8508
 IR Inten    --      3.0626                20.1442                 0.2368

                     31                     32                     33
                      A                      A                      A
 Frequencies --   1025.5246              1036.9622              1041.9320
 Red. masses --      5.2888                 1.3211                 1.6630
 Frc consts  --      3.2772                 0.8370                 1.0637
 IR Inten    --      4.4989                 0.3940                 2.0158

                     34                     35                     36
                      A                      A                      A
 Frequencies --   1057.1836              1068.7648              1076.5110
 Red. masses --      1.1550                 2.1290                 4.9477
 Frc consts  --      0.7606                 1.4328                 3.3783
 IR Inten    --     98.1347                12.2326                42.6316

                     37                     38                     39
                      A                      A                      A
 Frequencies --   1120.2118              1187.0610              1197.3621
 Red. masses --      1.6224                 1.1469                 2.8636
 Frc consts  --      1.1995                 0.9522                 2.4189
 IR Inten    --     63.9123                11.9562               244.9359

                     40                     41                     42
                      A                      A                      A
 Frequencies --   1217.7035              1226.3907              1233.7732
 Red. masses --      1.5156                 2.0754                 1.4577
 Frc consts  --      1.3241                 1.8391                 1.3073
 IR Inten    --     46.6062               102.6780                33.2147

                     43                     44                     45
                      A                      A                      A
 Frequencies --   1266.4886              1326.6809              1340.9014
 Red. masses --      1.6155                 4.4405                 1.3159
 Frc consts  --      1.5267                 4.6048                 1.3941
 IR Inten    --    424.1014                12.0900                 2.8915

                     46                     47                     48
                      A                      A                      A
 Frequencies --   1364.2025              1397.5614              1452.0152
 Red. masses --      1.4562                 1.5020                 1.1783
 Frc consts  --      1.5967                 1.7285                 1.4637
 IR Inten    --     39.2685               462.3507                 2.2019

                     49                     50                     51
                      A                      A                      A
 Frequencies --   1489.6076              1495.1966              1501.9660
 Red. masses --      2.2242                 1.0613                 1.0888
 Frc consts  --      2.9078                 1.3980                 1.4471
 IR Inten    --     44.2685                41.2603                53.6418

                     52                     53                     54
                      A                      A                      A
 Frequencies --   1506.9769              1544.7394              1636.3833
 Red. masses --      2.1492                 2.3012                 1.0923
 Frc consts  --      2.8757                 3.2353                 1.7233
 IR Inten    --    222.9409                11.8582                69.3802

                     55                     56                     57
                      A                      A                      A
 Frequencies --   1649.7545              1663.3495              1673.3925
 Red. masses --      5.6106                 5.7762                 5.8976
 Frc consts  --      8.9971                 9.4158                 9.7301
 IR Inten    --     89.2256              1357.8919                 0.3217

                     58                     59                     60
                      A                      A                      A
 Frequencies --   2932.3588              3066.6274              3145.5246
 Red. masses --      1.0809                 1.0354                 1.1026
 Frc consts  --      5.4763                 5.7372                 6.4275
 IR Inten    --    123.9324                28.8450                 5.1615

                     61                     62                     63
                      A                      A                      A
 Frequencies --   3179.2613              3201.7249              3210.8103
 Red. masses --      1.1052                 1.0865                 1.0901
 Frc consts  --      6.5818                 6.5621                 6.6216
 IR Inten    --     10.3907                 0.0121                13.7788

                     64                     65                     66
                      A                      A                      A
 Frequencies --   3216.1093              3222.8645              3235.8619
 Red. masses --      1.0889                 1.0950                 1.0922
 Frc consts  --      6.6358                 6.7009                 6.7383
 IR Inten    --      1.3857                22.1875                11.0558

                     67                     68                     69
                      A                      A                      A
 Frequencies --   3238.7985              3509.4799              3595.3645
 Red. masses --      1.0936                 1.0508                 1.0973
 Frc consts  --      6.7590                 7.6254                 8.3573
 IR Inten    --      2.5482                54.6325                62.3516

 - Thermochemistry -
 -------------------
 Temperature   298.150 Kelvin.  Pressure   1.00000 Atm.
 Atom     1 has atomic number  6 and mass  12.00000

 Molecular mass:   241.01023 amu.
 Principal axes and moments of inertia in atomic units:
                           1         2         3
     Eigenvalues --  2317.286644129.114885109.29286
           X            0.99930  -0.03550  -0.01145
           Y            0.03591   0.99864   0.03788
           Z            0.01009  -0.03827   0.99922
 This molecule is an asymmetric top.
 Rotational symmetry number  1.
 Warning -- assumption of classical behavior for rotation
           may cause significant error
 Rotational temperatures (Kelvin)      0.03738     0.02098     0.01695
 Rotational constants (GHZ):           0.77882     0.43708     0.35323
    1 imaginary frequencies ignored.
 Zero-point vibrational energy     529522.7 (Joules/Mol)
                                  126.55895 (Kcal/Mol)
 Warning -- explicit consideration of  17 degrees of freedom as
           vibrations may cause significant error
 Vibrational temperatures:     45.65   100.10   129.06   163.76   184.34
          (Kelvin)            245.74   268.39   291.90   318.40   400.33
                              405.28   430.43   495.54   563.29   608.41
                              662.62   832.55   905.84   917.59   957.40
                             1028.15  1040.62  1080.70  1159.48  1260.04
                             1293.88  1392.04  1460.35  1466.32  1475.50
                             1491.96  1499.11  1521.05  1537.71  1548.86
                             1611.73  1707.92  1722.74  1752.00  1764.50
                             1775.12  1822.19  1908.80  1929.26  1962.78
                             2010.78  2089.13  2143.21  2151.25  2160.99
                             2168.20  2222.54  2354.39  2373.63  2393.19
                             2407.64  4219.01  4412.19  4525.71  4574.25
                             4606.57  4619.64  4627.26  4636.98  4655.68
                             4659.91  5049.36  5172.93

 Zero-point correction=                           0.201685 (Hartree/Particle)
 Thermal correction to Energy=                    0.214708
 Thermal correction to Enthalpy=                  0.215652
 Thermal correction to Gibbs Free Energy=         0.160754
 Sum of electronic and zero-point Energies=          -3092.245495
 Sum of electronic and thermal Energies=             -3092.232472
 Sum of electronic and thermal Enthalpies=           -3092.231527
 Sum of electronic and thermal Free Energies=        -3092.286426

                     E (Thermal)             CV                S
                      KCal/Mol        Cal/Mol-Kelvin    Cal/Mol-Kelvin
 Total                  134.731             47.552            115.543
 Electronic               0.000              0.000              0.000
 Translational            0.889              2.981             42.340
 Rotational               0.889              2.981             32.258
 Vibrational            132.954             41.590             40.944
 Vibration     1          0.594              1.983              5.718
 Vibration     2          0.598              1.969              4.165
 Vibration     3          0.602              1.956              3.667
 Vibration     4          0.607              1.938              3.203
 Vibration     5          0.611              1.925              2.974
 Vibration     6          0.626              1.878              2.427
 Vibration     7          0.632              1.858              2.262
 Vibration     8          0.639              1.836              2.107
 Vibration     9          0.648              1.809              1.948
 Vibration    10          0.679              1.714              1.544
 Vibration    11          0.681              1.708              1.523
 Vibration    12          0.692              1.675              1.422
 Vibration    13          0.723              1.587              1.192
 Vibration    14          0.759              1.488              0.994
 Vibration    15          0.785              1.421              0.882
 Vibration    16          0.818              1.338              0.765
 Vibration    17          0.935              1.077              0.488

 Optimization completed.
    -- Stationary point found.
 Normal termination of Gaussian 16 at Thu Feb  4 15:11:51 2021.
