 Gaussian 16, Revision A.03,
 Gaussian 16:  ES64L-G16RevA.03 25-Dec-2016

 ----------------------------------------------------------------------
 # wB97XD def2tzvp, opt=(ts, noeigen, calcfc, maxcycles=70, maxstep=8),
  freq=noraman, scrf=(iefpcm, solvent=water)
 ----------------------------------------------------------------------

 ------------------------
 1_iteration/TS-153-1.out
 ------------------------
 Symbolic Z-matrix:
 Charge =  0 Multiplicity = 1

 SCF Done:  E(RwB97XD) =  -3552.05221138     A.U. after   15 cycles
 SCF Done:  E(RwB97XD) =  -3552.05221139     A.U. after    6 cycles
 Optimization completed.
    -- Stationary point found.
 Normal termination of Gaussian 16 at Sun Feb  7 04:43:02 2021.

 ---------------------------------------------------------------------
 #N Geom=AllCheck Guess=TCheck SCRF=Check GenChk RwB97XD/def2TZVP Freq
 ---------------------------------------------------------------------

 Structure from the checkpoint file:  "/beegfs/scratch/user/q/tla25/Gau-19713.chk"
 ------------------------
 1_iteration/TS-153-1.out
 ------------------------
 Charge =  0 Multiplicity = 1

                         Standard orientation:
 ---------------------------------------------------------------------
 Center     Atomic      Atomic             Coordinates (Angstroms)
 Number     Number       Type             X           Y           Z
 ---------------------------------------------------------------------
      1          6           0       -1.042426    0.915396   -0.435507
      2          6           0       -2.387227    0.829188   -0.880529
      3          8           0       -3.084113    1.760988   -1.275409
      4          6           0       -0.263661   -0.124209    0.096942
      5          6           0       -1.986228   -0.064571    2.310860
      6          1           0       -2.587057   -0.831946    1.826464
      7          1           0       -2.147872   -0.107413    3.386874
      8          1           0       -2.287018    0.914364    1.941456
      9          7           0       -0.579671   -0.274344    1.990546
     10          1           0       -0.256128   -1.192899    2.274038
     11          1           0       -0.004298    0.410808    2.463745
     12          6           0        1.243417   -0.039351    0.056343
     13          6           0        1.942045   -0.722442   -0.936415
     14          6           0        3.318760   -0.608982   -1.043646
     15          6           0        4.026315    0.186822   -0.157057
     16          6           0        3.340532    0.882825    0.825504
     17          6           0        1.962791    0.777551    0.926007
     18          1           0        1.410583   -1.348296   -1.639259
     19          1           0        3.836680   -1.150467   -1.824544
     20          1           0        5.102652    0.269115   -0.234523
     21          1           0        3.875008    1.520526    1.517411
     22          1           0        1.464126    1.375927    1.674885
     23         35           0       -0.899313   -1.918773   -0.344191
     24         17           0       -0.372016    2.536887   -0.398600
     25          1           0       -2.801744   -0.190608   -0.869240
 ---------------------------------------------------------------------

 SCF Done:  E(RwB97XD) =  -3552.05221139     A.U. after    1 cycles

 The electronic state is 1-A.
 Alpha  occ. eigenvalues -- -483.14373-101.69165 -62.69205 -56.48338 -56.47961
 Alpha  occ. eigenvalues --  -56.47950 -19.21656 -14.50168 -10.42094 -10.35490
 Alpha  occ. eigenvalues --  -10.32357 -10.32329 -10.32257 -10.30491 -10.30147
 Alpha  occ. eigenvalues --  -10.29815 -10.29762 -10.29707  -9.57690  -8.83300
 Alpha  occ. eigenvalues --   -7.32329  -7.31475  -7.31460  -6.65493  -6.64301
 Alpha  occ. eigenvalues --   -6.64265  -2.75869  -2.75534  -2.75506  -2.74542
 Alpha  occ. eigenvalues --   -2.74542  -1.12100  -1.05735  -0.99270  -0.96549
 Alpha  occ. eigenvalues --   -0.92703  -0.87019  -0.86101  -0.82793  -0.79997
 Alpha  occ. eigenvalues --   -0.75877  -0.71592  -0.69341  -0.64823  -0.63616
 Alpha  occ. eigenvalues --   -0.61643  -0.58907  -0.57864  -0.56886  -0.55862
 Alpha  occ. eigenvalues --   -0.53564  -0.53218  -0.51886  -0.50495  -0.49283
 Alpha  occ. eigenvalues --   -0.48666  -0.48103  -0.46629  -0.45658  -0.44340
 Alpha  occ. eigenvalues --   -0.43627  -0.41663  -0.40171  -0.38956  -0.38301
 Alpha  occ. eigenvalues --   -0.34553  -0.34313  -0.32982  -0.28640
 Alpha virt. eigenvalues --    0.01100   0.03023   0.04735   0.06076   0.10039
 Alpha virt. eigenvalues --    0.11655   0.13318   0.13705   0.14421   0.15088
 Alpha virt. eigenvalues --    0.16676   0.16992   0.17583   0.18558   0.18768

 Mulliken charges:
               1
     1  C   -0.146666
     2  C    0.051570
     3  O   -0.482731
     4  C    0.171861
     5  C   -0.322835
     6  H    0.162730
     7  H    0.174668
     8  H    0.171423
     9  N   -0.288637
    10  H    0.300495
    11  H    0.274935
    12  C    0.246486
    13  C   -0.250962
    14  C   -0.137975
    15  C   -0.143144
    16  C   -0.152684
    17  C   -0.268251
    18  H    0.159105
    19  H    0.148780
    20  H    0.149396
    21  H    0.149298
    22  H    0.157314
    23  Br  -0.076307
    24  Cl  -0.147880
    25  H    0.100010
 Sum of Mulliken charges =  -0.00000

 Dipole moment (field-independent basis, Debye):
    X=              5.7254    Y=             -5.9746    Z=              8.6534  Tot=             11.9732
 Quadrupole moment (field-independent basis, Debye-Ang):
   XX=           -106.4679   YY=           -112.6539   ZZ=            -88.9213
   XY=             15.3337   XZ=            -13.3474   YZ=              9.6662

  Exact polarizability: 266.277  -3.596 224.730  14.891   6.925 205.301
 Approx polarizability: 207.553  -0.438 190.121  11.481   9.677 177.196

 ******    1 imaginary frequencies (negative Signs) ******

                      1                      2                      3
                      A                      A                      A
 Frequencies --   -339.1866                36.6790                50.3460
 Red. masses --      5.4916                 4.6672                 4.9920
 Frc consts  --      0.3722                 0.0037                 0.0075
 IR Inten    --    783.5636                 3.3092                 0.3324

                      4                      5                      6
                      A                      A                      A
 Frequencies --     61.3194                79.3518               107.8788
 Red. masses --      2.8746                 6.4744                 4.5074
 Frc consts  --      0.0064                 0.0240                 0.0309
 IR Inten    --      0.0223                 3.2885                 8.6218

                      7                      8                      9
                      A                      A                      A
 Frequencies --    158.8471               168.6272               175.5287
 Red. masses --      1.9201                 2.5634                 8.8890
 Frc consts  --      0.0285                 0.0429                 0.1614
 IR Inten    --      3.4117                 2.9400                 4.7966

                     10                     11                     12
                      A                      A                      A
 Frequencies --    229.4670               239.5429               264.7553
 Red. masses --      3.7174                 3.9171                 5.0003
 Frc consts  --      0.1153                 0.1324                 0.2065
 IR Inten    --      5.5756                 0.2371                 7.5103

                     13                     14                     15
                      A                      A                      A
 Frequencies --    275.0018               287.1613               313.9481
 Red. masses --      5.7466                 4.4331                 4.4201
 Frc consts  --      0.2561                 0.2154                 0.2567
 IR Inten    --     11.0826                 1.2038                18.5615

                     16                     17                     18
                      A                      A                      A
 Frequencies --    335.4014               396.9813               420.9771
 Red. masses --      5.0537                 3.8049                 2.9141
 Frc consts  --      0.3350                 0.3533                 0.3043
 IR Inten    --     24.4200                17.5584                 0.1015

                     19                     20                     21
                      A                      A                      A
 Frequencies --    506.2867               586.6878               630.6484
 Red. masses --      4.3365                 3.9173                 2.9182
 Frc consts  --      0.6549                 0.7944                 0.6838
 IR Inten    --     12.3214               200.1954                33.7985

                     22                     23                     24
                      A                      A                      A
 Frequencies --    638.9602               655.4014               670.3140
 Red. masses --      5.3357                 2.6801                 6.3578
 Frc consts  --      1.2835                 0.6783                 1.6831
 IR Inten    --     12.3413                49.1991                33.2699

                     25                     26                     27
                      A                      A                      A
 Frequencies --    722.8837               776.7555               821.7168
 Red. masses --      1.6129                 2.3267                 3.2769
 Frc consts  --      0.4966                 0.8271                 1.3036
 IR Inten    --     87.3539               161.0498                86.1461

                     28                     29                     30
                      A                      A                      A
 Frequencies --    870.3372               891.0584               959.9192
 Red. masses --      1.2478                 5.5871                 1.4035
 Frc consts  --      0.5569                 2.6137                 0.7620
 IR Inten    --      1.2284                21.7383                 1.3774

                     31                     32                     33
                      A                      A                      A
 Frequencies --   1001.9491              1012.5064              1016.4689
 Red. masses --      1.1253                 1.3638                 1.6722
 Frc consts  --      0.6656                 0.8237                 1.0180
 IR Inten    --      2.2221                 5.3854                 0.7303

                     34                     35                     36
                      A                      A                      A
 Frequencies --   1026.1258              1034.6642              1040.0735
 Red. masses --      4.9812                 1.3090                 1.2203
 Frc consts  --      3.0902                 0.8256                 0.7777
 IR Inten    --      3.6118                12.5638               119.7533

                     37                     38                     39
                      A                      A                      A
 Frequencies --   1072.9260              1080.1355              1132.9557
 Red. masses --      2.1173                 4.8527                 1.5938
 Frc consts  --      1.4360                 3.3357                 1.2053
 IR Inten    --     14.9015                27.1812                 7.6624

                     40                     41                     42
                      A                      A                      A
 Frequencies --   1189.9840              1205.2849              1223.3699
 Red. masses --      1.1327                 3.7903                 1.2779
 Frc consts  --      0.9451                 3.2442                 1.1269
 IR Inten    --      0.5388               107.9987                27.8045

                     43                     44                     45
                      A                      A                      A
 Frequencies --   1230.2057              1242.2832              1320.5729
 Red. masses --      4.4662                 1.2976                 4.7437
 Frc consts  --      3.9824                 1.1799                 4.8741
 IR Inten    --    125.1428                15.9043                20.6814

                     46                     47                     48
                      A                      A                      A
 Frequencies --   1340.3653              1366.9430              1377.4926
 Red. masses --      1.3752                 2.4073                 1.3666
 Frc consts  --      1.4557                 2.6502                 1.5278
 IR Inten    --     15.4304               722.0950                38.0080

                     49                     50                     51
                      A                      A                      A
 Frequencies --   1450.4976              1468.1754              1490.7005
 Red. masses --      1.3519                 1.6532                 2.2538
 Frc consts  --      1.6759                 2.0996                 2.9508
 IR Inten    --     99.4322               150.9243                30.4976

                     52                     53                     54
                      A                      A                      A
 Frequencies --   1495.9735              1501.5362              1547.0084
 Red. masses --      1.0411                 1.0312                 2.1987
 Frc consts  --      1.3728                 1.3698                 3.1003
 IR Inten    --     31.9050                19.9002                 5.7695

                     55                     56                     57
                      A                      A                      A
 Frequencies --   1638.7241              1652.5838              1671.2807
 Red. masses --      1.0956                 5.3869                 8.5521
 Frc consts  --      1.7335                 8.6679                14.0741
 IR Inten    --     64.5651                 2.4929              1127.4659

                     58                     59                     60
                      A                      A                      A
 Frequencies --   1674.2994              3002.4663              3078.5588
 Red. masses --      5.7861                 1.0829                 1.0326
 Frc consts  --      9.5567                 5.7518                 5.7658
 IR Inten    --      0.5356                67.2878                17.2831

                     61                     62                     63
                      A                      A                      A
 Frequencies --   3162.0423              3172.2251              3203.1712
 Red. masses --      1.1053                 1.1060                 1.0864
 Frc consts  --      6.5112                 6.5575                 6.5676
 IR Inten    --      5.4525                 6.8156                 0.3534

                     64                     65                     66
                      A                      A                      A
 Frequencies --   3212.0131              3222.4373              3232.0830
 Red. masses --      1.0899                 1.0938                 1.0933
 Frc consts  --      6.6248                 6.6921                 6.7290
 IR Inten    --      7.5724                25.6057                15.6283

                     67                     68                     69
                      A                      A                      A
 Frequencies --   3235.0608              3528.3421              3614.1948
 Red. masses --      1.0963                 1.0524                 1.0940
 Frc consts  --      6.7601                 7.7195                 8.4199
 IR Inten    --      2.9386                78.6479                53.4538

 - Thermochemistry -
 -------------------
 Temperature   298.150 Kelvin.  Pressure   1.00000 Atm.
 Atom     1 has atomic number  6 and mass  12.00000

 Molecular mass:   274.97125 amu.
 Principal axes and moments of inertia in atomic units:
                           1         2         3
     Eigenvalues --  3134.422764521.847145831.77082
           X            0.99938  -0.02459  -0.02504
           Y            0.02481   0.99965   0.00882
           Z            0.02482  -0.00943   0.99965
 This molecule is an asymmetric top.
 Rotational symmetry number  1.
 Warning -- assumption of classical behavior for rotation
           may cause significant error
 Rotational temperatures (Kelvin)      0.02763     0.01915     0.01485
 Rotational constants (GHZ):           0.57578     0.39912     0.30947
    1 imaginary frequencies ignored.
 Zero-point vibrational energy     505425.0 (Joules/Mol)
                                  120.79948 (Kcal/Mol)
 Warning -- explicit consideration of  19 degrees of freedom as
           vibrations may cause significant error
 Vibrational temperatures:     52.77    72.44    88.22   114.17   155.21
          (Kelvin)            228.55   242.62   252.55   330.15   344.65
                              380.92   395.67   413.16   451.70   482.57
                              571.17   605.69   728.43   844.11   907.36
                              919.32   942.98   964.43  1040.07  1117.58
                             1182.27  1252.22  1282.03  1381.11  1441.58
                             1456.77  1462.47  1476.37  1488.65  1496.43
                             1543.70  1554.07  1630.07  1712.12  1734.14
                             1760.16  1769.99  1787.37  1900.01  1928.49
                             1966.73  1981.90  2086.94  2112.38  2144.79
                             2152.37  2160.38  2225.80  2357.76  2377.70
                             2404.60  2408.94  4319.88  4429.36  4549.47
                             4564.12  4608.65  4621.37  4636.37  4650.25
                             4654.53  5076.50  5200.02

 Zero-point correction=                           0.192506 (Hartree/Particle)
 Thermal correction to Energy=                    0.206720
 Thermal correction to Enthalpy=                  0.207664
 Thermal correction to Gibbs Free Energy=         0.149517
 Sum of electronic and zero-point Energies=          -3551.859705
 Sum of electronic and thermal Energies=             -3551.845491
 Sum of electronic and thermal Enthalpies=           -3551.844547
 Sum of electronic and thermal Free Energies=        -3551.902694

                     E (Thermal)             CV                S
                      KCal/Mol        Cal/Mol-Kelvin    Cal/Mol-Kelvin
 Total                  129.719             50.999            122.381
 Electronic               0.000              0.000              0.000
 Translational            0.889              2.981             42.733
 Rotational               0.889              2.981             32.780
 Vibrational            127.941             45.037             46.868
 Vibration     1          0.594              1.982              5.431
 Vibration     2          0.595              1.977              4.804
 Vibration     3          0.597              1.973              4.414
 Vibration     4          0.600              1.963              3.907
 Vibration     5          0.606              1.943              3.307
 Vibration     6          0.621              1.893              2.563
 Vibration     7          0.625              1.881              2.451
 Vibration     8          0.627              1.873              2.375
 Vibration     9          0.652              1.796              1.883
 Vibration    10          0.657              1.780              1.806
 Vibration    11          0.671              1.738              1.630
 Vibration    12          0.677              1.720              1.565
 Vibration    13          0.684              1.698              1.491
 Vibration    14          0.702              1.647              1.341
 Vibration    15          0.717              1.605              1.234
 Vibration    16          0.763              1.477              0.974
 Vibration    17          0.783              1.425              0.889
 Vibration    18          0.862              1.236              0.643
 Vibration    19          0.944              1.060              0.473

 Optimization completed.
    -- Stationary point found.
 Normal termination of Gaussian 16 at Sun Feb  7 05:29:15 2021.
