 Gaussian 16, Revision A.03,
 Gaussian 16:  ES64L-G16RevA.03 25-Dec-2016

 ----------------------------------------------------------------------
 # wB97XD def2tzvp, opt=(ts, noeigen, calcfc, maxcycles=70, maxstep=3),
  freq=noraman, scrf=(iefpcm, solvent=water)
 ----------------------------------------------------------------------

 ------------------------
 0_iteration/TS-161-0.out
 ------------------------
 Symbolic Z-matrix:
 Charge =  0 Multiplicity = 1

 SCF Done:  E(RwB97XD) =  -1209.49488464     A.U. after   15 cycles
 Optimization completed.
    -- Stationary point found.
 Normal termination of Gaussian 16 at Thu Mar 25 23:12:07 2021.

 ---------------------------------------------------------------------
 #N Geom=AllCheck Guess=TCheck SCRF=Check GenChk RwB97XD/def2TZVP Freq
 ---------------------------------------------------------------------

 Structure from the checkpoint file:  "/beegfs/scratch/user/q/tla25/Gau-77037.chk"
 ------------------------
 0_iteration/TS-161-0.out
 ------------------------
 Charge =  0 Multiplicity = 1

                         Standard orientation:
 ---------------------------------------------------------------------
 Center     Atomic      Atomic             Coordinates (Angstroms)
 Number     Number       Type             X           Y           Z
 ---------------------------------------------------------------------
      1          6           0       -0.227525   -1.244950   -0.415697
      2          6           0       -0.430439   -2.596191   -0.783897
      3          8           0       -1.509317   -3.130025   -1.067697
      4          6           0        1.064663   -0.758165   -0.091597
      5          6           0        0.576008   -1.901077    2.412403
      6          1           0        1.008020   -2.385775    3.286003
      7          1           0       -0.091365   -1.105119    2.731803
      8          1           0        0.007071   -2.627999    1.836703
      9          7           0        1.634696   -1.355942    1.565403
     10          1           0        2.118522   -0.585340    2.015803
     11          1           0        2.327049   -2.068989    1.362703
     12          6           0        1.241837    0.733776    0.046403
     13          6           0        0.692994    1.401854    1.138603
     14          6           0        0.768688    2.780174    1.237503
     15          6           0        1.387635    3.517107    0.238503
     16          6           0        1.931678    2.861319   -0.853997
     17          6           0        1.863074    1.479209   -0.948097
     18          1           0        0.172816    0.853742    1.912203
     19          1           0        0.335386    3.278072    2.095103
     20          1           0        1.444501    4.595417    0.312003
     21          1           0        2.414756    3.424531   -1.642097
     22          1           0        2.286386    0.984300   -1.810597
     23         17           0        2.438026   -1.495669   -1.020797
     24          6           0       -1.418729   -0.354105   -0.305897
     25          6           0       -1.625253    0.689944   -1.207097
     26          6           0       -2.729336    1.522209   -1.101697
     27          6           0       -3.663586    1.316006   -0.096297
     28          6           0       -3.485961    0.266746    0.794303
     29          6           0       -2.375278   -0.557619    0.687203
     30          1           0       -0.900684    0.857307   -1.994797
     31          1           0       -2.862010    2.331779   -1.808897
     32          1           0       -4.526228    1.964912   -0.010697
     33          1           0       -4.211920    0.091983    1.579003
     34          1           0       -2.244304   -1.372289    1.388803
     35          1           0        0.484403   -3.215787   -0.819697
 ---------------------------------------------------------------------

 SCF Done:  E(RwB97XD) =  -1209.49488464     A.U. after    1 cycles

 The electronic state is 1-A.
 Alpha  occ. eigenvalues -- -101.70073 -19.20328 -14.51087 -10.41800 -10.34033
 Alpha  occ. eigenvalues --  -10.32724 -10.31757 -10.30169 -10.29899 -10.29733
 Alpha  occ. eigenvalues --  -10.29675 -10.29620 -10.29607 -10.28597 -10.28566
 Alpha  occ. eigenvalues --  -10.28498 -10.28300 -10.28266 -10.26606  -9.58692
 Alpha  occ. eigenvalues --   -7.33318  -7.32480  -7.32444  -1.10435  -1.06730
 Alpha  occ. eigenvalues --   -0.99260  -0.96372  -0.95900  -0.89208  -0.86603
 Alpha  occ. eigenvalues --   -0.85996  -0.84549  -0.82257  -0.80462  -0.75269
 Alpha  occ. eigenvalues --   -0.71561  -0.70146  -0.69834  -0.68438  -0.65478
 Alpha  occ. eigenvalues --   -0.63588  -0.61705  -0.59326  -0.58990  -0.57800
 Alpha  occ. eigenvalues --   -0.56512  -0.56108  -0.53945  -0.53740  -0.53177
 Alpha  occ. eigenvalues --   -0.52673  -0.51804  -0.50380  -0.49917  -0.49016
 Alpha  occ. eigenvalues --   -0.48476  -0.47982  -0.46904  -0.45863  -0.45124
 Alpha  occ. eigenvalues --   -0.44187  -0.43547  -0.42420  -0.42229  -0.40730
 Alpha  occ. eigenvalues --   -0.39926  -0.34991  -0.34476  -0.33292  -0.32760
 Alpha  occ. eigenvalues --   -0.31714  -0.27640
 Alpha virt. eigenvalues --    0.02010   0.03786   0.05464   0.05836   0.06277
 Alpha virt. eigenvalues --    0.08573   0.10594   0.12409   0.13531   0.13820
 Alpha virt. eigenvalues --    0.14338   0.15179   0.16065   0.16664   0.17096

 Mulliken charges:
               1
     1  C   -0.204429
     2  C    0.044316
     3  O   -0.515527
     4  C    0.306166
     5  C   -0.322034
     6  H    0.175913
     7  H    0.161588
     8  H    0.167347
     9  N   -0.252720
    10  H    0.300518
    11  H    0.285839
    12  C    0.159386
    13  C   -0.273249
    14  C   -0.152508
    15  C   -0.152676
    16  C   -0.106444
    17  C   -0.304047
    18  H    0.153748
    19  H    0.146641
    20  H    0.147527
    21  H    0.147746
    22  H    0.145521
    23  Cl  -0.124416
    24  C    0.240430
    25  C   -0.226810
    26  C   -0.163354
    27  C   -0.139447
    28  C   -0.150113
    29  C   -0.284361
    30  H    0.143760
    31  H    0.136954
    32  H    0.140206
    33  H    0.137145
    34  H    0.156017
    35  H    0.075366
 Sum of Mulliken charges =  -0.00000

 Dipole moment (field-independent basis, Debye):
    X=              7.4297    Y=              4.8020    Z=              8.3824  Tot=             12.1871
 Quadrupole moment (field-independent basis, Debye-Ang):
   XX=           -119.1203   YY=           -123.3022   ZZ=           -105.8211
   XY=            -17.0455   XZ=             -1.5506   YZ=            -19.0011

  Exact polarizability: 295.077  -1.947 320.589 -22.166  -3.497 267.727
 Approx polarizability: 238.053  -2.002 255.453 -21.334  -5.153 232.534

 ******    1 imaginary frequencies (negative Signs) ******

                      1                      2                      3
                      A                      A                      A
 Frequencies --   -305.0925                31.8988                41.6583
 Red. masses --      5.8126                 4.5460                 5.3796
 Frc consts  --      0.3188                 0.0027                 0.0055
 IR Inten    --    699.8035                 1.1417                 3.5667

                      4                      5                      6
                      A                      A                      A
 Frequencies --     61.2221                65.3319                90.9963
 Red. masses --      4.0303                 4.0560                 3.9661
 Frc consts  --      0.0089                 0.0102                 0.0193
 IR Inten    --      2.2156                 2.9747                 4.4935

                      7                      8                      9
                      A                      A                      A
 Frequencies --    105.1658               121.5557               157.7631
 Red. masses --      2.4599                 3.8374                 1.8477
 Frc consts  --      0.0160                 0.0334                 0.0271
 IR Inten    --      2.8777                10.0959                 0.2443

                     10                     11                     12
                      A                      A                      A
 Frequencies --    180.6360               196.3030               200.3857
 Red. masses --      2.5668                 4.5903                 4.6732
 Frc consts  --      0.0493                 0.1042                 0.1106
 IR Inten    --     10.8919                 7.2643                12.6459

                     13                     14                     15
                      A                      A                      A
 Frequencies --    231.2899               264.9259               274.0323
 Red. masses --      5.4958                 3.8159                 3.5755
 Frc consts  --      0.1732                 0.1578                 0.1582
 IR Inten    --      6.6362                 6.4436                 4.1946

                     16                     17                     18
                      A                      A                      A
 Frequencies --    284.7172               312.7550               338.4907
 Red. masses --      4.1304                 3.8294                 4.4344
 Frc consts  --      0.1973                 0.2207                 0.2993
 IR Inten    --      4.8014                28.8503                25.2279

                     19                     20                     21
                      A                      A                      A
 Frequencies --    362.6775               418.2454               425.5907
 Red. masses --      8.3035                 2.8788                 2.8935
 Frc consts  --      0.6435                 0.2967                 0.3088
 IR Inten    --     18.1121                 0.4617                 0.8952

                     22                     23                     24
                      A                      A                      A
 Frequencies --    449.7749               504.7127               533.8568
 Red. masses --      5.0562                 4.6222                 3.7594
 Frc consts  --      0.6026                 0.6937                 0.6313
 IR Inten    --     47.8234                27.4558                 9.5856

                     25                     26                     27
                      A                      A                      A
 Frequencies --    562.9563               626.2651               636.3431
 Red. masses --      4.3829                 4.9482                 4.6161
 Frc consts  --      0.8184                 1.1434                 1.1013
 IR Inten    --     45.2669                54.0345                 0.7961

                     28                     29                     30
                      A                      A                      A
 Frequencies --    638.6259               658.6183               713.4869
 Red. masses --      5.5265                 5.1215                 1.8497
 Frc consts  --      1.3280                 1.3089                 0.5548
 IR Inten    --      5.9163               156.3118                48.0803

                     31                     32                     33
                      A                      A                      A
 Frequencies --    725.2075               728.6060               733.8613
 Red. masses --      2.3107                 1.5103                 1.9481
 Frc consts  --      0.7160                 0.4724                 0.6182
 IR Inten    --     32.0785               177.8610                93.2281

                     34                     35                     36
                      A                      A                      A
 Frequencies --    778.7269               799.9429               840.8436
 Red. masses --      3.5921                 2.2458                 3.3659
 Frc consts  --      1.2834                 0.8467                 1.4021
 IR Inten    --     95.3018                 5.6632                94.5419

                     37                     38                     39
                      A                      A                      A
 Frequencies --    875.0530               877.8940               914.5276
 Red. masses --      1.2550                 1.2480                 3.7607
 Frc consts  --      0.5662                 0.5667                 1.8532
 IR Inten    --      0.8135                 1.1692                29.5275

                     40                     41                     42
                      A                      A                      A
 Frequencies --    957.7318               964.0922              1011.5651
 Red. masses --      1.4881                 1.4377                 1.3778
 Frc consts  --      0.8042                 0.7873                 0.8306
 IR Inten    --      6.2677                 0.0971                 1.4717

                     43                     44                     45
                      A                      A                      A
 Frequencies --   1015.4210              1022.5472              1024.3043
 Red. masses --      1.3780                 1.6034                 1.3218
 Frc consts  --      0.8371                 0.9878                 0.8171
 IR Inten    --      0.4907                10.2918                 0.8556

                     46                     47                     48
                      A                      A                      A
 Frequencies --   1026.3249              1029.9572              1034.8040
 Red. masses --      5.5505                 2.4562                 1.7112
 Frc consts  --      3.4447                 1.5352                 1.0796
 IR Inten    --      0.1621                 1.3214                 4.4614

                     49                     50                     51
                      A                      A                      A
 Frequencies --   1035.9272              1058.8211              1067.1102
 Red. masses --      1.3275                 2.4742                 1.6229
 Frc consts  --      0.8394                 1.6343                 1.0888
 IR Inten    --      0.3323                 7.1463                24.2476

                     52                     53                     54
                      A                      A                      A
 Frequencies --   1070.7173              1080.2523              1109.2204
 Red. masses --      2.1935                 2.2639                 1.5652
 Frc consts  --      1.4816                 1.5565                 1.1346
 IR Inten    --     16.9646               120.0637                12.4770

                     55                     56                     57
                      A                      A                      A
 Frequencies --   1131.1203              1150.0655              1181.3056
 Red. masses --      1.6925                 2.9051                 1.1335
 Frc consts  --      1.2758                 2.2639                 0.9319
 IR Inten    --     15.0499                38.5338                 0.8080

                     58                     59                     60
                      A                      A                      A
 Frequencies --   1189.6031              1208.1000              1210.5451
 Red. masses --      1.1303                 1.1317                 3.0908
 Frc consts  --      0.9424                 0.9732                 2.6686
 IR Inten    --      0.3999                 4.1380               207.0585

                     61                     62                     63
                      A                      A                      A
 Frequencies --   1232.0553              1255.2734              1308.0885
 Red. masses --      1.1662                 1.3780                 4.3327
 Frc consts  --      1.0430                 1.2793                 4.3680
 IR Inten    --      8.8645                47.0815                49.2402

                     64                     65                     66
                      A                      A                      A
 Frequencies --   1323.1896              1340.9040              1349.3930
 Red. masses --      4.3941                 2.1688                 1.5900
 Frc consts  --      4.5327                 2.2976                 1.7058
 IR Inten    --     98.3342               375.4990               249.0274

                     67                     68                     69
                      A                      A                      A
 Frequencies --   1359.6586              1375.9346              1388.5742
 Red. masses --      1.4743                 1.4885                 4.1440
 Frc consts  --      1.6058                 1.6603                 4.7077
 IR Inten    --     79.1576                23.7833                90.7831

                     70                     71                     72
                      A                      A                      A
 Frequencies --   1445.7716              1459.5664              1488.1569
 Red. masses --      1.4355                 1.3653                 2.2139
 Frc consts  --      1.7678                 1.7136                 2.8887
 IR Inten    --     55.2622                41.2843                11.4108

                     73                     74                     75
                      A                      A                      A
 Frequencies --   1492.2586              1494.6233              1499.7728
 Red. masses --      1.2994                 1.5669                 1.0660
 Frc consts  --      1.7048                 2.0623                 1.4127
 IR Inten    --     12.1982                31.9080                43.5816

                     76                     77                     78
                      A                      A                      A
 Frequencies --   1544.0751              1550.6760              1641.5624
 Red. masses --      2.4268                 2.2059                 5.4019
 Frc consts  --      3.4090                 3.1251                 8.5765
 IR Inten    --     50.0995                12.9739               558.6180

                     79                     80                     81
                      A                      A                      A
 Frequencies --   1644.4417              1646.7064              1655.5828
 Red. masses --      1.2275                 4.2318                 5.6008
 Frc consts  --      1.9558                 6.7609                 9.0449
 IR Inten    --     42.1178               509.6789                 2.7955

                     82                     83                     84
                      A                      A                      A
 Frequencies --   1673.8942              1677.8705              2942.3021
 Red. masses --      6.0010                 5.6887                 1.0815
 Frc consts  --      9.9068                 9.4359                 5.5163
 IR Inten    --    121.3700                 0.2442               148.3808

                     85                     86                     87
                      A                      A                      A
 Frequencies --   3087.2239              3170.4656              3186.7896
 Red. masses --      1.0332                 1.1050                 1.1042
 Frc consts  --      5.8017                 6.5442                 6.6073
 IR Inten    --     16.9600                 2.8867                15.8802

                     88                     89                     90
                      A                      A                      A
 Frequencies --   3188.7378              3193.7622              3202.1073
 Red. masses --      1.0864                 1.0881                 1.0864
 Frc consts  --      6.5083                 6.5390                 6.5633
 IR Inten    --      1.9555                 0.4341                 0.4957

                     91                     92                     93
                      A                      A                      A
 Frequencies --   3203.3425              3208.8663              3210.9504
 Red. masses --      1.0916                 1.0951                 1.0898
 Frc consts  --      6.5995                 6.6438                 6.6201
 IR Inten    --     17.8289                51.3294                 8.0148

                     94                     95                     96
                      A                      A                      A
 Frequencies --   3218.9233              3221.3804              3230.8351
 Red. masses --      1.0988                 1.0936                 1.0949
 Frc consts  --      6.7078                 6.6863                 6.7339
 IR Inten    --     18.1441                22.3385                14.1718

                     97                     98                     99
                      A                      A                      A
 Frequencies --   3236.3546              3511.3339              3590.3254
 Red. masses --      1.0944                 1.0518                 1.0958
 Frc consts  --      6.7536                 7.6405                 8.3225
 IR Inten    --      3.3176                82.7673                71.1467

 - Thermochemistry -
 -------------------
 Temperature   298.150 Kelvin.  Pressure   1.00000 Atm.
 Atom     1 has atomic number  6 and mass  12.00000

 Molecular mass:   273.09204 amu.
 Principal axes and moments of inertia in atomic units:
                           1         2         3
     Eigenvalues --  4556.945724864.931647120.86298
           X            0.99983  -0.01821   0.00423
           Y            0.01835   0.99915  -0.03684
           Z           -0.00355   0.03691   0.99931
 This molecule is an asymmetric top.
 Rotational symmetry number  1.
 Warning -- assumption of classical behavior for rotation
           may cause significant error
 Rotational temperatures (Kelvin)      0.01901     0.01780     0.01216
 Rotational constants (GHZ):           0.39604     0.37097     0.25344
    1 imaginary frequencies ignored.
 Zero-point vibrational energy     746447.1 (Joules/Mol)
                                  178.40514 (Kcal/Mol)
 Warning -- explicit consideration of  24 degrees of freedom as
           vibrations may cause significant error
 Vibrational temperatures:     45.90    59.94    88.08    94.00   130.92
          (Kelvin)            151.31   174.89   226.99   259.89   282.44
                              288.31   332.77   381.17   394.27   409.64
                              449.98   487.01   521.81   601.76   612.33
                              647.13   726.17   768.10   809.97   901.06
                              915.56   918.84   947.60  1026.55  1043.41
                             1048.30  1055.86  1120.41  1150.94  1209.79
                             1259.01  1263.09  1315.80  1377.96  1387.11
                             1455.42  1460.96  1471.22  1473.75  1476.65
                             1481.88  1488.85  1490.47  1523.41  1535.33
                             1540.52  1554.24  1595.92  1627.43  1654.69
                             1699.64  1711.57  1738.19  1741.70  1772.65
                             1806.06  1882.05  1903.77  1929.26  1941.48
                             1956.25  1979.66  1997.85  2080.14  2099.99
                             2141.13  2147.03  2150.43  2157.84  2221.58
                             2231.08  2361.84  2365.98  2369.24  2382.01
                             2408.36  2414.08  4233.32  4441.83  4561.59
                             4585.08  4587.88  4595.11  4607.12  4608.90
                             4616.84  4619.84  4631.31  4634.85  4648.45
                             4656.39  5052.03  5165.68

 Zero-point correction=                           0.284307 (Hartree/Particle)
 Thermal correction to Energy=                    0.301559
 Thermal correction to Enthalpy=                  0.302503
 Thermal correction to Gibbs Free Energy=         0.238299
 Sum of electronic and zero-point Energies=          -1209.210578
 Sum of electronic and thermal Energies=             -1209.193326
 Sum of electronic and thermal Enthalpies=           -1209.192382
 Sum of electronic and thermal Free Energies=        -1209.256586

                     E (Thermal)             CV                S
                      KCal/Mol        Cal/Mol-Kelvin    Cal/Mol-Kelvin
 Total                  189.231             65.598            135.129
 Electronic               0.000              0.000              0.000
 Translational            0.889              2.981             42.713
 Rotational               0.889              2.981             33.423
 Vibrational            187.453             59.636             58.993
 Vibration     1          0.594              1.983              5.708
 Vibration     2          0.594              1.981              5.179
 Vibration     3          0.597              1.973              4.417
 Vibration     4          0.597              1.971              4.289
 Vibration     5          0.602              1.956              3.639
 Vibration     6          0.605              1.945              3.356
 Vibration     7          0.609              1.931              3.075
 Vibration     8          0.621              1.894              2.576
 Vibration     9          0.630              1.866              2.322
 Vibration    10          0.636              1.845              2.167
 Vibration    11          0.638              1.839              2.130
 Vibration    12          0.653              1.793              1.869
 Vibration    13          0.671              1.737              1.629
 Vibration    14          0.676              1.721              1.571
 Vibration    15          0.683              1.702              1.505
 Vibration    16          0.701              1.649              1.348
 Vibration    17          0.719              1.599              1.219
 Vibration    18          0.737              1.549              1.111
 Vibration    19          0.781              1.431              0.898
 Vibration    20          0.787              1.415              0.873
 Vibration    21          0.809              1.361              0.796
 Vibration    22          0.860              1.240              0.646
 Vibration    23          0.889              1.175              0.579
 Vibration    24          0.919              1.111              0.518

 Optimization completed.
    -- Stationary point found.
 Normal termination of Gaussian 16 at Fri Mar 26 01:25:45 2021.
