 Gaussian 16, Revision A.03,
 Gaussian 16:  ES64L-G16RevA.03 25-Dec-2016

 ----------------------------------------------------------------------
 # wB97XD def2tzvp, opt=(ts, noeigen, calcfc, maxcycles=70, maxstep=5),
  freq=noraman, scrf=(iefpcm, solvent=water)
 ----------------------------------------------------------------------

 ------------------------
 2_iteration/TS-174-2.out
 ------------------------
 Symbolic Z-matrix:
 Charge =  0 Multiplicity = 1

 SCF Done:  E(RwB97XD) =  -1112.42894898     A.U. after   14 cycles
 SCF Done:  E(RwB97XD) =  -1112.42894705     A.U. after   11 cycles
 SCF Done:  E(RwB97XD) =  -1112.42894824     A.U. after   10 cycles
 SCF Done:  E(RwB97XD) =  -1112.42894941     A.U. after   10 cycles
 SCF Done:  E(RwB97XD) =  -1112.42894931     A.U. after   10 cycles
 SCF Done:  E(RwB97XD) =  -1112.42894894     A.U. after    7 cycles
 SCF Done:  E(RwB97XD) =  -1112.42894910     A.U. after    7 cycles
 Optimization completed.
    -- Stationary point found.
 Normal termination of Gaussian 16 at Sun Feb  7 15:04:26 2021.

 ---------------------------------------------------------------------
 #N Geom=AllCheck Guess=TCheck SCRF=Check GenChk RwB97XD/def2TZVP Freq
 ---------------------------------------------------------------------

 Structure from the checkpoint file:  "/beegfs/scratch/user/q/tla25/Gau-100561.chk"
 ------------------------
 2_iteration/TS-174-2.out
 ------------------------
 Charge =  0 Multiplicity = 1

                         Standard orientation:
 ---------------------------------------------------------------------
 Center     Atomic      Atomic             Coordinates (Angstroms)
 Number     Number       Type             X           Y           Z
 ---------------------------------------------------------------------
      1          6           0        0.703116    0.289284    0.894963
      2          6           0        2.117525    0.598531    0.787574
      3          8           0        2.557139    1.694490    1.167614
      4          6           0       -0.152768   -0.104809   -0.142058
      5          6           0       -0.273810    2.391544   -1.172582
      6          1           0        0.075130    3.070398   -1.948054
      7          1           0       -1.351337    2.484355   -1.059987
      8          1           0        0.217230    2.625387   -0.229860
      9          7           0        0.054363    1.007649   -1.522332
     10          1           0       -0.437657    0.701224   -2.355553
     11          1           0        1.047212    0.910470   -1.715524
     12          6           0       -1.637802   -0.106088    0.140715
     13          6           0       -2.576986   -0.122001   -0.889073
     14          6           0       -3.934794   -0.128386   -0.618192
     15          6           0       -4.384649   -0.135356    0.693837
     16          6           0       -3.461278   -0.145677    1.726622
     17          6           0       -2.101726   -0.134728    1.452934
     18          1           0       -2.264203   -0.148544   -1.924628
     19          1           0       -4.641859   -0.133900   -1.437624
     20          1           0       -5.445678   -0.143101    0.907616
     21          1           0       -3.795697   -0.167965    2.755956
     22          1           0       -1.397668   -0.165506    2.271721
     23         17           0        0.238980   -1.626419   -1.123680
     24          1           0        0.218990    0.934203    1.616055
     25          7           0        2.985946   -0.317254    0.225198
     26          6           0        2.906225   -1.726109    0.567609
     27          6           0        4.335475    0.131023   -0.048959
     28          1           0        1.930526   -1.953986    0.983980
     29          1           0        3.070774   -2.352784   -0.310518
     30          1           0        3.672398   -1.969109    1.314106
     31          1           0        4.320130    1.126661   -0.485305
     32          1           0        4.954408    0.160094    0.855784
     33          1           0        4.794196   -0.560830   -0.756906
 ---------------------------------------------------------------------

 SCF Done:  E(RwB97XD) =  -1112.42894910     A.U. after    1 cycles

 The electronic state is 1-A.
 Alpha  occ. eigenvalues -- -101.68588 -19.19713 -14.51228 -14.44557 -10.40885
 Alpha  occ. eigenvalues --  -10.36948 -10.32264 -10.31480 -10.30001 -10.29980
 Alpha  occ. eigenvalues --  -10.29862 -10.29647 -10.29576 -10.29499 -10.29430
 Alpha  occ. eigenvalues --  -10.24257  -9.57213  -7.31804  -7.31020  -7.30981
 Alpha  occ. eigenvalues --   -1.12206  -1.06919  -1.01936  -0.98200  -0.94770
 Alpha  occ. eigenvalues --   -0.87706  -0.85912  -0.84047  -0.80718  -0.80037
 Alpha  occ. eigenvalues --   -0.77649  -0.73123  -0.71063  -0.67398  -0.65578
 Alpha  occ. eigenvalues --   -0.61860  -0.61160  -0.59360  -0.58199  -0.56421
 Alpha  occ. eigenvalues --   -0.55552  -0.55345  -0.54147  -0.53462  -0.52551
 Alpha  occ. eigenvalues --   -0.51492  -0.49838  -0.48804  -0.48306  -0.47832
 Alpha  occ. eigenvalues --   -0.47622  -0.46330  -0.46102  -0.45285  -0.44263
 Alpha  occ. eigenvalues --   -0.43827  -0.42726  -0.39559  -0.38933  -0.34502
 Alpha  occ. eigenvalues --   -0.34088  -0.33873  -0.31207  -0.26724
 Alpha virt. eigenvalues --    0.02389   0.04725   0.07451   0.09334   0.09918
 Alpha virt. eigenvalues --    0.12307   0.13514   0.13922   0.14261   0.15157
 Alpha virt. eigenvalues --    0.16581   0.16874   0.17496   0.17964   0.18342

 Mulliken charges:
               1
     1  C   -0.464047
     2  C    0.224454
     3  O   -0.528252
     4  C    0.236383
     5  C   -0.295947
     6  H    0.166329
     7  H    0.164105
     8  H    0.161487
     9  N   -0.249847
    10  H    0.285859
    11  H    0.292280
    12  C    0.194209
    13  C   -0.315454
    14  C   -0.138192
    15  C   -0.146186
    16  C   -0.140925
    17  C   -0.221200
    18  H    0.140241
    19  H    0.147447
    20  H    0.147464
    21  H    0.146084
    22  H    0.159642
    23  Cl  -0.169076
    24  H    0.128406
    25  N   -0.151416
    26  C   -0.276308
    27  C   -0.289345
    28  H    0.145584
    29  H    0.135030
    30  H    0.121875
    31  H    0.134221
    32  H    0.121939
    33  H    0.133159
 Sum of Mulliken charges =  -0.00000

 Dipole moment (field-independent basis, Debye):
    X=             -4.3350    Y=              0.5499    Z=             -6.2943  Tot=              7.6625
 Quadrupole moment (field-independent basis, Debye-Ang):
   XX=            -96.0598   YY=           -109.2686   ZZ=            -94.1662
   XY=            -12.0559   XZ=             -7.5980   YZ=            -12.4866

  Exact polarizability: 299.126  -1.066 205.116  10.508   7.750 237.488
 Approx polarizability: 219.272   0.373 174.187   5.459   8.612 205.897

 ******    1 imaginary frequencies (negative Signs) ******

                      1                      2                      3
                      A                      A                      A
 Frequencies --   -342.0650                22.9237                35.8979
 Red. masses --      5.5761                 3.6544                 4.6223
 Frc consts  --      0.3844                 0.0011                 0.0035
 IR Inten    --    506.5080                 4.1022                 2.9873

                      4                      5                      6
                      A                      A                      A
 Frequencies --     68.0208                75.3285               100.2851
 Red. masses --      3.7483                 6.5874                 3.4449
 Frc consts  --      0.0102                 0.0220                 0.0204
 IR Inten    --      1.1220                16.3101                13.1236

                      7                      8                      9
                      A                      A                      A
 Frequencies --    118.3106               150.1302               166.4621
 Red. masses --      2.2486                 2.0570                 1.9718
 Frc consts  --      0.0185                 0.0273                 0.0322
 IR Inten    --      5.4504                15.2306                 5.1676

                     10                     11                     12
                      A                      A                      A
 Frequencies --    192.5862               197.1356               206.5939
 Red. masses --      2.2399                 2.4460                 2.0823
 Frc consts  --      0.0489                 0.0560                 0.0524
 IR Inten    --     11.2242                 1.0733                11.3075

                     13                     14                     15
                      A                      A                      A
 Frequencies --    218.2694               239.7440               281.6817
 Red. masses --      3.1675                 1.8637                 4.1521
 Frc consts  --      0.0889                 0.0631                 0.1941
 IR Inten    --     12.1541                 6.0272                27.0963

                     16                     17                     18
                      A                      A                      A
 Frequencies --    288.3494               306.2491               348.3289
 Red. masses --      1.9613                 2.0419                 4.6128
 Frc consts  --      0.0961                 0.1128                 0.3298
 IR Inten    --      8.6154                 8.9694                37.0476

                     19                     20                     21
                      A                      A                      A
 Frequencies --    371.8241               415.0353               419.1630
 Red. masses --      4.4016                 3.1775                 2.8359
 Frc consts  --      0.3585                 0.3225                 0.2936
 IR Inten    --     29.3533                 1.9231                 2.5437

                     22                     23                     24
                      A                      A                      A
 Frequencies --    441.5076               474.0450               567.5338
 Red. masses --      3.7602                 2.6599                 4.9773
 Frc consts  --      0.4319                 0.3522                 0.9446
 IR Inten    --     19.5881                83.1509                99.0216

                     25                     26                     27
                      A                      A                      A
 Frequencies --    594.0175               614.1219               639.4903
 Red. masses --      2.2654                 4.5534                 6.3798
 Frc consts  --      0.4710                 1.0118                 1.5372
 IR Inten    --    206.5024                24.6004                 6.1070

                     28                     29                     30
                      A                      A                      A
 Frequencies --    659.9021               710.8129               720.3060
 Red. masses --      2.6731                 3.7378                 1.5687
 Frc consts  --      0.6858                 1.1127                 0.4796
 IR Inten    --    109.7804                90.2669               111.3052

                     31                     32                     33
                      A                      A                      A
 Frequencies --    750.9973               784.6056               818.0896
 Red. masses --      2.0479                 2.4714                 2.8971
 Frc consts  --      0.6805                 0.8964                 1.1424
 IR Inten    --     73.2195                36.6878                20.6375

                     34                     35                     36
                      A                      A                      A
 Frequencies --    827.5841               870.6991               922.7314
 Red. masses --      4.1701                 1.2583                 3.1871
 Frc consts  --      1.6828                 0.5620                 1.5988
 IR Inten    --     47.4714                 0.8592                34.0224

                     37                     38                     39
                      A                      A                      A
 Frequencies --    963.2281              1012.7708              1019.8037
 Red. masses --      1.4563                 1.4256                 2.2653
 Frc consts  --      0.7961                 0.8615                 1.3881
 IR Inten    --      0.1851                 6.2152                59.1713

                     40                     41                     42
                      A                      A                      A
 Frequencies --   1026.4426              1028.0605              1034.1131
 Red. masses --      4.1017                 1.2720                 1.3390
 Frc consts  --      2.5462                 0.7921                 0.8436
 IR Inten    --     17.5803                31.4872                 2.7234

                     43                     44                     45
                      A                      A                      A
 Frequencies --   1063.2548              1068.6631              1085.1801
 Red. masses --      2.4048                 2.2086                 1.3825
 Frc consts  --      1.6018                 1.4861                 0.9592
 IR Inten    --      1.6672                 9.3124                21.9824

                     46                     47                     48
                      A                      A                      A
 Frequencies --   1105.2975              1122.4536              1131.7162
 Red. masses --      1.5506                 1.5742                 1.2317
 Frc consts  --      1.1161                 1.1686                 0.9295
 IR Inten    --     73.6386                39.0376                 2.7868

                     49                     50                     51
                      A                      A                      A
 Frequencies --   1172.8597              1187.2385              1193.5827
 Red. masses --      1.4113                 1.1325                 2.7589
 Frc consts  --      1.1438                 0.9405                 2.3157
 IR Inten    --     22.9763                 3.8091               221.3832

                     52                     53                     54
                      A                      A                      A
 Frequencies --   1217.4334              1222.4821              1274.0493
 Red. masses --      1.6632                 1.7845                 1.4054
 Frc consts  --      1.4524                 1.5713                 1.3441
 IR Inten    --    107.0772               121.0832                89.3501

                     55                     56                     57
                      A                      A                      A
 Frequencies --   1285.6670              1297.8384              1327.3740
 Red. masses --      2.0326                 2.8902                 4.5200
 Frc consts  --      1.9796                 2.8683                 4.6922
 IR Inten    --    168.0509               147.2370                 9.1442

                     58                     59                     60
                      A                      A                      A
 Frequencies --   1342.2007              1363.8912              1405.8463
 Red. masses --      1.2919                 1.4441                 2.8193
 Frc consts  --      1.3712                 1.5827                 3.2830
 IR Inten    --      3.6975                15.0779               590.3264

                     61                     62                     63
                      A                      A                      A
 Frequencies --   1444.3326              1449.8257              1463.7930
 Red. masses --      1.1810                 1.4011                 1.7193
 Frc consts  --      1.4516                 1.7352                 2.1706
 IR Inten    --     15.7741               119.4828               101.6367

                     64                     65                     66
                      A                      A                      A
 Frequencies --   1472.2641              1479.2208              1493.9877
 Red. masses --      1.2296                 1.0740                 1.9320
 Frc consts  --      1.5703                 1.3845                 2.5407
 IR Inten    --    123.4333                12.0939                80.6576

                     67                     68                     69
                      A                      A                      A
 Frequencies --   1495.9129              1497.7629              1499.6422
 Red. masses --      1.0744                 1.1023                 1.0616
 Frc consts  --      1.4165                 1.4569                 1.4066
 IR Inten    --      7.6933                 9.5042                19.0354

                     70                     71                     72
                      A                      A                      A
 Frequencies --   1499.8600              1525.0513              1547.0757
 Red. masses --      1.0736                 1.2600                 2.2981
 Frc consts  --      1.4229                 1.7266                 3.2407
 IR Inten    --     61.2570               222.6069                 4.0139

                     73                     74                     75
                      A                      A                      A
 Frequencies --   1619.8971              1638.1268              1654.1170
 Red. masses --      7.2418                 1.1013                 5.4496
 Frc consts  --     11.1962                 1.7412                 8.7852
 IR Inten    --    886.7958                84.0846                 3.5948

                     76                     77                     78
                      A                      A                      A
 Frequencies --   1675.2806              3010.8933              3015.8036
 Red. masses --      5.8326                 1.0500                 1.0505
 Frc consts  --      9.6447                 5.6083                 5.6293
 IR Inten    --      0.0825                99.0424               149.7596

                     79                     80                     81
                      A                      A                      A
 Frequencies --   3083.4411              3092.3559              3099.7460
 Red. masses --      1.0322                 1.0897                 1.0894
 Frc consts  --      5.7818                 6.1394                 6.1671
 IR Inten    --     26.8166                74.1881                28.3192

                     82                     83                     84
                      A                      A                      A
 Frequencies --   3163.8489              3172.3314              3181.5543
 Red. masses --      1.1002                 1.1061                 1.1067
 Frc consts  --      6.4889                 6.5582                 6.6002
 IR Inten    --     20.2787                 4.4060                 7.1134

                     85                     86                     87
                      A                      A                      A
 Frequencies --   3185.5585              3199.7435              3203.1399
 Red. masses --      1.0976                 1.0860                 1.0852
 Frc consts  --      6.5622                 6.5508                 6.5599
 IR Inten    --     13.1081                 2.9357                 6.4256

                     88                     89                     90
                      A                      A                      A
 Frequencies --   3207.1757              3216.2778              3225.6474
 Red. masses --      1.0888                 1.0931                 1.0973
 Frc consts  --      6.5984                 6.6621                 6.7271
 IR Inten    --      6.7594                30.1158                16.5990

                     91                     92                     93
                      A                      A                      A
 Frequencies --   3237.6431              3501.3261              3576.1419
 Red. masses --      1.0931                 1.0523                 1.0958
 Frc consts  --      6.7509                 7.6004                 8.2566
 IR Inten    --      5.5103                35.0040                70.4854

 - Thermochemistry -
 -------------------
 Temperature   298.150 Kelvin.  Pressure   1.00000 Atm.
 Atom     1 has atomic number  6 and mass  12.00000

 Molecular mass:   240.10294 amu.
 Principal axes and moments of inertia in atomic units:
                           1         2         3
     Eigenvalues --  2010.526076310.972396516.89505
           X            0.99993  -0.01140   0.00171
           Y            0.01137   0.95196  -0.30600
           Z            0.00186   0.30600   0.95203
 This molecule is an asymmetric top.
 Rotational symmetry number  1.
 Warning -- assumption of classical behavior for rotation
           may cause significant error
 Rotational temperatures (Kelvin)      0.04308     0.01372     0.01329
 Rotational constants (GHZ):           0.89765     0.28597     0.27693
    1 imaginary frequencies ignored.
 Zero-point vibrational energy     726127.2 (Joules/Mol)
                                  173.54857 (Kcal/Mol)
 Warning -- explicit consideration of  25 degrees of freedom as
           vibrations may cause significant error
 Vibrational temperatures:     32.98    51.65    97.87   108.38   144.29
          (Kelvin)            170.22   216.00   239.50   277.09   283.63
                              297.24   314.04   344.94   405.28   414.87
                              440.62   501.17   534.97   597.14   603.08
                              635.23   682.04   816.55   854.66   883.58
                              920.08   949.45  1022.70  1036.36  1080.52
                             1128.87  1177.05  1190.71  1252.74  1327.60
                             1385.87  1457.15  1467.27  1476.82  1479.15
                             1487.86  1529.79  1537.57  1561.33  1590.28
                             1614.96  1628.29  1687.48  1708.17  1717.30
                             1751.62  1758.88  1833.07  1849.79  1867.30
                             1909.80  1931.13  1962.34  2022.70  2078.07
                             2085.98  2106.07  2118.26  2128.27  2149.52
                             2152.28  2154.95  2157.65  2157.96  2194.21
                             2225.90  2330.67  2356.90  2379.91  2410.36
                             4332.00  4339.07  4436.38  4449.21  4459.84
                             4552.07  4564.28  4577.55  4583.31  4603.72
                             4608.60  4614.41  4627.51  4640.99  4658.25
                             5037.63  5145.27

 Zero-point correction=                           0.276567 (Hartree/Particle)
 Thermal correction to Energy=                    0.293244
 Thermal correction to Enthalpy=                  0.294188
 Thermal correction to Gibbs Free Energy=         0.231277
 Sum of electronic and zero-point Energies=          -1112.152382
 Sum of electronic and thermal Energies=             -1112.135705
 Sum of electronic and thermal Enthalpies=           -1112.134761
 Sum of electronic and thermal Free Energies=        -1112.197673

                     E (Thermal)             CV                S
                      KCal/Mol        Cal/Mol-Kelvin    Cal/Mol-Kelvin
 Total                  184.014             61.614            132.409
 Electronic               0.000              0.000              0.000
 Translational            0.889              2.981             42.329
 Rotational               0.889              2.981             32.780
 Vibrational            182.236             55.653             57.300
 Vibration     1          0.593              1.985              6.363
 Vibration     2          0.594              1.982              5.474
 Vibration     3          0.598              1.969              4.210
 Vibration     4          0.599              1.965              4.009
 Vibration     5          0.604              1.949              3.449
 Vibration     6          0.608              1.934              3.128
 Vibration     7          0.618              1.903              2.671
 Vibration     8          0.624              1.884              2.475
 Vibration     9          0.635              1.850              2.203
 Vibration    10          0.637              1.844              2.160
 Vibration    11          0.641              1.830              2.074
 Vibration    12          0.646              1.813              1.973
 Vibration    13          0.657              1.780              1.805
 Vibration    14          0.681              1.708              1.523
 Vibration    15          0.685              1.695              1.484
 Vibration    16          0.697              1.662              1.383
 Vibration    17          0.726              1.579              1.174
 Vibration    18          0.744              1.530              1.072
 Vibration    19          0.778              1.438              0.909
 Vibration    20          0.782              1.429              0.895
 Vibration    21          0.801              1.380              0.822
 Vibration    22          0.831              1.308              0.726
 Vibration    23          0.923              1.101              0.509
 Vibration    24          0.952              1.045              0.460
 Vibration    25          0.974              1.002              0.426

 Optimization completed.
    -- Stationary point found.
 Normal termination of Gaussian 16 at Sun Feb  7 16:21:06 2021.
