 Gaussian 16, Revision A.03,
 Gaussian 16:  ES64L-G16RevA.03 25-Dec-2016

 ----------------------------------------------------------------------
 # wB97XD def2tzvp, opt=(ts, noeigen, calcfc, maxcycles=70, maxstep=3),
  freq=noraman, scrf=(iefpcm, solvent=water)
 ----------------------------------------------------------------------

 ------------------------
 0_iteration/TS-158-0.out
 ------------------------
 Symbolic Z-matrix:
 Charge =  0 Multiplicity = 1

 SCF Done:  E(RwB97XD) =  -3686.04745377     A.U. after   15 cycles
 SCF Done:  E(RwB97XD) =  -3686.04745286     A.U. after   11 cycles
 SCF Done:  E(RwB97XD) =  -3686.04746634     A.U. after    9 cycles
 SCF Done:  E(RwB97XD) =  -3686.04751855     A.U. after   10 cycles
 SCF Done:  E(RwB97XD) =  -3686.04767501     A.U. after   10 cycles
 SCF Done:  E(RwB97XD) =  -3686.04790291     A.U. after   10 cycles
 SCF Done:  E(RwB97XD) =  -3686.04816124     A.U. after   10 cycles
 SCF Done:  E(RwB97XD) =  -3686.04843134     A.U. after   10 cycles
 SCF Done:  E(RwB97XD) =  -3686.04868306     A.U. after   11 cycles
 SCF Done:  E(RwB97XD) =  -3686.04889272     A.U. after   11 cycles
 SCF Done:  E(RwB97XD) =  -3686.04905166     A.U. after   11 cycles
 SCF Done:  E(RwB97XD) =  -3686.04914845     A.U. after   11 cycles
 SCF Done:  E(RwB97XD) =  -3686.04917480     A.U. after   10 cycles
 SCF Done:  E(RwB97XD) =  -3686.04917563     A.U. after    9 cycles
 SCF Done:  E(RwB97XD) =  -3686.04917568     A.U. after    6 cycles
 Optimization completed.
    -- Stationary point found.
 Normal termination of Gaussian 16 at Sun Mar 28 11:47:51 2021.

 ---------------------------------------------------------------------
 #N Geom=AllCheck Guess=TCheck SCRF=Check GenChk RwB97XD/def2TZVP Freq
 ---------------------------------------------------------------------

 Structure from the checkpoint file:  "/beegfs/scratch/user/q/tla25/Gau-94746.chk"
 ------------------------
 0_iteration/TS-158-0.out
 ------------------------
 Charge =  0 Multiplicity = 1

                         Standard orientation:
 ---------------------------------------------------------------------
 Center     Atomic      Atomic             Coordinates (Angstroms)
 Number     Number       Type             X           Y           Z
 ---------------------------------------------------------------------
      1          6           0       -0.779124    0.509536    0.144776
      2          6           0       -2.150684   -0.005247    0.212392
      3          8           0       -2.382985   -1.114968    0.722497
      4          6           0        0.318255   -0.336062    0.121503
      5          6           0        0.264737   -0.659549    2.930845
      6          1           0       -0.049694   -1.280619    3.769952
      7          1           0        1.255210   -0.257904    3.131508
      8          1           0       -0.436682    0.165974    2.822315
      9          7           0        0.264638   -1.424338    1.687170
     10          1           0        0.915384   -2.201402    1.695421
     11          1           0       -0.679349   -1.769436    1.501300
     12          6           0        1.709462    0.206216   -0.004695
     13          6           0        1.943809    1.139197   -1.016668
     14          6           0        3.210245    1.651773   -1.228649
     15          6           0        4.272536    1.238211   -0.435615
     16          6           0        4.053284    0.301315    0.559588
     17          6           0        2.782417   -0.216696    0.769664
     18          1           0        1.120552    1.458332   -1.642141
     19          1           0        3.368623    2.375455   -2.017895
     20          1           0        5.264436    1.639630   -0.598569
     21          1           0        4.873194   -0.037719    1.179453
     22          1           0        2.657003   -0.959115    1.542859
     23         35           0        0.146125   -1.870937   -1.144027
     24         17           0       -0.541748    2.163943    0.726246
     25          7           0       -3.161667    0.756163   -0.266086
     26          6           0       -4.530738    0.363734   -0.007771
     27          6           0       -2.985787    1.821077   -1.231804
     28          1           0       -4.581703   -0.214690    0.910378
     29          1           0       -5.143590    1.260336    0.094611
     30          1           0       -4.935112   -0.241510   -0.825095
     31          1           0       -1.970441    1.816789   -1.618447
     32          1           0       -3.672493    1.658171   -2.065735
     33          1           0       -3.197402    2.799428   -0.794119
 ---------------------------------------------------------------------

 SCF Done:  E(RwB97XD) =  -3686.04917569     A.U. after    1 cycles

 The electronic state is 1-A.
 Alpha  occ. eigenvalues -- -483.12666-101.68958 -62.67493 -56.46612 -56.46258
 Alpha  occ. eigenvalues --  -56.46248 -19.21308 -14.48316 -14.46250 -10.40402
 Alpha  occ. eigenvalues --  -10.38737 -10.31727 -10.31647 -10.31068 -10.30888
 Alpha  occ. eigenvalues --  -10.30621 -10.30039 -10.29713 -10.29555 -10.29500
 Alpha  occ. eigenvalues --  -10.29442  -9.57469  -8.81578  -7.32115  -7.31260
 Alpha  occ. eigenvalues --   -7.31232  -6.63720  -6.62605  -6.62571  -2.74097
 Alpha  occ. eigenvalues --   -2.73793  -2.73765  -2.72864  -2.72863  -1.14016
 Alpha  occ. eigenvalues --   -1.04258  -1.03547  -0.98523  -0.95949  -0.91352
 Alpha  occ. eigenvalues --   -0.86025  -0.85828  -0.82789  -0.81413  -0.79503
 Alpha  occ. eigenvalues --   -0.78637  -0.73113  -0.71300  -0.67519  -0.64741
 Alpha  occ. eigenvalues --   -0.62097  -0.60542  -0.58581  -0.57517  -0.57080
 Alpha  occ. eigenvalues --   -0.56345  -0.55654  -0.54993  -0.53287  -0.52369
 Alpha  occ. eigenvalues --   -0.51399  -0.51038  -0.48792  -0.48716  -0.48516
 Alpha  occ. eigenvalues --   -0.47941  -0.47455  -0.46504  -0.45778  -0.44928
 Alpha  occ. eigenvalues --   -0.43806  -0.43016  -0.41506  -0.40087  -0.38081
 Alpha  occ. eigenvalues --   -0.37119  -0.35075  -0.34292  -0.33129  -0.32308
 Alpha  occ. eigenvalues --   -0.26966
 Alpha virt. eigenvalues --    0.01458   0.04064   0.04802   0.07683   0.09873
 Alpha virt. eigenvalues --    0.10927   0.12237   0.13748   0.14760   0.14878
 Alpha virt. eigenvalues --    0.15987   0.16913   0.17189   0.17836   0.18088

 Mulliken charges:
               1
     1  C   -0.364938
     2  C    0.367959
     3  O   -0.561274
     4  C    0.263306
     5  C   -0.292491
     6  H    0.156081
     7  H    0.150384
     8  H    0.155439
     9  N   -0.321647
    10  H    0.283348
    11  H    0.282016
    12  C    0.194222
    13  C   -0.289421
    14  C   -0.127110
    15  C   -0.142907
    16  C   -0.161027
    17  C   -0.227701
    18  H    0.174000
    19  H    0.145578
    20  H    0.147289
    21  H    0.145920
    22  H    0.152503
    23  Br  -0.142444
    24  Cl  -0.159347
    25  N   -0.100361
    26  C   -0.292820
    27  C   -0.304527
    28  H    0.141904
    29  H    0.141367
    30  H    0.139082
    31  H    0.164481
    32  H    0.139893
    33  H    0.143243
 Sum of Mulliken charges =  -0.00000

 Dipole moment (field-independent basis, Debye):
    X=              2.2200    Y=              0.2646    Z=              2.3083  Tot=              3.2135
 Quadrupole moment (field-independent basis, Debye-Ang):
   XX=           -104.3001   YY=           -121.4025   ZZ=           -110.4015
   XY=             -7.7023   XZ=              8.4429   YZ=            -12.6212

  Exact polarizability: 314.463  -2.567 270.802  18.963 -22.238 244.106
 Approx polarizability: 236.558  -0.174 229.084  13.636 -19.936 207.603

 ******    1 imaginary frequencies (negative Signs) ******

                      1                      2                      3
                      A                      A                      A
 Frequencies --   -383.2541                40.4774                53.1605
 Red. masses --      5.5298                 3.9561                 4.4304
 Frc consts  --      0.4786                 0.0038                 0.0074
 IR Inten    --    643.4844                 1.4348                 3.1006

                      4                      5                      6
                      A                      A                      A
 Frequencies --     67.7647                71.2652                97.5386
 Red. masses --      4.9756                 4.8956                 4.0880
 Frc consts  --      0.0135                 0.0146                 0.0229
 IR Inten    --      2.8766                 0.8976                 0.9087

                      7                      8                      9
                      A                      A                      A
 Frequencies --    115.3088               118.5925               141.4828
 Red. masses --      1.8466                 1.6034                 4.7759
 Frc consts  --      0.0145                 0.0133                 0.0563
 IR Inten    --      0.1430                 0.6019                11.2875

                     10                     11                     12
                      A                      A                      A
 Frequencies --    149.7595               167.9822               172.7946
 Red. masses --      3.9301                 2.6905                 1.7722
 Frc consts  --      0.0519                 0.0447                 0.0312
 IR Inten    --      2.4271                 4.4253                 2.7486

                     13                     14                     15
                      A                      A                      A
 Frequencies --    174.8165               208.7845               231.6677
 Red. masses --      1.6709                 3.5292                 2.5106
 Frc consts  --      0.0301                 0.0906                 0.0794
 IR Inten    --      2.8536                12.2481                 2.9893

                     16                     17                     18
                      A                      A                      A
 Frequencies --    241.4428               256.3164               266.7495
 Red. masses --      6.4547                 6.0460                 3.3257
 Frc consts  --      0.2217                 0.2340                 0.1394
 IR Inten    --      6.5930                 5.8219                 8.8835

                     19                     20                     21
                      A                      A                      A
 Frequencies --    272.8599               299.1904               312.7499
 Red. masses --      2.6272                 5.2423                 3.3852
 Frc consts  --      0.1152                 0.2765                 0.1951
 IR Inten    --      3.3311                24.4870                37.7144

                     22                     23                     24
                      A                      A                      A
 Frequencies --    375.2108               420.0972               426.7546
 Red. masses --      4.0982                 3.0385                 2.9389
 Frc consts  --      0.3399                 0.3159                 0.3154
 IR Inten    --     42.4808                 3.1598                 1.7823

                     25                     26                     27
                      A                      A                      A
 Frequencies --    492.2026               519.7217               567.2006
 Red. masses --      5.2519                 3.8335                 5.6078
 Frc consts  --      0.7496                 0.6101                 1.0630
 IR Inten    --     14.1236                19.2097               181.5506

                     28                     29                     30
                      A                      A                      A
 Frequencies --    603.9454               639.9070               680.1513
 Red. masses --      5.0620                 6.4772                 5.4832
 Frc consts  --      1.0878                 1.5627                 1.4945
 IR Inten    --     25.7584                11.5998                19.8969

                     31                     32                     33
                      A                      A                      A
 Frequencies --    687.2860               724.7084               749.3993
 Red. masses --      3.0088                 1.7905                 1.9968
 Frc consts  --      0.8374                 0.5540                 0.6607
 IR Inten    --    181.0562                44.6249               241.9562

                     34                     35                     36
                      A                      A                      A
 Frequencies --    786.1430               812.4118               835.4657
 Red. masses --      4.3743                 2.4256                 5.4291
 Frc consts  --      1.5928                 0.9432                 2.2327
 IR Inten    --     39.3675                18.7657                34.4400

                     37                     38                     39
                      A                      A                      A
 Frequencies --    875.7949               956.8729               965.9725
 Red. masses --      1.2430                 3.1235                 1.5984
 Frc consts  --      0.5617                 1.6850                 0.8787
 IR Inten    --      0.2674                 4.2149                 2.0516

                     40                     41                     42
                      A                      A                      A
 Frequencies --   1006.1728              1016.1739              1026.1701
 Red. masses --      1.1455                 1.3384                 5.5849
 Frc consts  --      0.6833                 0.8143                 3.4650
 IR Inten    --     53.7503                 8.8958                 1.2832

                     43                     44                     45
                      A                      A                      A
 Frequencies --   1033.8994              1056.0745              1066.8818
 Red. masses --      1.3141                 2.7067                 2.2053
 Frc consts  --      0.8276                 1.7786                 1.4789
 IR Inten    --      0.2733                87.7546                20.5496

                     46                     47                     48
                      A                      A                      A
 Frequencies --   1076.0737              1087.4356              1115.4310
 Red. masses --      4.1152                 1.3773                 1.2883
 Frc consts  --      2.8075                 0.9596                 0.9444
 IR Inten    --     25.0454                17.2666                72.0778

                     49                     50                     51
                      A                      A                      A
 Frequencies --   1125.8001              1132.6413              1170.9756
 Red. masses --      1.5584                 1.2301                 1.4159
 Frc consts  --      1.1638                 0.9298                 1.1439
 IR Inten    --     18.5508                 0.4698                 4.9651

                     52                     53                     54
                      A                      A                      A
 Frequencies --   1186.9202              1200.0822              1218.9709
 Red. masses --      1.1377                 3.2522                 1.1292
 Frc consts  --      0.9443                 2.7596                 0.9885
 IR Inten    --      0.0597                30.6401                 3.3493

                     55                     56                     57
                      A                      A                      A
 Frequencies --   1226.7594              1245.4134              1315.5133
 Red. masses --      2.9576                 1.4689                 5.2425
 Frc consts  --      2.6225                 1.3424                 5.3454
 IR Inten    --    293.4746                52.8418                35.6935

                     58                     59                     60
                      A                      A                      A
 Frequencies --   1321.4254              1362.6840              1369.2129
 Red. masses --      4.6518                 1.4190                 1.2847
 Frc consts  --      4.7858                 1.5525                 1.4191
 IR Inten    --     20.2673                 2.2695                36.0262

                     61                     62                     63
                      A                      A                      A
 Frequencies --   1432.7821              1444.0912              1447.3406
 Red. masses --      2.1719                 1.3409                 1.8777
 Frc consts  --      2.6270                 1.6475                 2.3174
 IR Inten    --    784.6133               125.2992                20.7578

                     64                     65                     66
                      A                      A                      A
 Frequencies --   1469.7465              1473.0595              1483.6548
 Red. masses --      1.3731                 1.2392                 1.0904
 Frc consts  --      1.7476                 1.5843                 1.4142
 IR Inten    --     80.2234                36.6404                 4.4347

                     67                     68                     69
                      A                      A                      A
 Frequencies --   1488.6519              1491.2694              1492.2113
 Red. masses --      1.1587                 1.1113                 1.7047
 Frc consts  --      1.5129                 1.4562                 2.2365
 IR Inten    --     39.8226                25.8901                16.5980

                     70                     71                     72
                      A                      A                      A
 Frequencies --   1501.8426              1507.7566              1537.7176
 Red. masses --      1.0545                 1.0364                 1.7745
 Frc consts  --      1.4013                 1.3881                 2.4722
 IR Inten    --     20.2600                 7.3226               221.0670

                     73                     74                     75
                      A                      A                      A
 Frequencies --   1546.7675              1614.5238              1650.3685
 Red. masses --      2.4362                 2.1477                 3.0967
 Frc consts  --      3.4341                 3.2985                 4.9695
 IR Inten    --     14.4999               681.7841                44.4206

                     76                     77                     78
                      A                      A                      A
 Frequencies --   1658.1652              1675.3854              3035.7634
 Red. masses --      2.1771                 5.7740                 1.0434
 Frc consts  --      3.5269                 9.5490                 5.6655
 IR Inten    --     75.7600                 1.2462                76.4311

                     79                     80                     81
                      A                      A                      A
 Frequencies --   3044.4678              3074.3316              3101.1978
 Red. masses --      1.0378                 1.0348                 1.1022
 Frc consts  --      5.6677                 5.7624                 6.2456
 IR Inten    --    104.2765                42.9504                66.2880

                     82                     83                     84
                      A                      A                      A
 Frequencies --   3108.8807              3152.3058              3171.3746
 Red. masses --      1.0982                 1.1027                 1.0996
 Frc consts  --      6.2535                 6.4560                 6.5161
 IR Inten    --     16.0171                13.5050                12.5209

                     85                     86                     87
                      A                      A                      A
 Frequencies --   3175.4459              3175.8265              3200.3190
 Red. masses --      1.1002                 1.1053                 1.0863
 Frc consts  --      6.5364                 6.5680                 6.5551
 IR Inten    --      9.8587                17.1517                 0.1998

                     88                     89                     90
                      A                      A                      A
 Frequencies --   3209.1336              3218.5465              3226.1541
 Red. masses --      1.0897                 1.0937                 1.0977
 Frc consts  --      6.6118                 6.6750                 6.7316
 IR Inten    --      7.3125                21.9816                16.6741

                     91                     92                     93
                      A                      A                      A
 Frequencies --   3248.5455              3399.8456              3573.3457
 Red. masses --      1.0920                 1.0640                 1.0856
 Frc consts  --      6.7899                 7.2461                 8.1675
 IR Inten    --     13.0860               170.0572                79.9694

 - Thermochemistry -
 -------------------
 Temperature   298.150 Kelvin.  Pressure   1.00000 Atm.
 Atom     1 has atomic number  6 and mass  12.00000

 Molecular mass:   318.01345 amu.
 Principal axes and moments of inertia in atomic units:
                           1         2         3
     Eigenvalues --  3732.141966907.930517895.48102
           X            0.99990  -0.00272   0.01370
           Y            0.00515   0.98358  -0.18042
           Z           -0.01298   0.18048   0.98349
 This molecule is an asymmetric top.
 Rotational symmetry number  1.
 Warning -- assumption of classical behavior for rotation
           may cause significant error
 Rotational temperatures (Kelvin)      0.02321     0.01254     0.01097
 Rotational constants (GHZ):           0.48357     0.26126     0.22858
    1 imaginary frequencies ignored.
 Zero-point vibrational energy     699644.8 (Joules/Mol)
                                  167.21913 (Kcal/Mol)
 Warning -- explicit consideration of  27 degrees of freedom as
           vibrations may cause significant error
 Vibrational temperatures:     58.24    76.49    97.50   102.53   140.34
          (Kelvin)            165.90   170.63   203.56   215.47   241.69
                              248.61   251.52   300.39   333.32   347.38
                              368.78   383.79   392.58   430.47   449.98
                              539.84   604.43   614.00   708.17   747.76
                              816.08   868.94   920.68   978.59   988.85
                             1042.69  1078.22  1131.08  1168.88  1202.05
                             1260.07  1376.73  1389.82  1447.66  1462.05
                             1476.43  1487.55  1519.46  1535.00  1548.23
                             1564.58  1604.86  1619.78  1629.62  1684.77
                             1707.71  1726.65  1753.83  1765.03  1791.87
                             1892.73  1901.24  1960.60  1969.99  2061.45
                             2077.73  2082.40  2114.64  2119.40  2134.65
                             2141.84  2145.60  2146.96  2160.82  2169.33
                             2212.43  2225.45  2322.94  2374.51  2385.73
                             2410.51  4367.79  4380.31  4423.28  4461.93
                             4472.99  4535.46  4562.90  4568.76  4569.31
                             4604.55  4617.23  4630.77  4641.72  4673.93
                             4891.62  5141.25

 Zero-point correction=                           0.266481 (Hartree/Particle)
 Thermal correction to Energy=                    0.284793
 Thermal correction to Enthalpy=                  0.285737
 Thermal correction to Gibbs Free Energy=         0.219269
 Sum of electronic and zero-point Energies=          -3685.782695
 Sum of electronic and thermal Energies=             -3685.764382
 Sum of electronic and thermal Enthalpies=           -3685.763438
 Sum of electronic and thermal Free Energies=        -3685.829907

                     E (Thermal)             CV                S
                      KCal/Mol        Cal/Mol-Kelvin    Cal/Mol-Kelvin
 Total                  178.710             65.826            139.895
 Electronic               0.000              0.000              0.000
 Translational            0.889              2.981             43.167
 Rotational               0.889              2.981             33.676
 Vibrational            176.933             59.865             63.053
 Vibration     1          0.594              1.981              5.236
 Vibration     2          0.596              1.976              4.696
 Vibration     3          0.598              1.970              4.217
 Vibration     4          0.598              1.968              4.118
 Vibration     5          0.603              1.951              3.503
 Vibration     6          0.608              1.937              3.178
 Vibration     7          0.609              1.934              3.123
 Vibration     8          0.615              1.912              2.784
 Vibration     9          0.618              1.903              2.675
 Vibration    10          0.625              1.882              2.458
 Vibration    11          0.626              1.876              2.405
 Vibration    12          0.627              1.873              2.383
 Vibration    13          0.642              1.827              2.054
 Vibration    14          0.653              1.793              1.866
 Vibration    15          0.658              1.777              1.792
 Vibration    16          0.666              1.752              1.687
 Vibration    17          0.672              1.734              1.617
 Vibration    18          0.676              1.723              1.578
 Vibration    19          0.692              1.675              1.421
 Vibration    20          0.701              1.649              1.348
 Vibration    21          0.746              1.523              1.058
 Vibration    22          0.783              1.427              0.892
 Vibration    23          0.788              1.412              0.869
 Vibration    24          0.848              1.267              0.678
 Vibration    25          0.875              1.206              0.611
 Vibration    26          0.923              1.102              0.510
 Vibration    27          0.962              1.023              0.443

 Optimization completed.
    -- Stationary point found.
 Normal termination of Gaussian 16 at Sun Mar 28 13:21:43 2021.
