 Gaussian 16, Revision A.03,
 Gaussian 16:  ES64L-G16RevA.03 25-Dec-2016

 ----------------------------------------------------------------------
 # wB97XD def2tzvp, opt=(ts, noeigen, calcfc, maxcycles=70, maxstep=5),
  freq=noraman, scrf=(iefpcm, solvent=water)
 ----------------------------------------------------------------------

 ------------------------
 2_iteration/TS-176-2.out
 ------------------------
 Symbolic Z-matrix:
 Charge =  0 Multiplicity = 1

 SCF Done:  E(RwB97XD) =  -1209.50561612     A.U. after   15 cycles
 SCF Done:  E(RwB97XD) =  -1209.50561610     A.U. after    6 cycles
 Optimization completed.
    -- Stationary point found.
 Normal termination of Gaussian 16 at Sun Feb  7 14:22:29 2021.

 ---------------------------------------------------------------------
 #N Geom=AllCheck Guess=TCheck SCRF=Check GenChk RwB97XD/def2TZVP Freq
 ---------------------------------------------------------------------

 Structure from the checkpoint file:  "/beegfs/scratch/user/q/tla25/Gau-55146.chk"
 ------------------------
 2_iteration/TS-176-2.out
 ------------------------
 Charge =  0 Multiplicity = 1

                         Standard orientation:
 ---------------------------------------------------------------------
 Center     Atomic      Atomic             Coordinates (Angstroms)
 Number     Number       Type             X           Y           Z
 ---------------------------------------------------------------------
      1          6           0       -0.327870    0.093166   -0.131602
      2          6           0       -1.512848   -0.696047   -0.085383
      3          8           0       -1.515445   -1.934294   -0.034952
      4          6           0        0.950889   -0.422564   -0.294101
      5          6           0        2.528139   -2.319539    1.447720
      6          1           0        3.323809   -1.579149    1.526208
      7          1           0        2.545406   -2.955198    2.335305
      8          1           0        2.707862   -2.936350    0.568967
      9          7           0        1.253723   -1.633847    1.294293
     10          1           0        0.468653   -2.262688    1.154814
     11          1           0        1.045651   -1.030547    2.080331
     12          6           0        2.125662    0.484210   -0.137611
     13          6           0        2.135252    1.371988    0.940505
     14          6           0        3.197018    2.236928    1.134394
     15          6           0        4.271137    2.230866    0.254297
     16          6           0        4.272533    1.350303   -0.814710
     17          6           0        3.210419    0.477992   -1.007206
     18          1           0        1.308861    1.380890    1.639826
     19          1           0        3.187729    2.914534    1.978303
     20          1           0        5.102907    2.906770    0.405661
     21          1           0        5.104719    1.336107   -1.506683
     22          1           0        3.227769   -0.203151   -1.845486
     23         17           0        1.173288   -1.705785   -1.507351
     24          1           0       -0.393790    1.138638    0.129077
     25          6           0       -2.830259    0.030358   -0.036537
     26          6           0       -2.999263    1.300020   -0.583607
     27          6           0       -4.235308    1.927665   -0.538618
     28          6           0       -5.314493    1.296716    0.063553
     29          6           0       -5.155168    0.030666    0.611717
     30          6           0       -3.922702   -0.599303    0.554681
     31          1           0       -2.166818    1.795315   -1.067260
     32          1           0       -4.356461    2.909973   -0.977522
     33          1           0       -6.278267    1.788670    0.102949
     34          1           0       -5.994185   -0.465383    1.083361
     35          1           0       -3.791077   -1.589351    0.971729
 ---------------------------------------------------------------------

 SCF Done:  E(RwB97XD) =  -1209.50561610     A.U. after    1 cycles

 The electronic state is 1-A.
 Alpha  occ. eigenvalues -- -101.69684 -19.21286 -14.47112 -10.40523 -10.35924
 Alpha  occ. eigenvalues --  -10.31573 -10.31332 -10.30036 -10.29861 -10.29717
 Alpha  occ. eigenvalues --  -10.29660 -10.29594 -10.29591 -10.29348 -10.29308
 Alpha  occ. eigenvalues --  -10.29142 -10.29125 -10.29054 -10.26135  -9.58290
 Alpha  occ. eigenvalues --   -7.32925  -7.32084  -7.32029  -1.11950  -1.03212
 Alpha  occ. eigenvalues --   -0.98856  -0.96715  -0.95962  -0.88476  -0.86821
 Alpha  occ. eigenvalues --   -0.85924  -0.85279  -0.83729  -0.78358  -0.75657
 Alpha  occ. eigenvalues --   -0.71827  -0.71105  -0.70319  -0.67278  -0.63968
 Alpha  occ. eigenvalues --   -0.62483  -0.61056  -0.60463  -0.56881  -0.56459
 Alpha  occ. eigenvalues --   -0.56134  -0.55197  -0.54334  -0.54231  -0.53139
 Alpha  occ. eigenvalues --   -0.51826  -0.51422  -0.51213  -0.51089  -0.48539
 Alpha  occ. eigenvalues --   -0.47847  -0.47500  -0.47327  -0.45882  -0.44695
 Alpha  occ. eigenvalues --   -0.44231  -0.43779  -0.43339  -0.42608  -0.39856
 Alpha  occ. eigenvalues --   -0.38707  -0.34542  -0.34186  -0.33990  -0.33766
 Alpha  occ. eigenvalues --   -0.32602  -0.28704
 Alpha virt. eigenvalues --   -0.00687   0.03668   0.04596   0.05161   0.08352
 Alpha virt. eigenvalues --    0.09262   0.10946   0.13273   0.13495   0.14032
 Alpha virt. eigenvalues --    0.15341   0.15761   0.16354   0.16962   0.17147

 Mulliken charges:
               1
     1  C   -0.454448
     2  C    0.337142
     3  O   -0.524227
     4  C    0.270672
     5  C   -0.274777
     6  H    0.151328
     7  H    0.150149
     8  H    0.144675
     9  N   -0.363982
    10  H    0.274736
    11  H    0.268246
    12  C    0.119871
    13  C   -0.265489
    14  C   -0.150114
    15  C   -0.133304
    16  C   -0.135442
    17  C   -0.223796
    18  H    0.175142
    19  H    0.147801
    20  H    0.148751
    21  H    0.147097
    22  H    0.144766
    23  Cl  -0.106391
    24  H    0.178173
    25  C    0.136770
    26  C   -0.245158
    27  C   -0.146405
    28  C   -0.135738
    29  C   -0.130861
    30  C   -0.234103
    31  H    0.155980
    32  H    0.143615
    33  H    0.146205
    34  H    0.143376
    35  H    0.139739
 Sum of Mulliken charges =  -0.00000

 Dipole moment (field-independent basis, Debye):
    X=              5.0990    Y=              2.7511    Z=              4.6175  Tot=              7.4088
 Quadrupole moment (field-independent basis, Debye-Ang):
   XX=            -99.9064   YY=           -114.7834   ZZ=           -112.9637
   XY=             -6.8985   XZ=              1.1498   YZ=             -6.1512

  Exact polarizability: 401.661   3.796 290.536 -13.002  -3.367 236.870
 Approx polarizability: 281.395   5.676 245.935 -15.193  -0.061 207.671

 ******    1 imaginary frequencies (negative Signs) ******

                      1                      2                      3
                      A                      A                      A
 Frequencies --   -371.6024                37.5068                38.9318
 Red. masses --      5.9183                 4.9947                 3.9339
 Frc consts  --      0.4815                 0.0041                 0.0035
 IR Inten    --    852.0509                 3.4061                 0.2183

                      4                      5                      6
                      A                      A                      A
 Frequencies --     45.0692                63.1716                66.6129
 Red. masses --      4.9659                 3.7459                 3.0928
 Frc consts  --      0.0059                 0.0088                 0.0081
 IR Inten    --      0.5100                 0.5767                 8.3510

                      7                      8                      9
                      A                      A                      A
 Frequencies --    110.5832               119.9669               139.5535
 Red. masses --      7.2595                 1.9016                 5.0044
 Frc consts  --      0.0523                 0.0161                 0.0574
 IR Inten    --     16.9244                 4.0262                 2.5748

                     10                     11                     12
                      A                      A                      A
 Frequencies --    162.3010               176.4219               194.6642
 Red. masses --      1.8191                 4.2314                 4.9422
 Frc consts  --      0.0282                 0.0776                 0.1103
 IR Inten    --      2.7748                 3.1111                 0.9266

                     13                     14                     15
                      A                      A                      A
 Frequencies --    226.3113               258.9116               266.5923
 Red. masses --      3.4846                 3.4746                 5.7759
 Frc consts  --      0.1052                 0.1372                 0.2419
 IR Inten    --     30.7908                 3.5664                 1.6337

                     16                     17                     18
                      A                      A                      A
 Frequencies --    309.8277               338.4494               373.4271
 Red. masses --      7.2513                 4.9661                 5.6079
 Frc consts  --      0.4101                 0.3352                 0.4607
 IR Inten    --     16.2284                14.1337                 5.9415

                     19                     20                     21
                      A                      A                      A
 Frequencies --    409.2201               422.0063               422.9078
 Red. masses --      5.6508                 2.9258                 2.9105
 Frc consts  --      0.5575                 0.3070                 0.3067
 IR Inten    --     20.5249                 0.2680                 0.9520

                     22                     23                     24
                      A                      A                      A
 Frequencies --    451.3314               500.5594               557.9916
 Red. masses --      4.6933                 4.6343                 3.0670
 Frc consts  --      0.5633                 0.6841                 0.5626
 IR Inten    --     67.0764                20.2504               139.4675

                     25                     26                     27
                      A                      A                      A
 Frequencies --    594.7032               634.9381               636.1173
 Red. masses --      5.0872                 4.7264                 6.3094
 Frc consts  --      1.0601                 1.1227                 1.5042
 IR Inten    --     32.3503                 3.2801                 1.3492

                     28                     29                     30
                      A                      A                      A
 Frequencies --    644.1905               683.8087               694.0281
 Red. masses --      2.1049                 1.5869                 4.4329
 Frc consts  --      0.5146                 0.4372                 1.2580
 IR Inten    --      6.1633               101.2607                14.1560

                     31                     32                     33
                      A                      A                      A
 Frequencies --    719.4549               724.7185               728.2631
 Red. masses --      2.8655                 1.7023                 1.5925
 Frc consts  --      0.8739                 0.5268                 0.4976
 IR Inten    --     44.0923                62.4897                42.9031

                     34                     35                     36
                      A                      A                      A
 Frequencies --    752.6284               799.3985               833.0366
 Red. masses --      2.0707                 2.0479                 3.1551
 Frc consts  --      0.6911                 0.7710                 1.2900
 IR Inten    --    289.8159                12.8499                28.7074

                     37                     38                     39
                      A                      A                      A
 Frequencies --    837.1048               878.5852               882.9777
 Red. masses --      5.2092                 1.2465                 1.2475
 Frc consts  --      2.1507                 0.5669                 0.5730
 IR Inten    --     36.0199                 1.4170                 0.5651

                     40                     41                     42
                      A                      A                      A
 Frequencies --    956.0406               970.2152               973.2248
 Red. masses --      2.8411                 1.5399                 1.4796
 Frc consts  --      1.5300                 0.8540                 0.8257
 IR Inten    --    134.3585                13.3242                 3.7152

                     43                     44                     45
                      A                      A                      A
 Frequencies --   1007.1931              1008.0962              1019.2175
 Red. masses --      1.2663                 1.1518                 1.3875
 Frc consts  --      0.7569                 0.6896                 0.8492
 IR Inten    --     85.8928                31.0284                 2.0358

                     46                     47                     48
                      A                      A                      A
 Frequencies --   1021.6212              1026.0032              1026.3236
 Red. masses --      1.3280                 5.7732                 5.7986
 Frc consts  --      0.8166                 3.5807                 3.5987
 IR Inten    --      8.7637                 4.6950                 1.4817

                     49                     50                     51
                      A                      A                      A
 Frequencies --   1033.8914              1037.7615              1058.3560
 Red. masses --      1.3162                 1.3196                 2.3194
 Frc consts  --      0.8290                 0.8373                 1.5307
 IR Inten    --      1.3578                 1.3328                16.9269

                     52                     53                     54
                      A                      A                      A
 Frequencies --   1065.7615              1084.5333              1101.3278
 Red. masses --      2.1619                 4.7169                 2.1666
 Frc consts  --      1.4468                 3.2689                 1.5483
 IR Inten    --     26.0252               118.7097                37.5184

                     55                     56                     57
                      A                      A                      A
 Frequencies --   1114.1472              1125.0855              1183.0315
 Red. masses --      1.7798                 1.6525                 1.1339
 Frc consts  --      1.3017                 1.2324                 0.9350
 IR Inten    --     17.6139                12.1002                 1.8629

                     58                     59                     60
                      A                      A                      A
 Frequencies --   1186.9388              1192.9113              1203.3794
 Red. masses --      1.1311                 1.4271                 1.1756
 Frc consts  --      0.9389                 1.1966                 1.0031
 IR Inten    --      1.8447                48.0053                 7.4836

                     61                     62                     63
                      A                      A                      A
 Frequencies --   1213.1963              1221.0236              1253.5124
 Red. masses --      1.3815                 2.2179                 1.7727
 Frc consts  --      1.1980                 1.9482                 1.6411
 IR Inten    --     44.8602                80.8319               590.3297

                     64                     65                     66
                      A                      A                      A
 Frequencies --   1308.6608              1329.9267              1335.5075
 Red. masses --      3.7507                 3.5103                 1.3699
 Frc consts  --      3.7845                 3.6580                 1.4396
 IR Inten    --      6.9099                11.2275                 4.4205

                     67                     68                     69
                      A                      A                      A
 Frequencies --   1347.5789              1356.1073              1363.5025
 Red. masses --      4.0759                 1.6618                 1.4326
 Frc consts  --      4.3610                 1.8006                 1.5692
 IR Inten    --      1.2544                12.5983                 3.8579

                     70                     71                     72
                      A                      A                      A
 Frequencies --   1455.6452              1480.1240              1490.1654
 Red. masses --      1.2109                 2.4207                 1.0603
 Frc consts  --      1.5117                 3.1246                 1.3872
 IR Inten    --     89.5609               763.0671                16.5148

                     73                     74                     75
                      A                      A                      A
 Frequencies --   1493.0605              1500.1393              1502.4553
 Red. masses --      2.1936                 1.1275                 2.2331
 Frc consts  --      2.8811                 1.4949                 2.9700
 IR Inten    --     16.4412               156.1374               952.4290

                     76                     77                     78
                      A                      A                      A
 Frequencies --   1540.1938              1545.8333              1630.8324
 Red. masses --      2.3057                 2.4133                 7.0239
 Frc consts  --      3.2226                 3.3977                11.0064
 IR Inten    --     22.9128                85.9725               301.9048

                     79                     80                     81
                      A                      A                      A
 Frequencies --   1650.2218              1653.0235              1664.4354
 Red. masses --      1.1390                 4.9937                 6.8326
 Frc consts  --      1.8274                 8.0395                11.1525
 IR Inten    --     64.0852                 9.3102               149.8433

                     82                     83                     84
                      A                      A                      A
 Frequencies --   1673.2563              1674.5793              3056.2868
 Red. masses --      6.0263                 5.9036                 1.0362
 Frc consts  --      9.9409                 9.7539                 5.7025
 IR Inten    --     23.9752                 1.9979                63.5117

                     85                     86                     87
                      A                      A                      A
 Frequencies --   3131.2833              3160.1161              3194.4253
 Red. masses --      1.1015                 1.1047                 1.0858
 Frc consts  --      6.3630                 6.4999                 6.5283
 IR Inten    --     17.5493                13.6322                 1.0324

                     88                     89                     90
                      A                      A                      A
 Frequencies --   3199.3768              3201.9110              3205.9545
 Red. masses --      1.0864                 1.0884                 1.0892
 Frc consts  --      6.5517                 6.5747                 6.5958
 IR Inten    --      1.6299                 4.3443                 3.3312

                     91                     92                     93
                      A                      A                      A
 Frequencies --   3209.9608              3214.7704              3217.7721
 Red. masses --      1.0920                 1.0935                 1.0944
 Frc consts  --      6.6296                 6.6585                 6.6766
 IR Inten    --     17.6907                23.3720                26.6313

                     94                     95                     96
                      A                      A                      A
 Frequencies --   3223.4233              3224.8357              3235.9766
 Red. masses --      1.0981                 1.0977                 1.0880
 Frc consts  --      6.7226                 6.7260                 6.7127
 IR Inten    --     18.7804                18.6796                 1.1312

                     97                     98                     99
                      A                      A                      A
 Frequencies --   3240.4336              3508.6760              3604.0584
 Red. masses --      1.0930                 1.0530                 1.0948
 Frc consts  --      6.7617                 7.6376                 8.3784
 IR Inten    --      4.1636                31.2055                49.0652

 - Thermochemistry -
 -------------------
 Temperature   298.150 Kelvin.  Pressure   1.00000 Atm.
 Atom     1 has atomic number  6 and mass  12.00000

 Molecular mass:   273.09204 amu.
 Principal axes and moments of inertia in atomic units:
                           1         2         3
     Eigenvalues --  2926.546219698.97568**********
           X            0.99998  -0.00403   0.00442
           Y            0.00423   0.99898  -0.04492
           Z           -0.00424   0.04494   0.99898
 This molecule is an asymmetric top.
 Rotational symmetry number  1.
 Warning -- assumption of classical behavior for rotation
           may cause significant error
 Rotational temperatures (Kelvin)      0.02960     0.00893     0.00785
 Rotational constants (GHZ):           0.61668     0.18608     0.16347
    1 imaginary frequencies ignored.
 Zero-point vibrational energy     745534.1 (Joules/Mol)
                                  178.18694 (Kcal/Mol)
 Warning -- explicit consideration of  24 degrees of freedom as
           vibrations may cause significant error
 Vibrational temperatures:     53.96    56.01    64.84    90.89    95.84
          (Kelvin)            159.10   172.61   200.79   233.52   253.83
                              280.08   325.61   372.52   383.57   445.77
                              486.95   537.28   588.78   607.17   608.47
                              649.37   720.19   802.83   855.65   913.53
                              915.23   926.85   983.85   998.55  1035.14
                             1042.71  1047.81  1082.86  1150.16  1198.55
                             1204.41  1264.09  1270.41  1375.53  1395.92
                             1400.25  1449.13  1450.43  1466.43  1469.89
                             1476.19  1476.65  1487.54  1493.11  1522.74
                             1533.39  1560.40  1584.57  1603.01  1618.75
                             1702.12  1707.74  1716.33  1731.39  1745.52
                             1756.78  1803.52  1882.87  1913.47  1921.50
                             1938.87  1951.14  1961.78  2094.35  2129.57
                             2144.02  2148.18  2158.37  2161.70  2216.00
                             2224.11  2346.40  2374.30  2378.33  2394.75
                             2407.44  2409.35  4397.32  4505.22  4546.70
                             4596.07  4603.19  4606.84  4612.65  4618.42
                             4625.34  4629.66  4637.79  4639.82  4655.85
                             4662.26  5048.20  5185.44

 Zero-point correction=                           0.283959 (Hartree/Particle)
 Thermal correction to Energy=                    0.301283
 Thermal correction to Enthalpy=                  0.302227
 Thermal correction to Gibbs Free Energy=         0.237102
 Sum of electronic and zero-point Energies=          -1209.221657
 Sum of electronic and thermal Energies=             -1209.204333
 Sum of electronic and thermal Enthalpies=           -1209.203389
 Sum of electronic and thermal Free Energies=        -1209.268514

                     E (Thermal)             CV                S
                      KCal/Mol        Cal/Mol-Kelvin    Cal/Mol-Kelvin
 Total                  189.058             65.742            137.067
 Electronic               0.000              0.000              0.000
 Translational            0.889              2.981             42.713
 Rotational               0.889              2.981             34.104
 Vibrational            187.280             59.781             60.251
 Vibration     1          0.594              1.982              5.387
 Vibration     2          0.594              1.981              5.313
 Vibration     3          0.595              1.979              5.023
 Vibration     4          0.597              1.972              4.356
 Vibration     5          0.598              1.970              4.251
 Vibration     6          0.606              1.941              3.259
 Vibration     7          0.609              1.933              3.101
 Vibration     8          0.615              1.914              2.810
 Vibration     9          0.622              1.889              2.523
 Vibration    10          0.628              1.871              2.366
 Vibration    11          0.635              1.847              2.183
 Vibration    12          0.650              1.801              1.908
 Vibration    13          0.668              1.748              1.669
 Vibration    14          0.672              1.734              1.618
 Vibration    15          0.699              1.655              1.363
 Vibration    16          0.719              1.599              1.219
 Vibration    17          0.745              1.527              1.066
 Vibration    18          0.774              1.450              0.929
 Vibration    19          0.784              1.422              0.885
 Vibration    20          0.785              1.420              0.882
 Vibration    21          0.810              1.358              0.792
 Vibration    22          0.856              1.249              0.657
 Vibration    23          0.914              1.122              0.528
 Vibration    24          0.952              1.043              0.459

 Optimization completed.
    -- Stationary point found.
 Normal termination of Gaussian 16 at Sun Feb  7 16:08:08 2021.
