 Gaussian 16, Revision A.03,
 Gaussian 16:  ES64L-G16RevA.03 25-Dec-2016

 ----------------------------------------------------------------------
 # wB97XD def2tzvp, opt=(ts, noeigen, calcfc, maxcycles=70, maxstep=8),
  freq=noraman, scrf=(iefpcm, solvent=water)
 ----------------------------------------------------------------------

 ------------------------
 1_iteration/TS-113-1.out
 ------------------------
 Symbolic Z-matrix:
 Charge =  0 Multiplicity = 1

 SCF Done:  E(RwB97XD) =  -1017.76181994     A.U. after   15 cycles
 SCF Done:  E(RwB97XD) =  -1017.76359144     A.U. after   13 cycles
 SCF Done:  E(RwB97XD) =  -1017.76505173     A.U. after   13 cycles
 SCF Done:  E(RwB97XD) =  -1017.76606722     A.U. after   12 cycles
 SCF Done:  E(RwB97XD) =  -1017.76630998     A.U. after   11 cycles
 SCF Done:  E(RwB97XD) =  -1017.76637943     A.U. after   11 cycles
 SCF Done:  E(RwB97XD) =  -1017.76639192     A.U. after   12 cycles
 SCF Done:  E(RwB97XD) =  -1017.76636161     A.U. after   11 cycles
 SCF Done:  E(RwB97XD) =  -1017.76639769     A.U. after   11 cycles
 SCF Done:  E(RwB97XD) =  -1017.76639778     A.U. after   10 cycles
 SCF Done:  E(RwB97XD) =  -1017.76639702     A.U. after   10 cycles
 SCF Done:  E(RwB97XD) =  -1017.76639784     A.U. after   10 cycles
 SCF Done:  E(RwB97XD) =  -1017.76638519     A.U. after   10 cycles
 SCF Done:  E(RwB97XD) =  -1017.76639745     A.U. after   10 cycles
 SCF Done:  E(RwB97XD) =  -1017.76639725     A.U. after    7 cycles
 SCF Done:  E(RwB97XD) =  -1017.76639341     A.U. after   10 cycles
 SCF Done:  E(RwB97XD) =  -1017.76639701     A.U. after   10 cycles
 SCF Done:  E(RwB97XD) =  -1017.76639042     A.U. after   10 cycles
 SCF Done:  E(RwB97XD) =  -1017.76639685     A.U. after   10 cycles
 Optimization completed.
    -- Stationary point found.
 Normal termination of Gaussian 16 at Sun Feb  7 01:57:20 2021.

 ---------------------------------------------------------------------
 #N Geom=AllCheck Guess=TCheck SCRF=Check GenChk RwB97XD/def2TZVP Freq
 ---------------------------------------------------------------------

 Structure from the checkpoint file:  "/beegfs/scratch/user/q/tla25/Gau-46690.chk"
 ------------------------
 1_iteration/TS-113-1.out
 ------------------------
 Charge =  0 Multiplicity = 1

                         Standard orientation:
 ---------------------------------------------------------------------
 Center     Atomic      Atomic             Coordinates (Angstroms)
 Number     Number       Type             X           Y           Z
 ---------------------------------------------------------------------
      1          6           0       -1.321348   -0.517153    0.280482
      2          6           0       -2.563690   -0.572370    0.946903
      3          8           0       -3.413188   -1.463500    0.867672
      4          6           0       -0.383269    0.531317    0.390680
      5          6           0       -2.025125    2.233476   -1.205602
      6          1           0       -2.303596    2.509043   -2.221953
      7          1           0       -2.711895    1.459767   -0.852796
      8          1           0       -2.107829    3.107676   -0.565520
      9          7           0       -0.668437    1.702487   -1.150644
     10          1           0       -0.497091    1.105977   -1.949500
     11          1           0        0.032755    2.434510   -1.157903
     12          6           0        1.084153    0.218645    0.196854
     13          6           0        1.655223   -0.111567   -1.030520
     14          6           0        3.003951   -0.413281   -1.134340
     15          6           0        3.812892   -0.407369   -0.008862
     16          6           0        3.257388   -0.093621    1.221061
     17          6           0        1.910947    0.221304    1.320182
     18          1           0        1.056798   -0.155131   -1.928719
     19          1           0        3.419580   -0.659523   -2.103033
     20          1           0        4.865435   -0.646370   -0.090099
     21          1           0        3.872004   -0.088192    2.112160
     22          1           0        1.507091    0.462026    2.293520
     23          6           0       -0.637925    1.574423    1.466029
     24          1           0       -0.560077    1.127768    2.456161
     25          1           0        0.098900    2.372355    1.391462
     26          1           0       -1.627878    2.012901    1.384240
     27         17           0       -1.004037   -1.853731   -0.819687
     28          1           0       -2.750179    0.278386    1.622590
 ---------------------------------------------------------------------

 SCF Done:  E(RwB97XD) =  -1017.76639685     A.U. after    1 cycles

 The electronic state is 1-A.
 Alpha  occ. eigenvalues -- -101.68453 -19.20741 -14.48867 -10.37115 -10.34712
 Alpha  occ. eigenvalues --  -10.31947 -10.31307 -10.31115 -10.29785 -10.29653
 Alpha  occ. eigenvalues --  -10.29416 -10.29380 -10.29309 -10.29087  -9.56995
 Alpha  occ. eigenvalues --   -7.31607  -7.30796  -7.30775  -1.11072  -1.04537
 Alpha  occ. eigenvalues --   -0.98238  -0.95694  -0.90680  -0.85823  -0.84927
 Alpha  occ. eigenvalues --   -0.79531  -0.79384  -0.74460  -0.70962  -0.68525
 Alpha  occ. eigenvalues --   -0.63641  -0.62760  -0.61095  -0.58366  -0.57501
 Alpha  occ. eigenvalues --   -0.56450  -0.55062  -0.53340  -0.53038  -0.51421
 Alpha  occ. eigenvalues --   -0.50086  -0.49801  -0.48837  -0.47618  -0.47358
 Alpha  occ. eigenvalues --   -0.47098  -0.45990  -0.44203  -0.43487  -0.42208
 Alpha  occ. eigenvalues --   -0.40258  -0.38925  -0.34210  -0.33930  -0.32504
 Alpha  occ. eigenvalues --   -0.27923
 Alpha virt. eigenvalues --    0.02211   0.04896   0.06411   0.09870   0.11057
 Alpha virt. eigenvalues --    0.12810   0.13191   0.14117   0.14971   0.16029
 Alpha virt. eigenvalues --    0.16705   0.17271   0.18193   0.18740   0.18911

 Mulliken charges:
               1
     1  C   -0.069742
     2  C    0.012292
     3  O   -0.507474
     4  C    0.121385
     5  C   -0.322836
     6  H    0.162822
     7  H    0.155616
     8  H    0.170142
     9  N   -0.310179
    10  H    0.275744
    11  H    0.293824
    12  C    0.277245
    13  C   -0.280343
    14  C   -0.150920
    15  C   -0.150909
    16  C   -0.140226
    17  C   -0.257973
    18  H    0.146351
    19  H    0.145664
    20  H    0.146189
    21  H    0.145363
    22  H    0.151356
    23  C   -0.444282
    24  H    0.175772
    25  H    0.171795
    26  H    0.164185
    27  Cl  -0.171679
    28  H    0.090816
 Sum of Mulliken charges =  -0.00000

 Dipole moment (field-independent basis, Debye):
    X=              6.5336    Y=             10.6921    Z=             -2.7978  Tot=             12.8389
 Quadrupole moment (field-independent basis, Debye-Ang):
   XX=           -106.2784   YY=            -91.2661   ZZ=            -79.3860
   XY=            -21.2589   XZ=              6.4250   YZ=             -0.8458

  Exact polarizability: 258.625  10.120 189.747 -12.963   1.972 206.083
 Approx polarizability: 198.847   6.800 158.353  -8.279   3.862 178.017

 ******    1 imaginary frequencies (negative Signs) ******

                      1                      2                      3
                      A                      A                      A
 Frequencies --   -331.6897                50.4826                59.1425
 Red. masses --      5.4731                 4.1852                 6.3708
 Frc consts  --      0.3548                 0.0063                 0.0131
 IR Inten    --    763.0272                 4.5664                 1.0977

                      4                      5                      6
                      A                      A                      A
 Frequencies --     75.5120                87.4313               119.2033
 Red. masses --      3.1257                 4.8183                 2.7182
 Frc consts  --      0.0105                 0.0217                 0.0228
 IR Inten    --      2.1441                 5.2301                10.5246

                      7                      8                      9
                      A                      A                      A
 Frequencies --    170.8150               205.3883               235.4312
 Red. masses --      4.1645                 1.1010                 7.8102
 Frc consts  --      0.0716                 0.0274                 0.2551
 IR Inten    --      2.4804                 0.7736                 4.7597

                     10                     11                     12
                      A                      A                      A
 Frequencies --    240.2454               275.3267               279.6197
 Red. masses --      4.3871                 2.9414                 2.5474
 Frc consts  --      0.1492                 0.1314                 0.1174
 IR Inten    --      8.7774                 0.9823                 4.5931

                     13                     14                     15
                      A                      A                      A
 Frequencies --    308.7689               318.4571               330.9824
 Red. masses --      2.0054                 3.8621                 1.9708
 Frc consts  --      0.1126                 0.2308                 0.1272
 IR Inten    --      1.9107                43.3731                 1.2660

                     16                     17                     18
                      A                      A                      A
 Frequencies --    353.4163               407.1997               421.4261
 Red. masses --      2.8847                 3.3290                 2.9201
 Frc consts  --      0.2123                 0.3252                 0.3056
 IR Inten    --      2.5677                20.2257                 0.8984

                     19                     20                     21
                      A                      A                      A
 Frequencies --    482.3850               512.1233               588.5886
 Red. masses --      4.3632                 3.1229                 3.2710
 Frc consts  --      0.5982                 0.4826                 0.6677
 IR Inten    --      3.5827                50.3081               132.0649

                     22                     23                     24
                      A                      A                      A
 Frequencies --    636.6265               639.9776               668.9955
 Red. masses --      3.1454                 3.9249                 6.5407
 Frc consts  --      0.7511                 0.9471                 1.7247
 IR Inten    --     20.4967                32.5195                61.3801

                     25                     26                     27
                      A                      A                      A
 Frequencies --    675.4814               726.4552               797.1093
 Red. masses --      2.3949                 1.5570                 2.2331
 Frc consts  --      0.6438                 0.4841                 0.8360
 IR Inten    --     75.3191                98.1725                20.5815

                     28                     29                     30
                      A                      A                      A
 Frequencies --    828.9920               874.4763               960.5314
 Red. masses --      3.0970                 1.2463                 1.4120
 Frc consts  --      1.2540                 0.5615                 0.7676
 IR Inten    --     22.4580                 0.7070                 0.8401

                     31                     32                     33
                      A                      A                      A
 Frequencies --   1006.2287              1008.2973              1012.6613
 Red. masses --      1.4525                 1.2790                 1.3497
 Frc consts  --      0.8665                 0.7662                 0.8155
 IR Inten    --      5.3855                11.3794                 8.0231

                     34                     35                     36
                      A                      A                      A
 Frequencies --   1024.4285              1026.7359              1031.8978
 Red. masses --      2.4196                 4.1495                 1.3146
 Frc consts  --      1.4961                 2.5773                 0.8248
 IR Inten    --    119.9540                19.2105                 0.0455

                     37                     38                     39
                      A                      A                      A
 Frequencies --   1043.2909              1058.6942              1070.0721
 Red. masses --      1.3641                 2.3861                 1.7517
 Frc consts  --      0.8748                 1.5757                 1.1818
 IR Inten    --      4.2426                53.3549                35.9237

                     40                     41                     42
                      A                      A                      A
 Frequencies --   1087.8532              1099.7656              1132.2135
 Red. masses --      3.3432                 1.7404                 1.6116
 Frc consts  --      2.3310                 1.2402                 1.2172
 IR Inten    --      3.9086                22.1337                 6.0772

                     43                     44                     45
                      A                      A                      A
 Frequencies --   1188.7410              1216.6998              1231.0655
 Red. masses --      1.1313                 1.3422                 1.4292
 Frc consts  --      0.9419                 1.1706                 1.2762
 IR Inten    --      0.1966                18.8113                69.9920

                     46                     47                     48
                      A                      A                      A
 Frequencies --   1237.4775              1280.0158              1326.5091
 Red. masses --      2.4030                 4.8331                 5.0661
 Frc consts  --      2.1681                 4.6656                 5.2522
 IR Inten    --    104.1984                19.3264                44.5130

                     49                     50                     51
                      A                      A                      A
 Frequencies --   1345.3198              1377.2051              1381.8307
 Red. masses --      1.3853                 1.4253                 1.8878
 Frc consts  --      1.4772                 1.5927                 2.1238
 IR Inten    --     31.1053               100.6834               524.5519

                     52                     53                     54
                      A                      A                      A
 Frequencies --   1417.9642              1457.9340              1473.1351
 Red. masses --      1.2355                 1.2790                 1.4468
 Frc consts  --      1.4636                 1.6018                 1.8499
 IR Inten    --     35.9943                63.2295                79.6750

                     55                     56                     57
                      A                      A                      A
 Frequencies --   1489.2888              1492.9637              1500.7032
 Red. masses --      1.8066                 1.0511                 1.2185
 Frc consts  --      2.3609                 1.3804                 1.6168
 IR Inten    --     12.7493                13.9482                28.2204

                     58                     59                     60
                      A                      A                      A
 Frequencies --   1513.9718              1515.1626              1550.5261
 Red. masses --      1.2243                 1.0639                 2.2314
 Frc consts  --      1.6534                 1.4391                 3.1607
 IR Inten    --     47.2427                38.6151                 7.1336

                     61                     62                     63
                      A                      A                      A
 Frequencies --   1645.3227              1652.7577              1657.4838
 Red. masses --      1.1289                 4.6927                 7.2933
 Frc consts  --      1.8006                 7.5525                11.8052
 IR Inten    --    100.9783                 0.7236              1244.5662

                     64                     65                     66
                      A                      A                      A
 Frequencies --   1677.1990              2981.7527              3057.6793
 Red. masses --      5.8068                 1.0817                 1.0383
 Frc consts  --      9.6240                 5.6663                 5.7195
 IR Inten    --      0.5735               100.3818                29.9452

                     67                     68                     69
                      A                      A                      A
 Frequencies --   3085.9193              3132.6486              3158.4017
 Red. masses --      1.0383                 1.0999                 1.1031
 Frc consts  --      5.8256                 6.3594                 6.4832
 IR Inten    --     12.5595                11.6175                13.5648

                     70                     71                     72
                      A                      A                      A
 Frequencies --   3176.3538              3184.0651              3199.0708
 Red. masses --      1.1041                 1.1009                 1.0862
 Frc consts  --      6.5631                 6.5760                 6.5498
 IR Inten    --     12.1982                15.8607                 0.2566

                     73                     74                     75
                      A                      A                      A
 Frequencies --   3208.1016              3219.8088              3232.3068
 Red. masses --      1.0902                 1.0948                 1.0931
 Frc consts  --      6.6106                 6.6872                 6.7287
 IR Inten    --      9.6566                29.9954                21.3241

                     76                     77                     78
                      A                      A                      A
 Frequencies --   3235.9632              3535.0459              3621.3107
 Red. masses --      1.0943                 1.0522                 1.0944
 Frc consts  --      6.7515                 7.7472                 8.4558
 IR Inten    --      5.6721                56.1270                43.8263

 - Thermochemistry -
 -------------------
 Temperature   298.150 Kelvin.  Pressure   1.00000 Atm.
 Atom     1 has atomic number  6 and mass  12.00000

 Molecular mass:   211.07639 amu.
 Principal axes and moments of inertia in atomic units:
                           1         2         3
     Eigenvalues --  1984.787014242.044864655.26087
           X            0.99903  -0.04376   0.00466
           Y            0.04387   0.99868  -0.02668
           Z           -0.00349   0.02686   0.99963
 This molecule is an asymmetric top.
 Rotational symmetry number  1.
 Warning -- assumption of classical behavior for rotation
           may cause significant error
 Rotational temperatures (Kelvin)      0.04364     0.02042     0.01861
 Rotational constants (GHZ):           0.90929     0.42544     0.38768
    1 imaginary frequencies ignored.
 Zero-point vibrational energy     607645.7 (Joules/Mol)
                                  145.23082 (Kcal/Mol)
 Warning -- explicit consideration of  20 degrees of freedom as
           vibrations may cause significant error
 Vibrational temperatures:     72.63    85.09   108.64   125.79   171.51
          (Kelvin)            245.76   295.51   338.73   345.66   396.13
                              402.31   444.25   458.19   476.21   508.49
                              585.87   606.34   694.04   736.83   846.85
                              915.96   920.79   962.54   971.87  1045.21
                             1146.86  1192.73  1258.18  1381.99  1447.74
                             1450.71  1456.99  1473.92  1477.24  1484.67
                             1501.06  1523.22  1539.60  1565.18  1582.32
                             1629.00  1710.33  1750.56  1771.23  1780.45
                             1841.66  1908.55  1935.62  1981.49  1988.15
                             2040.13  2097.64  2119.51  2142.75  2148.04
                             2159.18  2178.27  2179.98  2230.86  2367.25
                             2377.95  2384.75  2413.12  4290.08  4399.32
                             4439.95  4507.18  4544.24  4570.06  4581.16
                             4602.75  4615.74  4632.59  4650.57  4655.83
                             5086.14  5210.26

 Zero-point correction=                           0.231440 (Hartree/Particle)
 Thermal correction to Energy=                    0.245404
 Thermal correction to Enthalpy=                  0.246348
 Thermal correction to Gibbs Free Energy=         0.190381
 Sum of electronic and zero-point Energies=          -1017.534957
 Sum of electronic and thermal Energies=             -1017.520993
 Sum of electronic and thermal Enthalpies=           -1017.520049
 Sum of electronic and thermal Free Energies=        -1017.576016

                     E (Thermal)             CV                S
                      KCal/Mol        Cal/Mol-Kelvin    Cal/Mol-Kelvin
 Total                  153.993             52.290            117.793
 Electronic               0.000              0.000              0.000
 Translational            0.889              2.981             41.945
 Rotational               0.889              2.981             32.039
 Vibrational            152.216             46.328             43.810
 Vibration     1          0.595              1.977              4.798
 Vibration     2          0.597              1.974              4.486
 Vibration     3          0.599              1.965              4.004
 Vibration     4          0.601              1.958              3.717
 Vibration     5          0.609              1.933              3.113
 Vibration     6          0.626              1.878              2.426
 Vibration     7          0.640              1.832              2.084
 Vibration     8          0.655              1.787              1.837
 Vibration     9          0.657              1.779              1.801
 Vibration    10          0.677              1.719              1.563
 Vibration    11          0.680              1.711              1.536
 Vibration    12          0.698              1.657              1.369
 Vibration    13          0.705              1.638              1.318
 Vibration    14          0.713              1.614              1.255
 Vibration    15          0.730              1.568              1.151
 Vibration    16          0.772              1.455              0.937
 Vibration    17          0.784              1.424              0.887
 Vibration    18          0.839              1.289              0.704
 Vibration    19          0.867              1.223              0.628
 Vibration    20          0.946              1.056              0.470

 Optimization completed.
    -- Stationary point found.
 Normal termination of Gaussian 16 at Sun Feb  7 02:46:26 2021.
