 Gaussian 16, Revision A.03,
 Gaussian 16:  ES64L-G16RevA.03 25-Dec-2016

 ----------------------------------------------------------------------
 # wB97XD def2tzvp, opt=(ts, noeigen, calcfc, maxcycles=70, maxstep=8),
  freq=noraman, scrf=(iefpcm, solvent=water)
 ----------------------------------------------------------------------

 ------------------------
 1_iteration/TS-132-1.out
 ------------------------
 Symbolic Z-matrix:
 Charge =  0 Multiplicity = 1

 SCF Done:  E(RwB97XD) =  -3207.00859178     A.U. after   15 cycles
 SCF Done:  E(RwB97XD) =  -3207.00841987     A.U. after   12 cycles
 SCF Done:  E(RwB97XD) =  -3207.00836036     A.U. after   12 cycles
 SCF Done:  E(RwB97XD) =  -3207.00842709     A.U. after   12 cycles
 SCF Done:  E(RwB97XD) =  -3207.00860915     A.U. after   12 cycles
 SCF Done:  E(RwB97XD) =  -3207.00900080     A.U. after   12 cycles
 SCF Done:  E(RwB97XD) =  -3207.00969775     A.U. after   12 cycles
 SCF Done:  E(RwB97XD) =  -3207.01052261     A.U. after   12 cycles
 SCF Done:  E(RwB97XD) =  -3207.01121750     A.U. after   12 cycles
 SCF Done:  E(RwB97XD) =  -3207.01150438     A.U. after   12 cycles
 SCF Done:  E(RwB97XD) =  -3207.01115371     A.U. after   12 cycles
 SCF Done:  E(RwB97XD) =  -3207.01162196     A.U. after   11 cycles
 SCF Done:  E(RwB97XD) =  -3207.01157060     A.U. after   12 cycles
 SCF Done:  E(RwB97XD) =  -3207.01166825     A.U. after   12 cycles
 SCF Done:  E(RwB97XD) =  -3207.01167269     A.U. after   11 cycles
 SCF Done:  E(RwB97XD) =  -3207.01167486     A.U. after   10 cycles
 SCF Done:  E(RwB97XD) =  -3207.01167836     A.U. after   10 cycles
 SCF Done:  E(RwB97XD) =  -3207.01167890     A.U. after   10 cycles
 SCF Done:  E(RwB97XD) =  -3207.01167896     A.U. after    8 cycles
 Optimization completed.
    -- Stationary point found.
 Normal termination of Gaussian 16 at Sun Feb  7 00:18:37 2021.

 ---------------------------------------------------------------------
 #N Geom=AllCheck Guess=TCheck SCRF=Check GenChk RwB97XD/def2TZVP Freq
 ---------------------------------------------------------------------

 Structure from the checkpoint file:  "/beegfs/scratch/user/q/tla25/Gau-19111.chk"
 ------------------------
 1_iteration/TS-132-1.out
 ------------------------
 Charge =  0 Multiplicity = 1

                         Standard orientation:
 ---------------------------------------------------------------------
 Center     Atomic      Atomic             Coordinates (Angstroms)
 Number     Number       Type             X           Y           Z
 ---------------------------------------------------------------------
      1          6           0        0.910387   -0.713269   -0.601984
      2          6           0        2.304998   -0.568004   -0.325684
      3          8           0        2.811087    0.176766    0.504154
      4          6           0       -0.068527    0.102452   -0.069206
      5          6           0        0.059262   -1.333650    2.411780
      6          1           0       -0.973511   -1.667615    2.480124
      7          1           0        0.596829   -1.973521    1.706686
      8          1           0        0.531808   -1.418111    3.390776
      9          7           0        0.103531    0.026614    1.907733
     10          1           0       -0.572468    0.640294    2.344801
     11          1           0        1.033073    0.426011    1.990755
     12          6           0       -1.505424   -0.270599   -0.252643
     13          6           0       -1.844500   -1.627448   -0.248927
     14          6           0       -3.159293   -2.033180   -0.397547
     15          6           0       -4.169015   -1.093793   -0.547320
     16          6           0       -3.847530    0.253537   -0.542924
     17          6           0       -2.530452    0.661199   -0.393125
     18          1           0       -1.076978   -2.376741   -0.117353
     19          1           0       -3.394016   -3.089837   -0.390983
     20          1           0       -5.197548   -1.410673   -0.662950
     21          1           0       -4.623964    0.998993   -0.657332
     22          1           0       -2.305259    1.717357   -0.393438
     23         35           0        0.273921    2.052036   -0.128977
     24          1           0        0.603663   -1.581990   -1.163230
     25          8           0        3.061387   -1.408528   -1.068553
     26          6           0        4.457742   -1.405214   -0.801642
     27          1           0        4.658418   -1.682455    0.233825
     28          1           0        4.890341   -2.142768   -1.472925
     29          1           0        4.891994   -0.424606   -0.998180
 ---------------------------------------------------------------------

 SCF Done:  E(RwB97XD) =  -3207.01167896     A.U. after    1 cycles

 The electronic state is 1-A.
 Alpha  occ. eigenvalues -- -483.12434 -62.67282 -56.46391 -56.46050 -56.46035
 Alpha  occ. eigenvalues --  -19.28398 -19.21965 -14.47787 -10.40024 -10.39952
 Alpha  occ. eigenvalues --  -10.32684 -10.31644 -10.31417 -10.29880 -10.29700
 Alpha  occ. eigenvalues --  -10.29610 -10.29519 -10.29481 -10.26164  -8.81385
 Alpha  occ. eigenvalues --   -6.63506  -6.62432  -6.62381  -2.73892  -2.73598
 Alpha  occ. eigenvalues --   -2.73558  -2.72688  -2.72688  -1.19784  -1.10386
 Alpha  occ. eigenvalues --   -1.03502  -0.98023  -0.92982  -0.86579  -0.85813
 Alpha  occ. eigenvalues --   -0.85177  -0.80725  -0.78528  -0.73723  -0.71054
 Alpha  occ. eigenvalues --   -0.67913  -0.64441  -0.62590  -0.61145  -0.59179
 Alpha  occ. eigenvalues --   -0.57277  -0.56890  -0.56377  -0.55111  -0.55056
 Alpha  occ. eigenvalues --   -0.53005  -0.52660  -0.51402  -0.49448  -0.48026
 Alpha  occ. eigenvalues --   -0.47850  -0.47414  -0.46786  -0.44619  -0.43771
 Alpha  occ. eigenvalues --   -0.43265  -0.42863  -0.38706  -0.37418  -0.36849
 Alpha  occ. eigenvalues --   -0.35111  -0.34326  -0.33942  -0.28591
 Alpha virt. eigenvalues --    0.00763   0.04656   0.05153   0.08154   0.10846
 Alpha virt. eigenvalues --    0.12929   0.13662   0.14488   0.15855   0.16273
 Alpha virt. eigenvalues --    0.17071   0.17116   0.17749   0.18365   0.19198

 Mulliken charges:
               1
     1  C   -0.520930
     2  C    0.463645
     3  O   -0.509960
     4  C    0.320893
     5  C   -0.297013
     6  H    0.159473
     7  H    0.147217
     8  H    0.158864
     9  N   -0.348371
    10  H    0.284364
    11  H    0.281478
    12  C    0.143670
    13  C   -0.305263
    14  C   -0.128931
    15  C   -0.149048
    16  C   -0.123228
    17  C   -0.251310
    18  H    0.172620
    19  H    0.146569
    20  H    0.147435
    21  H    0.146467
    22  H    0.148809
    23  Br  -0.143643
    24  H    0.158835
    25  O   -0.305975
    26  C   -0.189428
    27  H    0.126438
    28  H    0.139246
    29  H    0.127077
 Sum of Mulliken charges =  -0.00000

 Dipole moment (field-independent basis, Debye):
    X=             -4.1821    Y=             -3.0420    Z=              4.0842  Tot=              6.5897
 Quadrupole moment (field-independent basis, Debye-Ang):
   XX=            -91.9698   YY=            -96.6114   ZZ=            -96.1846
   XY=             -3.7017   XZ=             -1.8632   YZ=             -1.3760

  Exact polarizability: 293.239  -3.449 241.036  -2.831   2.415 184.472
 Approx polarizability: 215.395  -1.618 203.781   0.817   5.635 158.095

 ******    1 imaginary frequencies (negative Signs) ******

                      1                      2                      3
                      A                      A                      A
 Frequencies --   -386.8098                40.1593                53.5853
 Red. masses --      5.0739                 4.0088                 3.7097
 Frc consts  --      0.4473                 0.0038                 0.0063
 IR Inten    --    543.6582                 0.0591                 2.1783

                      4                      5                      6
                      A                      A                      A
 Frequencies --     68.5402                86.9038                95.7720
 Red. masses --      4.1364                 3.0234                 3.4274
 Frc consts  --      0.0114                 0.0135                 0.0185
 IR Inten    --      2.3627                 2.0312                 4.5437

                      7                      8                      9
                      A                      A                      A
 Frequencies --    131.1212               146.2934               155.9941
 Red. masses --      2.7789                 1.8300                 5.8294
 Frc consts  --      0.0281                 0.0231                 0.0836
 IR Inten    --      5.1249                20.7829                 2.8632

                     10                     11                     12
                      A                      A                      A
 Frequencies --    167.3425               178.9481               223.5147
 Red. masses --      2.3878                 4.0630                 1.4907
 Frc consts  --      0.0394                 0.0767                 0.0439
 IR Inten    --      6.5326                 3.4337                 2.0165

                     13                     14                     15
                      A                      A                      A
 Frequencies --    253.3752               263.0822               275.8107
 Red. masses --      2.2167                 8.4512                 3.5130
 Frc consts  --      0.0838                 0.3446                 0.1575
 IR Inten    --      7.9817                 5.7567                15.5040

                     16                     17                     18
                      A                      A                      A
 Frequencies --    301.3725               313.0864               368.0497
 Red. masses --      4.2312                 5.0460                 5.6652
 Frc consts  --      0.2264                 0.2914                 0.4521
 IR Inten    --      4.4410                48.8199                33.2647

                     19                     20                     21
                      A                      A                      A
 Frequencies --    425.1840               429.9383               557.9584
 Red. masses --      2.9314                 4.1264                 2.8174
 Frc consts  --      0.3122                 0.4494                 0.5168
 IR Inten    --      0.9360                13.8344                62.2122

                     22                     23                     24
                      A                      A                      A
 Frequencies --    582.1525               613.1875               638.0340
 Red. masses --      2.1550                 3.1510                 5.7536
 Frc consts  --      0.4303                 0.6980                 1.3800
 IR Inten    --     31.1890                66.0068                 4.3142

                     25                     26                     27
                      A                      A                      A
 Frequencies --    682.4690               713.7068               724.2484
 Red. masses --      1.4469                 2.7657                 1.6326
 Frc consts  --      0.3971                 0.8300                 0.5046
 IR Inten    --     87.1410                99.6568               105.2769

                     28                     29                     30
                      A                      A                      A
 Frequencies --    733.5573               802.9369               804.7807
 Red. masses --      5.6268                 2.1451                 6.9501
 Frc consts  --      1.7839                 0.8148                 2.6522
 IR Inten    --     10.1845                33.6311                75.5390

                     31                     32                     33
                      A                      A                      A
 Frequencies --    874.9495               879.3974               968.7696
 Red. masses --      5.3294                 1.2547                 1.5220
 Frc consts  --      2.4038                 0.5717                 0.8416
 IR Inten    --     29.7369                 0.1424                26.9872

                     34                     35                     36
                      A                      A                      A
 Frequencies --    985.8168               988.9957              1021.7966
 Red. masses --      1.5480                 1.8020                 1.4131
 Frc consts  --      0.8864                 1.0385                 0.8692
 IR Inten    --    135.2719                59.0313                 0.5985

                     37                     38                     39
                      A                      A                      A
 Frequencies --   1025.4850              1037.9054              1043.8753
 Red. masses --      5.0326                 1.3174                 1.2489
 Frc consts  --      3.1182                 0.8361                 0.8018
 IR Inten    --      4.4397                 0.5933                77.5022

                     40                     41                     42
                      A                      A                      A
 Frequencies --   1066.4132              1082.9413              1092.7584
 Red. masses --      2.3239                 4.6159                 4.2975
 Frc consts  --      1.5571                 3.1894                 3.0236
 IR Inten    --     41.0594                95.7948                27.7865

                     43                     44                     45
                      A                      A                      A
 Frequencies --   1122.7331              1181.6434              1186.8990
 Red. masses --      1.5479                 1.2843                 1.1420
 Frc consts  --      1.1496                 1.0565                 0.9479
 IR Inten    --     24.1354                 1.8597                33.1045

                     46                     47                     48
                      A                      A                      A
 Frequencies --   1194.2502              1196.7570              1210.6005
 Red. masses --      1.4376                 1.7116                 2.2771
 Frc consts  --      1.2080                 1.4443                 1.9662
 IR Inten    --     30.5379               913.3959                62.3327

                     49                     50                     51
                      A                      A                      A
 Frequencies --   1217.8024              1225.8670              1305.1886
 Red. masses --      1.2296                 1.9174                 3.6223
 Frc consts  --      1.0744                 1.6977                 3.6357
 IR Inten    --     70.4992                27.6654               129.9837

                     52                     53                     54
                      A                      A                      A
 Frequencies --   1337.5681              1348.8536              1363.1916
 Red. masses --      2.6366                 1.5547                 1.4328
 Frc consts  --      2.7793                 1.6665                 1.5688
 IR Inten    --     64.0423                65.0686                 9.4225

                     55                     56                     57
                      A                      A                      A
 Frequencies --   1451.0616              1474.3008              1481.3658
 Red. masses --      1.2052                 1.3139                 1.0668
 Frc consts  --      1.4951                 1.6826                 1.3793
 IR Inten    --     73.7285                38.2848                19.2163

                     58                     59                     60
                      A                      A                      A
 Frequencies --   1488.5837              1492.7356              1494.3932
 Red. masses --      1.6098                 1.1438                 1.1807
 Frc consts  --      2.1018                 1.5017                 1.5535
 IR Inten    --    201.1036                77.1244                26.2622

                     61                     62                     63
                      A                      A                      A
 Frequencies --   1505.3799              1512.6641              1545.8180
 Red. masses --      1.0598                 2.4321                 2.4702
 Frc consts  --      1.4150                 3.2788                 3.4778
 IR Inten    --     91.6794               799.1574                82.4496

                     64                     65                     66
                      A                      A                      A
 Frequencies --   1632.0538              1649.7750              1673.5435
 Red. masses --      1.1601                 5.2486                 5.9240
 Frc consts  --      1.8206                 8.4168                 9.7756
 IR Inten    --    139.9057                 2.0662                 0.6192

                     67                     68                     69
                      A                      A                      A
 Frequencies --   1697.6065              3049.5935              3060.2527
 Red. masses --      7.6389                 1.0371                 1.0311
 Frc consts  --     12.9704                 5.6828                 5.6895
 IR Inten    --    492.9407                40.4653                61.4317

                     70                     71                     72
                      A                      A                      A
 Frequencies --   3121.9598              3134.6190              3165.3017
 Red. masses --      1.1007                 1.1067                 1.1040
 Frc consts  --      6.3207                 6.4067                 6.5168
 IR Inten    --     14.7567                38.9502                16.3845

                     73                     74                     75
                      A                      A                      A
 Frequencies --   3171.3442              3200.5347              3209.7904
 Red. masses --      1.1051                 1.0865                 1.0906
 Frc consts  --      6.5482                 6.5571                 6.6199
 IR Inten    --     26.9040                 0.2013                13.2617

                     76                     77                     78
                      A                      A                      A
 Frequencies --   3221.4817              3233.1916              3240.2675
 Red. masses --      1.0953                 1.0941                 1.0927
 Frc consts  --      6.6970                 6.7386                 6.7595
 IR Inten    --     23.9882                 8.4869                 3.4948

                     79                     80                     81
                      A                      A                      A
 Frequencies --   3242.7812              3512.0916              3613.5300
 Red. masses --      1.0887                 1.0519                 1.0961
 Frc consts  --      6.7453                 7.6447                 8.4323
 IR Inten    --      0.9429                41.8093                86.3576

 - Thermochemistry -
 -------------------
 Temperature   298.150 Kelvin.  Pressure   1.00000 Atm.
 Atom     1 has atomic number  6 and mass  12.00000

 Molecular mass:   271.02079 amu.
 Principal axes and moments of inertia in atomic units:
                           1         2         3
     Eigenvalues --  2732.423915685.475976946.34310
           X            0.99985  -0.01736  -0.00120
           Y            0.01735   0.99983  -0.00653
           Z            0.00131   0.00651   0.99998
 This molecule is an asymmetric top.
 Rotational symmetry number  1.
 Warning -- assumption of classical behavior for rotation
           may cause significant error
 Rotational temperatures (Kelvin)      0.03170     0.01523     0.01247
 Rotational constants (GHZ):           0.66049     0.31743     0.25981
    1 imaginary frequencies ignored.
 Zero-point vibrational energy     616481.1 (Joules/Mol)
                                  147.34251 (Kcal/Mol)
 Warning -- explicit consideration of  22 degrees of freedom as
           vibrations may cause significant error
 Vibrational temperatures:     57.78    77.10    98.61   125.04   137.79
          (Kelvin)            188.65   210.48   224.44   240.77   257.47
                              321.59   364.55   378.52   396.83   433.61
                              450.46   529.54   611.74   618.59   802.78
                              837.59   882.24   917.99   981.92  1026.86
                             1042.03  1055.43  1155.25  1157.90  1258.86
                             1265.26  1393.84  1418.37  1422.94  1470.14
                             1475.44  1493.31  1501.90  1534.33  1558.11
                             1572.24  1615.36  1700.12  1707.68  1718.26
                             1721.87  1741.78  1752.15  1763.75  1877.88
                             1924.46  1940.70  1961.33  2087.75  2121.19
                             2131.36  2141.74  2147.71  2150.10  2165.91
                             2176.39  2224.09  2348.16  2373.66  2407.86
                             2442.48  4387.68  4403.02  4491.80  4510.02
                             4554.16  4562.86  4604.86  4618.17  4634.99
                             4651.84  4662.02  4665.64  5053.12  5199.06

 Zero-point correction=                           0.234805 (Hartree/Particle)
 Thermal correction to Energy=                    0.250359
 Thermal correction to Enthalpy=                  0.251303
 Thermal correction to Gibbs Free Energy=         0.190626
 Sum of electronic and zero-point Energies=          -3206.776874
 Sum of electronic and thermal Energies=             -3206.761320
 Sum of electronic and thermal Enthalpies=           -3206.760376
 Sum of electronic and thermal Free Energies=        -3206.821053

                     E (Thermal)             CV                S
                      KCal/Mol        Cal/Mol-Kelvin    Cal/Mol-Kelvin
 Total                  157.103             56.220            127.705
 Electronic               0.000              0.000              0.000
 Translational            0.889              2.981             42.690
 Rotational               0.889              2.981             33.045
 Vibrational            155.325             50.258             51.970
 Vibration     1          0.594              1.981              5.251
 Vibration     2          0.596              1.976              4.680
 Vibration     3          0.598              1.969              4.195
 Vibration     4          0.601              1.958              3.729
 Vibration     5          0.603              1.952              3.539
 Vibration     6          0.612              1.922              2.930
 Vibration     7          0.617              1.907              2.720
 Vibration     8          0.620              1.896              2.598
 Vibration     9          0.624              1.883              2.465
 Vibration    10          0.629              1.868              2.339
 Vibration    11          0.649              1.805              1.930
 Vibration    12          0.665              1.757              1.707
 Vibration    13          0.670              1.741              1.641
 Vibration    14          0.677              1.718              1.560
 Vibration    15          0.693              1.671              1.409
 Vibration    16          0.701              1.649              1.346
 Vibration    17          0.741              1.538              1.088
 Vibration    18          0.787              1.415              0.875
 Vibration    19          0.791              1.405              0.859
 Vibration    20          0.914              1.122              0.528
 Vibration    21          0.939              1.070              0.481
 Vibration    22          0.973              1.004              0.428

 Optimization completed.
    -- Stationary point found.
 Normal termination of Gaussian 16 at Sun Feb  7 01:17:02 2021.
