 Gaussian 16, Revision A.03,
 Gaussian 16:  ES64L-G16RevA.03 25-Dec-2016

 ----------------------------------------------------------------------
 # wB97XD def2tzvp, opt=(ts, noeigen, calcfc, maxcycles=70, maxstep=3),
  freq=noraman, scrf=(iefpcm, solvent=water)
 ----------------------------------------------------------------------

 ------------------------
 3_iteration/TS-182-3.out
 ------------------------
 Symbolic Z-matrix:
 Charge =  0 Multiplicity = 1

 SCF Done:  E(RwB97XD) =  -1151.75284574     A.U. after   15 cycles
 Optimization completed.
    -- Stationary point found.
 Normal termination of Gaussian 16 at Sun Feb  7 17:55:01 2021.

 ---------------------------------------------------------------------
 #N Geom=AllCheck Guess=TCheck SCRF=Check GenChk RwB97XD/def2TZVP Freq
 ---------------------------------------------------------------------

 Structure from the checkpoint file:  "/beegfs/scratch/user/q/tla25/Gau-6870.chk"
 ------------------------
 3_iteration/TS-182-3.out
 ------------------------
 Charge =  0 Multiplicity = 1

                         Standard orientation:
 ---------------------------------------------------------------------
 Center     Atomic      Atomic             Coordinates (Angstroms)
 Number     Number       Type             X           Y           Z
 ---------------------------------------------------------------------
      1          6           0       -0.769100   -0.321251   -0.291859
      2          6           0       -2.126350    0.122349   -0.015899
      3          8           0       -2.393519    1.299019    0.310541
      4          6           0        0.284700    0.376489    0.285931
      5          6           0        0.149681    2.313499   -1.733529
      6          1           0       -0.321899    3.252349   -2.023839
      7          1           0        1.153941    2.271789   -2.148589
      8          1           0       -0.437929    1.487469   -2.136089
      9          7           0        0.181831    2.168529   -0.283999
     10          1           0        0.821101    2.805669    0.176501
     11          1           0       -0.765629    2.286239    0.088541
     12          6           0        1.694880   -0.095001    0.080431
     13          6           0        1.972070   -1.428441    0.386351
     14          6           0        3.250570   -1.938682    0.251281
     15          6           0        4.284120   -1.122622   -0.189319
     16          6           0        4.023430    0.205408   -0.480769
     17          6           0        2.739881    0.717198   -0.341439
     18          1           0        1.171250   -2.065981    0.737681
     19          1           0        3.441010   -2.976612    0.492971
     20          1           0        5.285310   -1.519462   -0.298029
     21          1           0        4.820581    0.855868   -0.817229
     22          1           0        2.581061    1.761028   -0.565069
     23         17           0        0.121491    0.820239    2.075571
     24          6           0       -0.510570   -1.268021   -1.451109
     25          1           0       -0.333390   -2.307711   -1.158099
     26          1           0       -1.365340   -1.268841   -2.129929
     27          1           0        0.356290   -0.953271   -2.034029
     28          7           0       -3.149990   -0.766001   -0.183749
     29          6           0       -2.989270   -2.196971   -0.034329
     30          6           0       -4.514940   -0.289451   -0.169209
     31          1           0       -1.998950   -2.426551    0.349451
     32          1           0       -3.724460   -2.567831    0.684571
     33          1           0       -3.136610   -2.727551   -0.979129
     34          1           0       -4.557179    0.725819   -0.553899
     35          1           0       -5.124670   -0.937811   -0.800769
     36          1           0       -4.939190   -0.295521    0.841031
 ---------------------------------------------------------------------

 SCF Done:  E(RwB97XD) =  -1151.75284574     A.U. after    1 cycles

 The electronic state is 1-A.
 Alpha  occ. eigenvalues -- -101.68121 -19.20023 -14.47818 -14.45016 -10.39457
 Alpha  occ. eigenvalues --  -10.37024 -10.31386 -10.31198 -10.30518 -10.30136
 Alpha  occ. eigenvalues --  -10.29789 -10.29469 -10.29418 -10.29364 -10.29312
 Alpha  occ. eigenvalues --  -10.27158 -10.25538  -9.56719  -7.31319  -7.30522
 Alpha  occ. eigenvalues --   -7.30493  -1.12510  -1.03983  -1.02376  -0.98038
 Alpha  occ. eigenvalues --   -0.94535  -0.88177  -0.85885  -0.85453  -0.81195
 Alpha  occ. eigenvalues --   -0.78879  -0.78516  -0.76915  -0.72051  -0.71068
 Alpha  occ. eigenvalues --   -0.66763  -0.64392  -0.61487  -0.59942  -0.57973
 Alpha  occ. eigenvalues --   -0.57298  -0.56151  -0.55696  -0.54990  -0.54685
 Alpha  occ. eigenvalues --   -0.53050  -0.51689  -0.51269  -0.50947  -0.49120
 Alpha  occ. eigenvalues --   -0.48387  -0.48308  -0.47456  -0.46666  -0.46457
 Alpha  occ. eigenvalues --   -0.45737  -0.45016  -0.44807  -0.44297  -0.43300
 Alpha  occ. eigenvalues --   -0.42763  -0.39286  -0.38207  -0.34218  -0.33914
 Alpha  occ. eigenvalues --   -0.33348  -0.31438  -0.26043
 Alpha virt. eigenvalues --    0.03118   0.04872   0.06384   0.09301   0.10534
 Alpha virt. eigenvalues --    0.12141   0.13244   0.13741   0.14794   0.15356
 Alpha virt. eigenvalues --    0.15920   0.16526   0.17034   0.17817   0.18179

 Mulliken charges:
               1
     1  C   -0.419745
     2  C    0.346290
     3  O   -0.587264
     4  C    0.325821
     5  C   -0.299997
     6  H    0.156375
     7  H    0.146656
     8  H    0.157983
     9  N   -0.302694
    10  H    0.277305
    11  H    0.276945
    12  C    0.138201
    13  C   -0.297001
    14  C   -0.131556
    15  C   -0.145661
    16  C   -0.161548
    17  C   -0.198079
    18  H    0.173659
    19  H    0.143998
    20  H    0.145771
    21  H    0.144332
    22  H    0.146408
    23  Cl  -0.194987
    24  C   -0.384228
    25  H    0.123880
    26  H    0.142010
    27  H    0.148434
    28  N   -0.115235
    29  C   -0.296999
    30  C   -0.296321
    31  H    0.154308
    32  H    0.141934
    33  H    0.135803
    34  H    0.137130
    35  H    0.137634
    36  H    0.130437
 Sum of Mulliken charges =  -0.00000

 Dipole moment (field-independent basis, Debye):
    X=              2.7475    Y=             -0.1406    Z=             -4.1897  Tot=              5.0122
 Quadrupole moment (field-independent basis, Debye-Ang):
   XX=            -98.8674   YY=            -94.3645   ZZ=           -115.1294
   XY=             11.2712   XZ=              0.2224   YZ=             -7.3480

  Exact polarizability: 310.548  13.496 271.396 -10.154  -3.672 207.723
 Approx polarizability: 230.908   7.722 228.052  -8.155  -2.932 178.100

 ******    1 imaginary frequencies (negative Signs) ******

                      1                      2                      3
                      A                      A                      A
 Frequencies --   -406.7362                39.0800                59.4476
 Red. masses --      5.4742                 3.5995                 4.0951
 Frc consts  --      0.5336                 0.0032                 0.0085
 IR Inten    --    648.2033                 0.2869                 3.4195

                      4                      5                      6
                      A                      A                      A
 Frequencies --     74.8186                80.2832               111.9154
 Red. masses --      3.7468                 4.2615                 3.5001
 Frc consts  --      0.0124                 0.0162                 0.0258
 IR Inten    --      1.6128                 7.0061                 0.6265

                      7                      8                      9
                      A                      A                      A
 Frequencies --    134.7646               146.5939               154.6015
 Red. masses --      1.5773                 2.0399                 2.4736
 Frc consts  --      0.0169                 0.0258                 0.0348
 IR Inten    --      2.3464                 1.6949                15.1532

                     10                     11                     12
                      A                      A                      A
 Frequencies --    166.1340               175.2980               188.5251
 Red. masses --      1.2782                 1.9150                 2.0619
 Frc consts  --      0.0208                 0.0347                 0.0432
 IR Inten    --      0.4451                 1.3049                 3.0469

                     13                     14                     15
                      A                      A                      A
 Frequencies --    211.8758               218.4094               229.8112
 Red. masses --      2.6905                 1.7120                 2.8353
 Frc consts  --      0.0712                 0.0481                 0.0882
 IR Inten    --      4.7428                 7.1802                10.4672

                     16                     17                     18
                      A                      A                      A
 Frequencies --    253.9278               272.4925               296.1591
 Red. masses --      2.9384                 3.7226                 3.6939
 Frc consts  --      0.1116                 0.1629                 0.1909
 IR Inten    --     13.7564                 1.6599                 6.1367

                     19                     20                     21
                      A                      A                      A
 Frequencies --    301.2695               329.9346               334.6137
 Red. masses --      1.8482                 2.9302                 3.7273
 Frc consts  --      0.0988                 0.1879                 0.2459
 IR Inten    --      8.8339                 3.0274                44.7335

                     22                     23                     24
                      A                      A                      A
 Frequencies --    374.3183               386.9229               423.9667
 Red. masses --      7.9310                 4.0030                 2.8896
 Frc consts  --      0.6547                 0.3531                 0.3060
 IR Inten    --     54.0953                65.8952                 2.7988

                     25                     26                     27
                      A                      A                      A
 Frequencies --    433.2488               525.0085               534.3132
 Red. masses --      2.7420                 3.7935                 4.7579
 Frc consts  --      0.3032                 0.6161                 0.8003
 IR Inten    --      3.5390                 5.1892                68.4719

                     28                     29                     30
                      A                      A                      A
 Frequencies --    606.6557               620.2302               641.7937
 Red. masses --      3.3549                 5.3442                 6.2463
 Frc consts  --      0.7275                 1.2113                 1.5159
 IR Inten    --     10.6752               134.6521                37.7034

                     31                     32                     33
                      A                      A                      A
 Frequencies --    685.3976               723.7475               744.2409
 Red. masses --      4.4605                 1.6584                 2.0578
 Frc consts  --      1.2346                 0.5118                 0.6716
 IR Inten    --     92.0530                56.1462                66.3789

                     34                     35                     36
                      A                      A                      A
 Frequencies --    757.2187               798.3268               812.9132
 Red. masses --      2.6805                 4.6670                 2.5405
 Frc consts  --      0.9056                 1.7525                 0.9891
 IR Inten    --    183.0808                48.7485                 7.5743

                     37                     38                     39
                      A                      A                      A
 Frequencies --    852.8811               873.9034               961.0687
 Red. masses --      4.4649                 1.2571                 1.4654
 Frc consts  --      1.9136                 0.5656                 0.7975
 IR Inten    --     94.3683                 1.6189                 2.2585

                     40                     41                     42
                      A                      A                      A
 Frequencies --    986.4856              1000.9312              1014.3981
 Red. masses --      2.1211                 1.2448                 1.3667
 Frc consts  --      1.2162                 0.7348                 0.8286
 IR Inten    --     34.2255                34.8088                 4.9773

                     43                     44                     45
                      A                      A                      A
 Frequencies --   1026.5615              1029.9146              1033.7206
 Red. masses --      5.7171                 1.6738                 1.3839
 Frc consts  --      3.5497                 1.0461                 0.8713
 IR Inten    --     10.7086               206.4564                38.5316

                     46                     47                     48
                      A                      A                      A
 Frequencies --   1066.9969              1071.3390              1085.1353
 Red. masses --      2.0015                 1.3734                 3.8050
 Frc consts  --      1.3426                 0.9288                 2.6398
 IR Inten    --      2.3286                28.5641                32.5590

                     49                     50                     51
                      A                      A                      A
 Frequencies --   1086.9884              1117.5287              1123.0524
 Red. masses --      1.4322                 1.3968                 1.5405
 Frc consts  --      0.9970                 1.0278                 1.1448
 IR Inten    --     20.7080               116.8584                45.2261

                     52                     53                     54
                      A                      A                      A
 Frequencies --   1134.8574              1140.8672              1169.7117
 Red. masses --      1.2661                 1.8522                 1.4000
 Frc consts  --      0.9607                 1.4204                 1.1286
 IR Inten    --     10.2186                73.6508                20.8110

                     55                     56                     57
                      A                      A                      A
 Frequencies --   1185.9638              1215.7137              1231.0323
 Red. masses --      1.1299                 1.1191                 2.0463
 Frc consts  --      0.9363                 0.9745                 1.8271
 IR Inten    --      0.0441                 2.9693               156.0840

                     58                     59                     60
                      A                      A                      A
 Frequencies --   1250.9022              1271.8727              1317.0428
 Red. masses --      1.9643                 5.2286                 4.9336
 Frc consts  --      1.8110                 4.9833                 5.0421
 IR Inten    --     56.1429                54.6438                14.4578

                     61                     62                     63
                      A                      A                      A
 Frequencies --   1322.7481              1359.9183              1371.2349
 Red. masses --      4.6605                 1.4531                 1.2727
 Frc consts  --      4.8044                 1.5833                 1.4099
 IR Inten    --     26.7051                 2.1806                53.0065

                     64                     65                     66
                      A                      A                      A
 Frequencies --   1414.0000              1424.4457              1441.2961
 Red. masses --      1.4220                 2.1267                 1.2760
 Frc consts  --      1.6751                 2.5424                 1.5618
 IR Inten    --     34.6819               834.4189               121.5983

                     67                     68                     69
                      A                      A                      A
 Frequencies --   1449.0264              1464.1225              1474.8648
 Red. masses --      1.3125                 1.5990                 1.2562
 Frc consts  --      1.6236                 2.0195                 1.6099
 IR Inten    --     10.5302               138.4345                14.4234

                     70                     71                     72
                      A                      A                      A
 Frequencies --   1482.8372              1485.2751              1490.3846
 Red. masses --      1.0753                 1.0954                 1.8255
 Frc consts  --      1.3930                 1.4238                 2.3891
 IR Inten    --      0.3670                11.2917                23.6924

                     73                     74                     75
                      A                      A                      A
 Frequencies --   1491.6984              1497.2232              1503.4330
 Red. masses --      1.1297                 1.0836                 1.0604
 Frc consts  --      1.4810                 1.4312                 1.4121
 IR Inten    --     18.5593               118.6841                31.8743

                     76                     77                     78
                      A                      A                      A
 Frequencies --   1505.5079              1517.5679              1536.1686
 Red. masses --      1.0436                 1.0891                 1.5617
 Frc consts  --      1.3937                 1.4778                 2.1713
 IR Inten    --     11.6415                93.4285               185.6713

                     79                     80                     81
                      A                      A                      A
 Frequencies --   1548.2610              1593.7901              1643.0022
 Red. masses --      2.4122                 3.1039                 1.4381
 Frc consts  --      3.4068                 4.6454                 2.2873
 IR Inten    --      5.4692               740.1500                29.9063

                     82                     83                     84
                      A                      A                      A
 Frequencies --   1653.7235              1676.3352              3022.7374
 Red. masses --      4.4576                 5.9666                 1.0470
 Frc consts  --      7.1825                 9.8786                 5.6365
 IR Inten    --      6.0201                 0.7663               112.4771

                     85                     86                     87
                      A                      A                      A
 Frequencies --   3025.5745              3036.3515              3067.2280
 Red. masses --      1.0441                 1.0392                 1.0337
 Frc consts  --      5.6310                 5.6450                 5.7299
 IR Inten    --     88.9753               141.0160                49.1741

                     88                     89                     90
                      A                      A                      A
 Frequencies --   3086.4413              3089.1845              3098.6916
 Red. masses --      1.0930                 1.1008                 1.0949
 Frc consts  --      6.1347                 6.1896                 6.1943
 IR Inten    --     26.7269                90.1903                25.1582

                     91                     92                     93
                      A                      A                      A
 Frequencies --   3119.1266              3139.6703              3169.1249
 Red. masses --      1.1013                 1.1039                 1.1046
 Frc consts  --      6.3126                 6.4115                 6.5362
 IR Inten    --     39.6390                11.6467                24.1870

                     94                     95                     96
                      A                      A                      A
 Frequencies --   3170.7618              3171.3350              3198.2392
 Red. masses --      1.0992                 1.0977                 1.0862
 Frc consts  --      6.5112                 6.5043                 6.5459
 IR Inten    --     12.7213                15.1630                 0.3693

                     97                     98                     99
                      A                      A                      A
 Frequencies --   3206.6836              3216.1140              3224.0007
 Red. masses --      1.0895                 1.0935                 1.0978
 Frc consts  --      6.6006                 6.6641                 6.7229
 IR Inten    --      6.1912                23.2689                20.2846

                    100                    101                    102
                      A                      A                      A
 Frequencies --   3244.8349              3359.5015              3579.0204
 Red. masses --      1.0926                 1.0666                 1.0834
 Frc consts  --      6.7777                 7.0922                 8.1762
 IR Inten    --     15.6391               226.1296                77.7079

 - Thermochemistry -
 -------------------
 Temperature   298.150 Kelvin.  Pressure   1.00000 Atm.
 Atom     1 has atomic number  6 and mass  12.00000

 Molecular mass:   254.11859 amu.
 Principal axes and moments of inertia in atomic units:
                           1         2         3
     Eigenvalues --  2478.324726392.373527072.40353
           X            0.99987   0.01587  -0.00102
           Y           -0.01590   0.99789  -0.06293
           Z            0.00002   0.06294   0.99802
 This molecule is an asymmetric top.
 Rotational symmetry number  1.
 Warning -- assumption of classical behavior for rotation
           may cause significant error
 Rotational temperatures (Kelvin)      0.03495     0.01355     0.01225
 Rotational constants (GHZ):           0.72821     0.28233     0.25518
    1 imaginary frequencies ignored.
 Zero-point vibrational energy     799515.9 (Joules/Mol)
                                  191.08888 (Kcal/Mol)
 Warning -- explicit consideration of  28 degrees of freedom as
           vibrations may cause significant error
 Vibrational temperatures:     56.23    85.53   107.65   115.51   161.02
          (Kelvin)            193.90   210.92   222.44   239.03   252.21
                              271.25   304.84   314.24   330.65   365.35
                              392.06   426.11   433.46   474.70   481.43
                              538.56   556.70   609.99   623.35   755.37
                              768.76   872.84   892.37   923.40   986.13
                             1041.31  1070.80  1089.47  1148.61  1169.60
                             1227.11  1257.35  1382.76  1419.33  1440.12
                             1459.49  1476.99  1481.82  1487.29  1535.17
                             1541.42  1561.27  1563.93  1607.87  1615.82
                             1632.81  1641.45  1682.95  1706.34  1749.14
                             1771.18  1799.77  1829.94  1894.93  1903.14
                             1956.62  1972.90  2034.43  2049.46  2073.70
                             2084.83  2106.55  2122.00  2133.47  2136.98
                             2144.33  2146.22  2154.17  2163.10  2166.09
                             2183.44  2210.20  2227.60  2293.11  2363.91
                             2379.34  2411.87  4349.04  4353.13  4368.63
                             4413.06  4440.70  4444.65  4458.33  4487.73
                             4517.29  4559.66  4562.02  4562.84  4601.55
                             4613.70  4627.27  4638.62  4668.59  4833.57
                             5149.41

 Zero-point correction=                           0.304520 (Hartree/Particle)
 Thermal correction to Energy=                    0.322615
 Thermal correction to Enthalpy=                  0.323559
 Thermal correction to Gibbs Free Energy=         0.258915
 Sum of electronic and zero-point Energies=          -1151.448326
 Sum of electronic and thermal Energies=             -1151.430231
 Sum of electronic and thermal Enthalpies=           -1151.429287
 Sum of electronic and thermal Free Energies=        -1151.493931

                     E (Thermal)             CV                S
                      KCal/Mol        Cal/Mol-Kelvin    Cal/Mol-Kelvin
 Total                  202.444             67.214            136.054
 Electronic               0.000              0.000              0.000
 Translational            0.889              2.981             42.498
 Rotational               0.889              2.981             33.082
 Vibrational            200.666             61.252             60.474
 Vibration     1          0.594              1.981              5.305
 Vibration     2          0.597              1.974              4.475
 Vibration     3          0.599              1.966              4.022
 Vibration     4          0.600              1.963              3.884
 Vibration     5          0.607              1.940              3.235
 Vibration     6          0.613              1.919              2.877
 Vibration     7          0.617              1.906              2.716
 Vibration     8          0.620              1.898              2.615
 Vibration     9          0.624              1.884              2.479
 Vibration    10          0.627              1.873              2.378
 Vibration    11          0.633              1.856              2.242
 Vibration    12          0.643              1.823              2.027
 Vibration    13          0.646              1.813              1.972
 Vibration    14          0.652              1.795              1.880
 Vibration    15          0.665              1.756              1.703
 Vibration    16          0.675              1.724              1.580
 Vibration    17          0.690              1.681              1.439
 Vibration    18          0.693              1.671              1.410
 Vibration    19          0.713              1.616              1.260
 Vibration    20          0.716              1.606              1.238
 Vibration    21          0.745              1.525              1.062
 Vibration    22          0.755              1.498              1.012
 Vibration    23          0.786              1.418              0.879
 Vibration    24          0.794              1.398              0.848
 Vibration    25          0.880              1.195              0.598
 Vibration    26          0.889              1.174              0.578
 Vibration    27          0.965              1.018              0.438
 Vibration    28          0.980              0.989              0.416

 Optimization completed.
    -- Stationary point found.
 Normal termination of Gaussian 16 at Sun Feb  7 19:34:26 2021.
