 Gaussian 16, Revision A.03,
 Gaussian 16:  ES64L-G16RevA.03 25-Dec-2016

 ----------------------------------------------------------------------
 # wB97XD def2tzvp, opt=(ts, noeigen, calcfc, maxcycles=70, maxstep=8),
  freq=noraman, scrf=(iefpcm, solvent=water)
 ----------------------------------------------------------------------

 ------------------------
 1_iteration/TS-177-1.out
 ------------------------
 Symbolic Z-matrix:
 Charge =  0 Multiplicity = 1

 SCF Done:  E(RwB97XD) =  -1017.75734014     A.U. after   15 cycles
 SCF Done:  E(RwB97XD) =  -1017.75734100     A.U. after   10 cycles
 SCF Done:  E(RwB97XD) =  -1017.75732688     A.U. after   12 cycles
 SCF Done:  E(RwB97XD) =  -1017.75734060     A.U. after   12 cycles
 SCF Done:  E(RwB97XD) =  -1017.75734125     A.U. after   10 cycles
 SCF Done:  E(RwB97XD) =  -1017.75734262     A.U. after   10 cycles
 SCF Done:  E(RwB97XD) =  -1017.75734274     A.U. after    8 cycles
 SCF Done:  E(RwB97XD) =  -1017.75734282     A.U. after    8 cycles
 SCF Done:  E(RwB97XD) =  -1017.75734284     A.U. after    8 cycles
 Optimization completed.
    -- Stationary point found.
 Normal termination of Gaussian 16 at Sun Feb  7 08:30:44 2021.

 ---------------------------------------------------------------------
 #N Geom=AllCheck Guess=TCheck SCRF=Check GenChk RwB97XD/def2TZVP Freq
 ---------------------------------------------------------------------

 Structure from the checkpoint file:  "/beegfs/scratch/user/q/tla25/Gau-79036.chk"
 ------------------------
 1_iteration/TS-177-1.out
 ------------------------
 Charge =  0 Multiplicity = 1

                         Standard orientation:
 ---------------------------------------------------------------------
 Center     Atomic      Atomic             Coordinates (Angstroms)
 Number     Number       Type             X           Y           Z
 ---------------------------------------------------------------------
      1          6           0       -1.254344    0.843093   -0.326746
      2          6           0       -2.566222    0.706044   -0.826886
      3          8           0       -3.372203    1.628540   -1.035913
      4          6           0       -0.434094   -0.280774   -0.050528
      5          6           0       -2.150647   -1.003612    1.977498
      6          1           0       -2.279616   -1.301833    3.016219
      7          1           0       -2.599558   -0.024907    1.819760
      8          1           0       -2.629598   -1.730826    1.326265
      9          7           0       -0.730549   -0.920043    1.646556
     10          1           0       -0.258064   -0.294353    2.288217
     11          1           0       -0.272370   -1.823751    1.709932
     12          6           0        1.067330   -0.086005   -0.028219
     13          6           0        1.853546   -0.541908   -1.082463
     14          6           0        3.219517   -0.306663   -1.104018
     15          6           0        3.828327    0.385378   -0.069258
     16          6           0        3.054599    0.853424    0.980953
     17          6           0        1.688080    0.625525    0.997128
     18          1           0        1.399125   -1.083458   -1.899605
     19          1           0        3.808049   -0.671154   -1.936103
     20          1           0        4.895869    0.562901   -0.082766
     21          1           0        3.510796    1.405491    1.792341
     22          1           0        1.115752    1.042399    1.815151
     23         17           0       -0.871273   -1.805974   -0.905453
     24          6           0       -0.783730    2.229957    0.033385
     25          1           0        0.210400    2.456587   -0.355669
     26          1           0       -1.489222    2.942982   -0.391668
     27          1           0       -0.758638    2.408353    1.114133
     28          1           0       -2.884007   -0.321646   -1.067182
 ---------------------------------------------------------------------

 SCF Done:  E(RwB97XD) =  -1017.75734284     A.U. after    1 cycles

 The electronic state is 1-A.
 Alpha  occ. eigenvalues -- -101.70072 -19.19514 -14.50990 -10.41415 -10.33140
 Alpha  occ. eigenvalues --  -10.32370 -10.31821 -10.30312 -10.29870 -10.29733
 Alpha  occ. eigenvalues --  -10.29637 -10.29577 -10.26703 -10.26083  -9.58692
 Alpha  occ. eigenvalues --   -7.33324  -7.32476  -7.32443  -1.09484  -1.06706
 Alpha  occ. eigenvalues --   -0.99069  -0.96180  -0.88875  -0.86093  -0.85856
 Alpha  occ. eigenvalues --   -0.80298  -0.77535  -0.74315  -0.71423  -0.68454
 Alpha  occ. eigenvalues --   -0.65326  -0.62710  -0.60612  -0.58420  -0.57745
 Alpha  occ. eigenvalues --   -0.57000  -0.55604  -0.53174  -0.52796  -0.51746
 Alpha  occ. eigenvalues --   -0.49869  -0.49111  -0.48788  -0.47705  -0.46454
 Alpha  occ. eigenvalues --   -0.45517  -0.45028  -0.43924  -0.43677  -0.43462
 Alpha  occ. eigenvalues --   -0.40465  -0.39986  -0.34526  -0.34325  -0.31213
 Alpha  occ. eigenvalues --   -0.26972
 Alpha virt. eigenvalues --    0.02560   0.04463   0.06525   0.08817   0.09803
 Alpha virt. eigenvalues --    0.12957   0.13933   0.14311   0.14486   0.15746
 Alpha virt. eigenvalues --    0.16962   0.17272   0.17771   0.18786   0.19547

 Mulliken charges:
               1
     1  C   -0.250027
     2  C    0.077467
     3  O   -0.547495
     4  C    0.217708
     5  C   -0.324635
     6  H    0.174359
     7  H    0.173568
     8  H    0.162219
     9  N   -0.239471
    10  H    0.281520
    11  H    0.300803
    12  C    0.261585
    13  C   -0.262295
    14  C   -0.127217
    15  C   -0.151046
    16  C   -0.151516
    17  C   -0.304732
    18  H    0.149151
    19  H    0.147728
    20  H    0.148091
    21  H    0.148519
    22  H    0.167664
    23  Cl  -0.117933
    24  C   -0.390710
    25  H    0.137019
    26  H    0.130604
    27  H    0.117044
    28  H    0.072028
 Sum of Mulliken charges =   0.00000

 Dipole moment (field-independent basis, Debye):
    X=              7.2487    Y=             -5.6506    Z=              8.2650  Tot=             12.3606
 Quadrupole moment (field-independent basis, Debye-Ang):
   XX=           -105.7286   YY=            -96.3889   ZZ=            -79.3391
   XY=             18.2308   XZ=            -14.3994   YZ=              2.8396

  Exact polarizability: 261.924  -8.347 196.436  13.547   9.733 199.309
 Approx polarizability: 201.397  -5.501 165.509   9.355  11.317 172.168

 ******    1 imaginary frequencies (negative Signs) ******

                      1                      2                      3
                      A                      A                      A
 Frequencies --   -336.4960                24.6239                46.3228
 Red. masses --      5.8409                 2.8132                 2.8698
 Frc consts  --      0.3897                 0.0010                 0.0036
 IR Inten    --    847.1050                 4.7732                 1.7023

                      4                      5                      6
                      A                      A                      A
 Frequencies --     58.6701                90.7651               112.3480
 Red. masses --      2.9978                 5.1212                 4.0429
 Frc consts  --      0.0061                 0.0249                 0.0301
 IR Inten    --      1.3051                 4.5860                 9.1677

                      7                      8                      9
                      A                      A                      A
 Frequencies --    158.2565               178.1815               189.1453
 Red. masses --      1.3366                 1.2263                 2.3236
 Frc consts  --      0.0197                 0.0229                 0.0490
 IR Inten    --      1.3518                 0.6451                 2.7044

                     10                     11                     12
                      A                      A                      A
 Frequencies --    231.2792               252.0534               289.2826
 Red. masses --      7.9252                 3.4085                 3.1430
 Frc consts  --      0.2498                 0.1276                 0.1550
 IR Inten    --      7.4770                 2.2494                 8.4415

                     13                     14                     15
                      A                      A                      A
 Frequencies --    302.5823               314.9471               335.6441
 Red. masses --      4.6582                 4.0331                 4.0470
 Frc consts  --      0.2513                 0.2357                 0.2686
 IR Inten    --     12.1889                 3.3850                16.8495

                     16                     17                     18
                      A                      A                      A
 Frequencies --    350.7553               388.7937               414.9708
 Red. masses --      3.3679                 3.5180                 5.1131
 Frc consts  --      0.2441                 0.3133                 0.5188
 IR Inten    --      7.6298                35.4859                34.0289

                     19                     20                     21
                      A                      A                      A
 Frequencies --    423.2667               515.7090               606.8545
 Red. masses --      2.9184                 3.9896                 4.1300
 Frc consts  --      0.3081                 0.6252                 0.8961
 IR Inten    --      0.2359                11.3263               224.8031

                     22                     23                     24
                      A                      A                      A
 Frequencies --    637.6949               655.9627               681.0003
 Red. masses --      6.2273                 6.9235                 1.7407
 Frc consts  --      1.4920                 1.7552                 0.4756
 IR Inten    --     15.1826                48.0101                 0.9045

                     25                     26                     27
                      A                      A                      A
 Frequencies --    726.7750               769.5017               797.1615
 Red. masses --      1.5883                 2.5674                 2.1544
 Frc consts  --      0.4943                 0.8957                 0.8066
 IR Inten    --     87.8447                70.1164                21.9676

                     28                     29                     30
                      A                      A                      A
 Frequencies --    875.3170               894.9990               917.7851
 Red. masses --      1.2572                 3.7814                 3.9476
 Frc consts  --      0.5675                 1.7846                 1.9591
 IR Inten    --      2.7786               128.3372                 9.0702

                     31                     32                     33
                      A                      A                      A
 Frequencies --    963.8327              1013.7084              1015.1823
 Red. masses --      1.4211                 1.3743                 1.4303
 Frc consts  --      0.7778                 0.8320                 0.8685
 IR Inten    --      4.9113               114.1564                65.9571

                     34                     35                     36
                      A                      A                      A
 Frequencies --   1025.1826              1027.2941              1033.5596
 Red. masses --      3.2053                 1.9713                 1.3315
 Frc consts  --      1.9848                 1.2257                 0.8380
 IR Inten    --      5.8606                 4.8979                34.3226

                     37                     38                     39
                      A                      A                      A
 Frequencies --   1038.2624              1060.4118              1067.5867
 Red. masses --      1.4002                 1.4960                 1.4958
 Frc consts  --      0.8893                 0.9911                 1.0044
 IR Inten    --     60.0474                42.1409                 8.3944

                     40                     41                     42
                      A                      A                      A
 Frequencies --   1072.5721              1091.8268              1128.5314
 Red. masses --      2.0793                 2.2844                 1.5619
 Frc consts  --      1.4094                 1.6045                 1.1720
 IR Inten    --      1.3455               100.3859                 9.1552

                     43                     44                     45
                      A                      A                      A
 Frequencies --   1187.9124              1220.2904              1222.6209
 Red. masses --      1.1284                 3.2358                 1.1748
 Frc consts  --      0.9382                 2.8390                 1.0347
 IR Inten    --      0.3742                81.6132                 5.2615

                     46                     47                     48
                      A                      A                      A
 Frequencies --   1260.9669              1319.7968              1341.9128
 Red. masses --      1.3558                 4.4217                 1.4236
 Frc consts  --      1.2702                 4.5379                 1.5104
 IR Inten    --     51.7550                26.8525                 6.5481

                     49                     50                     51
                      A                      A                      A
 Frequencies --   1361.6871              1370.4676              1372.6357
 Red. masses --      2.9308                 1.8556                 2.3600
 Frc consts  --      3.2017                 2.0534                 2.6198
 IR Inten    --    183.6545               384.9114               347.6069

                     52                     53                     54
                      A                      A                      A
 Frequencies --   1399.3189              1453.6622              1475.3196
 Red. masses --      1.3875                 1.1829                 1.1359
 Frc consts  --      1.6007                 1.4728                 1.4566
 IR Inten    --    121.3328                 4.3532                42.6729

                     55                     56                     57
                      A                      A                      A
 Frequencies --   1489.5577              1491.6807              1494.0097
 Red. masses --      1.4140                 1.7326                 1.0493
 Frc consts  --      1.8485                 2.2714                 1.3799
 IR Inten    --     22.9410                17.9758                19.2138

                     58                     59                     60
                      A                      A                      A
 Frequencies --   1498.0210              1508.9439              1545.3174
 Red. masses --      1.0392                 1.3054                 2.2301
 Frc consts  --      1.3740                 1.7512                 3.1377
 IR Inten    --     22.7344                26.9262                 4.9684

                     61                     62                     63
                      A                      A                      A
 Frequencies --   1631.0474              1636.2736              1652.9273
 Red. masses --      1.0978                 4.3314                 5.4718
 Frc consts  --      1.7206                 6.8327                 8.8083
 IR Inten    --     84.8180              1198.7866                 1.4191

                     64                     65                     66
                      A                      A                      A
 Frequencies --   1675.6861              2985.7789              3021.8512
 Red. masses --      5.8543                 1.0810                 1.0485
 Frc consts  --      9.6853                 5.6780                 5.6412
 IR Inten    --      0.2280               114.7348                74.9525

                     67                     68                     69
                      A                      A                      A
 Frequencies --   3084.3081              3090.6392              3138.5874
 Red. masses --      1.0324                 1.0887                 1.0996
 Frc consts  --      5.7867                 6.1273                 6.3819
 IR Inten    --     20.5091                42.2096                13.2851

                     70                     71                     72
                      A                      A                      A
 Frequencies --   3169.8932              3181.9459              3200.9978
 Red. masses --      1.1055                 1.1063                 1.0861
 Frc consts  --      6.5447                 6.5995                 6.5568
 IR Inten    --      2.5457                 5.7801                 2.8741

                     73                     74                     75
                      A                      A                      A
 Frequencies --   3207.3354              3216.3267              3226.5814
 Red. masses --      1.0890                 1.0932                 1.0973
 Frc consts  --      6.6002                 6.6632                 6.7310
 IR Inten    --      4.6025                28.7025                16.6972

                     76                     77                     78
                      A                      A                      A
 Frequencies --   3237.2117              3520.4805              3602.0412
 Red. masses --      1.0939                 1.0518                 1.0951
 Frc consts  --      6.7538                 7.6805                 8.3715
 IR Inten    --      4.5076                76.6749                57.9289

 - Thermochemistry -
 -------------------
 Temperature   298.150 Kelvin.  Pressure   1.00000 Atm.
 Atom     1 has atomic number  6 and mass  12.00000

 Molecular mass:   211.07639 amu.
 Principal axes and moments of inertia in atomic units:
                           1         2         3
     Eigenvalues --  1928.750694271.724514552.56648
           X            0.99971   0.00921  -0.02213
           Y           -0.01000   0.99931  -0.03574
           Z            0.02178   0.03595   0.99912
 This molecule is an asymmetric top.
 Rotational symmetry number  1.
 Warning -- assumption of classical behavior for rotation
           may cause significant error
 Rotational temperatures (Kelvin)      0.04491     0.02028     0.01903
 Rotational constants (GHZ):           0.93570     0.42249     0.39642
    1 imaginary frequencies ignored.
 Zero-point vibrational energy     605744.9 (Joules/Mol)
                                  144.77650 (Kcal/Mol)
 Warning -- explicit consideration of  20 degrees of freedom as
           vibrations may cause significant error
 Vibrational temperatures:     35.43    66.65    84.41   130.59   161.64
          (Kelvin)            227.70   256.36   272.14   332.76   362.65
                              416.21   435.35   453.14   482.92   504.66
                              559.39   597.05   608.99   741.99   873.13
                              917.50   943.78   979.81  1045.67  1107.14
                             1146.94  1259.39  1287.70  1320.49  1386.74
                             1458.50  1460.62  1475.01  1478.05  1487.06
                             1493.83  1525.70  1536.02  1543.19  1570.90
                             1623.70  1709.14  1755.73  1759.08  1814.25
                             1898.89  1930.71  1959.16  1971.80  1974.92
                             2013.31  2091.50  2122.66  2143.14  2146.20
                             2149.55  2155.32  2171.03  2223.37  2346.71
                             2354.23  2378.19  2410.94  4295.87  4347.77
                             4437.63  4446.74  4515.73  4560.77  4578.11
                             4605.52  4614.64  4627.58  4642.33  4657.63
                             5065.19  5182.53

 Zero-point correction=                           0.230716 (Hartree/Particle)
 Thermal correction to Energy=                    0.244990
 Thermal correction to Enthalpy=                  0.245935
 Thermal correction to Gibbs Free Energy=         0.188309
 Sum of electronic and zero-point Energies=          -1017.526627
 Sum of electronic and thermal Energies=             -1017.512352
 Sum of electronic and thermal Enthalpies=           -1017.511408
 Sum of electronic and thermal Free Energies=        -1017.569034

                     E (Thermal)             CV                S
                      KCal/Mol        Cal/Mol-Kelvin    Cal/Mol-Kelvin
 Total                  153.734             52.397            121.284
 Electronic               0.000              0.000              0.000
 Translational            0.889              2.981             41.945
 Rotational               0.889              2.981             31.995
 Vibrational            151.956             46.435             47.344
 Vibration     1          0.593              1.985              6.221
 Vibration     2          0.595              1.979              4.969
 Vibration     3          0.596              1.974              4.501
 Vibration     4          0.602              1.956              3.644
 Vibration     5          0.607              1.939              3.228
 Vibration     6          0.621              1.893              2.571
 Vibration     7          0.629              1.869              2.347
 Vibration     8          0.633              1.855              2.236
 Vibration     9          0.653              1.793              1.869
 Vibration    10          0.664              1.759              1.716
 Vibration    11          0.686              1.694              1.478
 Vibration    12          0.694              1.669              1.403
 Vibration    13          0.702              1.645              1.336
 Vibration    14          0.717              1.604              1.233
 Vibration    15          0.728              1.574              1.163
 Vibration    16          0.757              1.494              1.005
 Vibration    17          0.778              1.438              0.909
 Vibration    18          0.785              1.420              0.881
 Vibration    19          0.871              1.215              0.620
 Vibration    20          0.966              1.017              0.438

 Optimization completed on the basis of negligible forces.
    -- Stationary point found.
 Normal termination of Gaussian 16 at Sun Feb  7 09:20:22 2021.
