 Gaussian 16, Revision A.03,
 Gaussian 16:  ES64L-G16RevA.03 25-Dec-2016

 ----------------------------------------------------------------------
 # wB97XD def2tzvp, opt=(ts, noeigen, calcfc, maxcycles=70, maxstep=5),
  freq=noraman, scrf=(iefpcm, solvent=water)
 ----------------------------------------------------------------------

 ------------------------
 2_iteration/TS-179-2.out
 ------------------------
 Symbolic Z-matrix:
 Charge =  0 Multiplicity = 1

 SCF Done:  E(RwB97XD) =  -1073.13913979     A.U. after   15 cycles
 SCF Done:  E(RwB97XD) =  -1073.13932186     A.U. after   12 cycles
 SCF Done:  E(RwB97XD) =  -1073.13935052     A.U. after   12 cycles
 SCF Done:  E(RwB97XD) =  -1073.13941191     A.U. after   12 cycles
 SCF Done:  E(RwB97XD) =  -1073.13944019     A.U. after   12 cycles
 SCF Done:  E(RwB97XD) =  -1073.13949793     A.U. after   12 cycles
 SCF Done:  E(RwB97XD) =  -1073.13952380     A.U. after   12 cycles
 SCF Done:  E(RwB97XD) =  -1073.13947014     A.U. after   13 cycles
 SCF Done:  E(RwB97XD) =  -1073.13952568     A.U. after   12 cycles
 SCF Done:  E(RwB97XD) =  -1073.13954625     A.U. after   12 cycles
 SCF Done:  E(RwB97XD) =  -1073.13957449     A.U. after   10 cycles
 SCF Done:  E(RwB97XD) =  -1073.13957538     A.U. after   10 cycles
 SCF Done:  E(RwB97XD) =  -1073.13957564     A.U. after    9 cycles
 SCF Done:  E(RwB97XD) =  -1073.13957617     A.U. after    9 cycles
 SCF Done:  E(RwB97XD) =  -1073.13957046     A.U. after   11 cycles
 SCF Done:  E(RwB97XD) =  -1073.13957626     A.U. after   11 cycles
 SCF Done:  E(RwB97XD) =  -1073.13957627     A.U. after    7 cycles
 SCF Done:  E(RwB97XD) =  -1073.13957629     A.U. after    7 cycles
 Optimization completed.
    -- Stationary point found.
 Normal termination of Gaussian 16 at Sun Feb  7 11:30:14 2021.

 ---------------------------------------------------------------------
 #N Geom=AllCheck Guess=TCheck SCRF=Check GenChk RwB97XD/def2TZVP Freq
 ---------------------------------------------------------------------

 Structure from the checkpoint file:  "/beegfs/scratch/user/q/tla25/Gau-12404.chk"
 ------------------------
 2_iteration/TS-179-2.out
 ------------------------
 Charge =  0 Multiplicity = 1

                         Standard orientation:
 ---------------------------------------------------------------------
 Center     Atomic      Atomic             Coordinates (Angstroms)
 Number     Number       Type             X           Y           Z
 ---------------------------------------------------------------------
      1          6           0        1.127817   -0.528888   -0.706258
      2          6           0        2.569762   -0.510939   -0.569797
      3          8           0        3.277961   -1.437149   -0.985168
      4          6           0        0.270970    0.361297   -0.070310
      5          6           0        0.882689   -0.860600    2.407025
      6          1           0        1.583392   -0.760270    3.234124
      7          1           0       -0.045153   -1.289516    2.773679
      8          1           0        1.317299   -1.518901    1.650993
      9          7           0        0.629476    0.435672    1.786392
     10          1           0       -0.134556    0.940869    2.220206
     11          1           0        1.460692    1.012623    1.831033
     12          6           0       -1.211857    0.118703   -0.096810
     13          6           0       -2.124012    1.021382   -0.632172
     14          6           0       -3.481067    0.729915   -0.651572
     15          6           0       -3.950516   -0.462441   -0.127044
     16          6           0       -3.049060   -1.372474    0.407224
     17          6           0       -1.695765   -1.086364    0.415967
     18          1           0       -1.781349    1.958060   -1.045727
     19          1           0       -4.171314    1.445389   -1.079741
     20          1           0       -5.009750   -0.685124   -0.137599
     21          1           0       -3.398373   -2.313166    0.812986
     22          1           0       -1.005662   -1.821406    0.803925
     23         17           0        0.608282    2.206497   -0.264288
     24          6           0        0.591918   -1.685748   -1.523382
     25          1           0        0.569800   -2.631926   -0.972893
     26          1           0       -0.413969   -1.493587   -1.891126
     27          1           0        1.238428   -1.840756   -2.387714
     28          7           0        3.180340    0.521626    0.122819
     29          1           0        4.185328    0.496295    0.055907
     30          1           0        2.786720    1.444015    0.024494
 ---------------------------------------------------------------------

 SCF Done:  E(RwB97XD) =  -1073.13957629     A.U. after    1 cycles

 The electronic state is 1-A.
 Alpha  occ. eigenvalues -- -101.68811 -19.19807 -14.49750 -14.43300 -10.40587
 Alpha  occ. eigenvalues --  -10.37352 -10.32013 -10.31495 -10.29822 -10.29717
 Alpha  occ. eigenvalues --  -10.29582 -10.29509 -10.29457 -10.26693 -10.26376
 Alpha  occ. eigenvalues --   -9.57447  -7.32002  -7.31265  -7.31240  -1.12240
 Alpha  occ. eigenvalues --   -1.05398  -0.98993  -0.98144  -0.94634  -0.88781
 Alpha  occ. eigenvalues --   -0.85819  -0.85387  -0.79681  -0.77400  -0.73820
 Alpha  occ. eigenvalues --   -0.71147  -0.68217  -0.65048  -0.63163  -0.61369
 Alpha  occ. eigenvalues --   -0.59528  -0.58335  -0.57496  -0.56024  -0.55640
 Alpha  occ. eigenvalues --   -0.52808  -0.52089  -0.51599  -0.50388  -0.49456
 Alpha  occ. eigenvalues --   -0.48485  -0.47728  -0.46699  -0.45896  -0.45367
 Alpha  occ. eigenvalues --   -0.45053  -0.43052  -0.43029  -0.39850  -0.39119
 Alpha  occ. eigenvalues --   -0.35766  -0.34376  -0.34248  -0.33004  -0.27018
 Alpha virt. eigenvalues --    0.01881   0.04752   0.06193   0.08078   0.10586
 Alpha virt. eigenvalues --    0.12227   0.13652   0.14074   0.14830   0.15768
 Alpha virt. eigenvalues --    0.16616   0.17221   0.17877   0.18470   0.19653

 Mulliken charges:
               1
     1  C   -0.201925
     2  C    0.251299
     3  O   -0.525617
     4  C    0.231548
     5  C   -0.332643
     6  H    0.167587
     7  H    0.171186
     8  H    0.165421
     9  N   -0.268217
    10  H    0.294083
    11  H    0.277288
    12  C    0.048099
    13  C   -0.223091
    14  C   -0.134054
    15  C   -0.146057
    16  C   -0.137326
    17  C   -0.255630
    18  H    0.145371
    19  H    0.145872
    20  H    0.147049
    21  H    0.145864
    22  H    0.194288
    23  Cl  -0.199892
    24  C   -0.365238
    25  H    0.110196
    26  H    0.140272
    27  H    0.128834
    28  N   -0.487689
    29  H    0.255108
    30  H    0.258014
 Sum of Mulliken charges =  -0.00000

 Dipole moment (field-independent basis, Debye):
    X=             -5.2568    Y=              3.0512    Z=              7.2332  Tot=              9.4479
 Quadrupole moment (field-independent basis, Debye-Ang):
   XX=            -99.9749   YY=            -99.4123   ZZ=            -90.4778
   XY=             15.4010   XZ=             11.0810   YZ=             -5.2323

  Exact polarizability: 275.308  -9.552 233.301  -4.921  -5.534 188.354
 Approx polarizability: 208.498  -7.507 199.275  -1.990  -6.011 159.707

 ******    1 imaginary frequencies (negative Signs) ******

                      1                      2                      3
                      A                      A                      A
 Frequencies --   -385.2101                24.8019                82.0338
 Red. masses --      5.8019                 3.8603                 4.7704
 Frc consts  --      0.5072                 0.0014                 0.0189
 IR Inten    --    390.6953                 1.2309                10.9209

                      4                      5                      6
                      A                      A                      A
 Frequencies --     88.7777                98.4401               114.5879
 Red. masses --      4.2627                 4.4029                 2.9439
 Frc consts  --      0.0198                 0.0251                 0.0228
 IR Inten    --      5.4046                 7.2316                 6.2809

                      7                      8                      9
                      A                      A                      A
 Frequencies --    145.0903               163.5712               179.8644
 Red. masses --      1.1198                 2.1557                 3.4507
 Frc consts  --      0.0139                 0.0340                 0.0658
 IR Inten    --      0.7635                 2.5580                14.5156

                     10                     11                     12
                      A                      A                      A
 Frequencies --    207.9919               225.7381               251.1596
 Red. masses --      2.8639                 1.5973                 4.1446
 Frc consts  --      0.0730                 0.0480                 0.1540
 IR Inten    --     13.5725                 4.5349                 6.9149

                     13                     14                     15
                      A                      A                      A
 Frequencies --    262.1975               300.8028               306.5194
 Red. masses --      5.6619                 3.8486                 7.4186
 Frc consts  --      0.2293                 0.2052                 0.4107
 IR Inten    --      5.2579                 4.3679                88.8222

                     16                     17                     18
                      A                      A                      A
 Frequencies --    324.0381               342.0811               362.6164
 Red. masses --      4.4080                 3.5454                 3.3325
 Frc consts  --      0.2727                 0.2444                 0.2582
 IR Inten    --     14.9243                22.6164                 7.9473

                     19                     20                     21
                      A                      A                      A
 Frequencies --    427.5550               482.4919               508.5480
 Red. masses --      2.8849                 3.9800                 1.5143
 Frc consts  --      0.3107                 0.5459                 0.2307
 IR Inten    --      1.4117                69.8854                69.2656

                     22                     23                     24
                      A                      A                      A
 Frequencies --    518.9692               588.1579               604.5812
 Red. masses --      2.1028                 1.3688                 2.8628
 Frc consts  --      0.3337                 0.2790                 0.6165
 IR Inten    --     19.4564               346.8924                12.2998

                     25                     26                     27
                      A                      A                      A
 Frequencies --    618.1426               635.9363               663.4384
 Red. masses --      3.4895                 5.7809                 4.8491
 Frc consts  --      0.7856                 1.3774                 1.2575
 IR Inten    --     72.6904                28.7006                94.9990

                     28                     29                     30
                      A                      A                      A
 Frequencies --    690.5919               726.5333               780.1567
 Red. masses --      1.7695                 1.6271                 2.6772
 Frc consts  --      0.4972                 0.5060                 0.9601
 IR Inten    --     62.4616                71.7200               223.8631

                     31                     32                     33
                      A                      A                      A
 Frequencies --    802.4268               820.5130               878.7333
 Red. masses --      6.7339                 2.9857                 1.2464
 Frc consts  --      2.5546                 1.1843                 0.5670
 IR Inten    --     91.9875                86.6474                 0.7939

                     34                     35                     36
                      A                      A                      A
 Frequencies --    881.1813               969.3828              1011.2552
 Red. masses --      3.1145                 1.4171                 1.5635
 Frc consts  --      1.4248                 0.7846                 0.9420
 IR Inten    --     38.7891                 4.4136               171.8602

                     37                     38                     39
                      A                      A                      A
 Frequencies --   1019.6925              1027.0910              1037.0042
 Red. masses --      1.4244                 4.6891                 1.2965
 Frc consts  --      0.8726                 2.9145                 0.8215
 IR Inten    --      1.6665                 3.0992                 9.6451

                     40                     41                     42
                      A                      A                      A
 Frequencies --   1038.5260              1066.4856              1068.8595
 Red. masses --      1.3428                 1.3852                 2.0330
 Frc consts  --      0.8533                 0.9282                 1.3685
 IR Inten    --     46.3521                 3.0337                11.5224

                     43                     44                     45
                      A                      A                      A
 Frequencies --   1079.4299              1091.6386              1096.7027
 Red. masses --      3.3005                 1.7051                 1.4934
 Frc consts  --      2.2658                 1.1972                 1.0583
 IR Inten    --     98.0785               108.8559                39.4883

                     46                     47                     48
                      A                      A                      A
 Frequencies --   1126.5063              1176.0539              1187.5203
 Red. masses --      1.5664                 2.7334                 1.1283
 Frc consts  --      1.1712                 2.2275                 0.9375
 IR Inten    --      2.2520                21.8046                 0.6570

                     49                     50                     51
                      A                      A                      A
 Frequencies --   1221.4338              1222.0604              1242.1576
 Red. masses --      1.1648                 1.3659                 3.2875
 Frc consts  --      1.0239                 1.2018                 2.9886
 IR Inten    --      7.8367                45.1503                15.9366

                     52                     53                     54
                      A                      A                      A
 Frequencies --   1322.6007              1340.8515              1366.5889
 Red. masses --      4.7251                 1.2941                 1.4257
 Frc consts  --      4.8699                 1.3709                 1.5688
 IR Inten    --      4.1217                15.5602                 2.6443

                     55                     56                     57
                      A                      A                      A
 Frequencies --   1394.5812              1405.2976              1441.7890
 Red. masses --      4.7248                 1.2947                 1.6049
 Frc consts  --      5.4140                 1.5065                 1.9657
 IR Inten    --    592.3455                17.3865               324.1582

                     58                     59                     60
                      A                      A                      A
 Frequencies --   1462.5346              1471.0823              1491.7458
 Red. masses --      1.5469                 1.1016                 2.0507
 Frc consts  --      1.9495                 1.4046                 2.6887
 IR Inten    --    162.5092                 7.9998                32.9226

                     61                     62                     63
                      A                      A                      A
 Frequencies --   1500.5684              1504.6653              1507.7437
 Red. masses --      1.0433                 1.0550                 1.3155
 Frc consts  --      1.3840                 1.4073                 1.7620
 IR Inten    --     10.0832                30.7709               268.6046

                     64                     65                     66
                      A                      A                      A
 Frequencies --   1547.6291              1604.7027              1621.3620
 Red. masses --      2.3159                 1.4386                 1.0930
 Frc consts  --      3.2682                 2.1826                 1.6929
 IR Inten    --     21.2213               465.3401               117.1258

                     67                     68                     69
                      A                      A                      A
 Frequencies --   1651.2041              1654.9690              1675.7661
 Red. masses --      4.6258                 4.3475                 5.8639
 Frc consts  --      7.4309                 7.0156                 9.7020
 IR Inten    --    298.4579               425.3246                 0.4285

                     70                     71                     72
                      A                      A                      A
 Frequencies --   3028.4615              3061.2021              3100.2367
 Red. masses --      1.0500                 1.0391                 1.0878
 Frc consts  --      5.6737                 5.7372                 6.1601
 IR Inten    --     98.0440                31.4281                41.3880

                     73                     74                     75
                      A                      A                      A
 Frequencies --   3141.3432              3147.1664              3185.3571
 Red. masses --      1.0987                 1.1000                 1.1047
 Frc consts  --      6.3880                 6.4190                 6.6039
 IR Inten    --      7.0561                28.4728                11.6474

                     76                     77                     78
                      A                      A                      A
 Frequencies --   3200.8252              3210.3985              3222.3426
 Red. masses --      1.0865                 1.0908                 1.0961
 Frc consts  --      6.5588                 6.6241                 6.7055
 IR Inten    --      0.1756                14.3123                24.0592

                     79                     80                     81
                      A                      A                      A
 Frequencies --   3239.7079              3247.6519              3532.6304
 Red. masses --      1.0933                 1.0921                 1.0509
 Frc consts  --      6.7606                 6.7866                 7.7268
 IR Inten    --      7.4338                 2.7856                48.4520

                     82                     83                     84
                      A                      A                      A
 Frequencies --   3574.5850              3616.0716              3684.5195
 Red. masses --      1.0482                 1.0964                 1.0993
 Frc consts  --      7.8910                 8.4466                 8.7926
 IR Inten    --     37.7003                77.2231               100.8259

 - Thermochemistry -
 -------------------
 Temperature   298.150 Kelvin.  Pressure   1.00000 Atm.
 Atom     1 has atomic number  6 and mass  12.00000

 Molecular mass:   226.08729 amu.
 Principal axes and moments of inertia in atomic units:
                           1         2         3
     Eigenvalues --  2081.801984684.002245141.36018
           X            0.99991   0.00498   0.01229
           Y           -0.00486   0.99994  -0.00965
           Z           -0.01234   0.00959   0.99988
 This molecule is an asymmetric top.
 Rotational symmetry number  1.
 Warning -- assumption of classical behavior for rotation
           may cause significant error
 Rotational temperatures (Kelvin)      0.04161     0.01849     0.01685
 Rotational constants (GHZ):           0.86691     0.38530     0.35102
    1 imaginary frequencies ignored.
 Zero-point vibrational energy     651655.3 (Joules/Mol)
                                  155.74934 (Kcal/Mol)
 Warning -- explicit consideration of  24 degrees of freedom as
           vibrations may cause significant error
 Vibrational temperatures:     35.68   118.03   127.73   141.63   164.87
          (Kelvin)            208.75   235.34   258.78   299.25   324.79
                              361.36   377.24   432.79   441.01   466.22
                              492.18   521.72   615.16   694.20   731.69
                              746.68   846.23   869.86   889.37   914.97
                              954.54   993.61  1045.32  1122.47  1154.51
                             1180.54  1264.30  1267.82  1394.73  1454.97
                             1467.11  1477.75  1492.02  1494.21  1534.43
                             1537.85  1553.06  1570.62  1577.91  1620.79
                             1692.08  1708.58  1757.37  1758.27  1787.19
                             1902.93  1929.19  1966.22  2006.49  2021.91
                             2074.41  2104.26  2116.56  2146.29  2158.98
                             2164.88  2169.31  2226.69  2308.81  2332.78
                             2375.71  2381.13  2411.05  4357.28  4404.39
                             4460.55  4519.69  4528.07  4583.02  4605.27
                             4619.05  4636.23  4661.22  4672.65  5082.67
                             5143.03  5202.72  5301.20

 Zero-point correction=                           0.248202 (Hartree/Particle)
 Thermal correction to Energy=                    0.263530
 Thermal correction to Enthalpy=                  0.264474
 Thermal correction to Gibbs Free Energy=         0.205594
 Sum of electronic and zero-point Energies=          -1072.891374
 Sum of electronic and thermal Energies=             -1072.876046
 Sum of electronic and thermal Enthalpies=           -1072.875102
 Sum of electronic and thermal Free Energies=        -1072.933982

                     E (Thermal)             CV                S
                      KCal/Mol        Cal/Mol-Kelvin    Cal/Mol-Kelvin
 Total                  165.368             57.691            123.923
 Electronic               0.000              0.000              0.000
 Translational            0.889              2.981             42.150
 Rotational               0.889              2.981             32.283
 Vibrational            163.590             51.730             49.490
 Vibration     1          0.593              1.985              6.207
 Vibration     2          0.600              1.961              3.842
 Vibration     3          0.602              1.957              3.687
 Vibration     4          0.604              1.950              3.485
 Vibration     5          0.608              1.937              3.190
 Vibration     6          0.616              1.908              2.736
 Vibration     7          0.623              1.887              2.508
 Vibration     8          0.629              1.867              2.330
 Vibration     9          0.641              1.828              2.061
 Vibration    10          0.650              1.802              1.913
 Vibration    11          0.663              1.761              1.722
 Vibration    12          0.669              1.742              1.647
 Vibration    13          0.693              1.672              1.412
 Vibration    14          0.697              1.661              1.381
 Vibration    15          0.709              1.627              1.290
 Vibration    16          0.721              1.591              1.202
 Vibration    17          0.736              1.549              1.111
 Vibration    18          0.789              1.410              0.867
 Vibration    19          0.839              1.289              0.703
 Vibration    20          0.864              1.231              0.637
 Vibration    21          0.874              1.208              0.612
 Vibration    22          0.945              1.057              0.470
 Vibration    23          0.963              1.022              0.442
 Vibration    24          0.978              0.994              0.419

 Optimization completed.
    -- Stationary point found.
 Normal termination of Gaussian 16 at Sun Feb  7 12:34:30 2021.
