 Gaussian 16, Revision A.03,
 Gaussian 16:  ES64L-G16RevA.03 25-Dec-2016

 ----------------------------------------------------------------------
 # wB97XD def2tzvp, opt=(ts, noeigen, calcfc, maxcycles=70, maxstep=3),
  freq=noraman, scrf=(iefpcm, solvent=water)
 ----------------------------------------------------------------------

 ------------------------
 0_iteration/TS-125-0.out
 ------------------------
 Symbolic Z-matrix:
 Charge =  0 Multiplicity = 1

 SCF Done:  E(RwB97XD) =  -3418.19717325     A.U. after   16 cycles
 Optimization completed.
    -- Stationary point found.
 Normal termination of Gaussian 16 at Thu Apr  8 09:57:46 2021.

 ---------------------------------------------------------------------
 #N Geom=AllCheck Guess=TCheck SCRF=Check GenChk RwB97XD/def2TZVP Freq
 ---------------------------------------------------------------------

 Structure from the checkpoint file:  "/beegfs/scratch/user/q/tla25/Gau-80896.chk"
 ------------------------
 0_iteration/TS-125-0.out
 ------------------------
 Charge =  0 Multiplicity = 1

                         Standard orientation:
 ---------------------------------------------------------------------
 Center     Atomic      Atomic             Coordinates (Angstroms)
 Number     Number       Type             X           Y           Z
 ---------------------------------------------------------------------
      1          6           0       -0.843800    0.166599   -0.007697
      2          6           0       -2.268900   -0.147012    0.103803
      3          8           0       -2.695799   -1.211212    0.582103
      4          6           0        0.094601   -0.846200    0.065103
      5          6           0       -0.282899   -1.005200    2.949503
      6          1           0       -0.914999   -1.456001    3.715903
      7          1           0        0.713601   -0.849400    3.355103
      8          1           0       -0.716300   -0.040701    2.670103
      9          7           0       -0.220989   -1.831900    1.758403
     10          1           0        0.418212   -2.612400    1.834603
     11          1           0       -1.153488   -2.142701    1.494403
     12          6           0        1.557200   -0.535589    0.127103
     13          6           0        2.493901   -1.057688   -0.758697
     14          6           0        3.831000   -0.695377   -0.675397
     15          6           0        4.259700    0.185523    0.303103
     16          6           0        3.336089    0.709323    1.197303
     17          6           0        2.002390    0.355711    1.106903
     18          1           0        2.182511   -1.744588   -1.531497
     19          1           0        4.537901   -1.108676   -1.383497
     20          1           0        5.303589    0.464434    0.369303
     21          1           0        3.653289    1.402023    1.966403
     22          1           0        1.294289    0.797011    1.792003
     23         35           0       -0.274588   -2.510000   -1.020797
     24          6           0       -0.425811    1.580499   -0.215997
     25          6           0        0.305288    1.954000   -1.344497
     26          6           0        0.708277    3.266900   -1.537197
     27          6           0        0.367876    4.243600   -0.612597
     28          6           0       -0.378623    3.894600    0.504903
     29          6           0       -0.766422    2.578399    0.699903
     30          1           0        0.567989    1.198000   -2.074397
     31          1           0        1.283177    3.528611   -2.416897
     32          1           0        0.678365    5.269900   -0.762597
     33          1           0       -0.649834    4.648199    1.233803
     34          1           0       -1.334822    2.312189    1.583703
     35          7           0       -3.144911    0.790777   -0.327097
     36          6           0       -4.571511    0.636876   -0.179097
     37          1           0       -2.788312    1.639988   -0.725197
     38          1           0       -4.848611    0.502566    0.868603
     39          1           0       -5.058011    1.533566   -0.556897
     40          1           0       -4.940400   -0.224234   -0.739697
 ---------------------------------------------------------------------

 SCF Done:  E(RwB97XD) =  -3418.19717325     A.U. after    1 cycles

 The electronic state is 1-A.
 Alpha  occ. eigenvalues -- -483.11608 -62.66447 -56.45546 -56.45222 -56.45208
 Alpha  occ. eigenvalues --  -19.20553 -14.47041 -14.44789 -10.39481 -10.37839
 Alpha  occ. eigenvalues --  -10.31285 -10.31223 -10.30741 -10.30143 -10.29531
 Alpha  occ. eigenvalues --  -10.29443 -10.29414 -10.29293 -10.29268 -10.28880
 Alpha  occ. eigenvalues --  -10.28821 -10.28732 -10.28656 -10.28569 -10.27102
 Alpha  occ. eigenvalues --   -8.80537  -6.62619  -6.61603  -6.61557  -2.73006
 Alpha  occ. eigenvalues --   -2.72734  -2.72697  -2.71874  -2.71874  -1.13137
 Alpha  occ. eigenvalues --   -1.02946  -1.01513  -0.97974  -0.96469  -0.92491
 Alpha  occ. eigenvalues --   -0.87423  -0.85838  -0.85171  -0.84860  -0.82170
 Alpha  occ. eigenvalues --   -0.79759  -0.78156  -0.73352  -0.70860  -0.70176
 Alpha  occ. eigenvalues --   -0.69599  -0.67927  -0.65690  -0.62795  -0.61738
 Alpha  occ. eigenvalues --   -0.61064  -0.57793  -0.56875  -0.56257  -0.55242
 Alpha  occ. eigenvalues --   -0.54853  -0.54424  -0.53635  -0.53372  -0.52401
 Alpha  occ. eigenvalues --   -0.51474  -0.51282  -0.50638  -0.49610  -0.48030
 Alpha  occ. eigenvalues --   -0.47783  -0.47207  -0.47093  -0.46363  -0.45973
 Alpha  occ. eigenvalues --   -0.44254  -0.43604  -0.42635  -0.42216  -0.42037
 Alpha  occ. eigenvalues --   -0.37000  -0.36607  -0.35295  -0.34300  -0.34016
 Alpha  occ. eigenvalues --   -0.33520  -0.33148  -0.32491  -0.26717
 Alpha virt. eigenvalues --    0.00773   0.04251   0.05263   0.05609   0.05897
 Alpha virt. eigenvalues --    0.08128   0.10848   0.12594   0.13113   0.13690
 Alpha virt. eigenvalues --    0.13805   0.14464   0.15814   0.16295   0.16404

 Mulliken charges:
               1
     1  C   -0.279706
     2  C    0.397704
     3  O   -0.569401
     4  C    0.284173
     5  C   -0.318028
     6  H    0.156377
     7  H    0.160704
     8  H    0.144557
     9  N   -0.316309
    10  H    0.276209
    11  H    0.278245
    12  C    0.104016
    13  C   -0.231926
    14  C   -0.138471
    15  C   -0.134951
    16  C   -0.171447
    17  C   -0.253831
    18  H    0.144690
    19  H    0.143622
    20  H    0.145516
    21  H    0.142453
    22  H    0.188046
    23  Br  -0.187899
    24  C    0.137915
    25  C   -0.198001
    26  C   -0.174727
    27  C   -0.131575
    28  C   -0.131672
    29  C   -0.278626
    30  H    0.142873
    31  H    0.137783
    32  H    0.142157
    33  H    0.139984
    34  H    0.150166
    35  N   -0.300711
    36  C   -0.259008
    37  H    0.264203
    38  H    0.126986
    39  H    0.141021
    40  H    0.126892
 Sum of Mulliken charges =   0.00000

 Dipole moment (field-independent basis, Debye):
    X=              2.8105    Y=              3.0924    Z=              3.5067  Tot=              5.4551
 Quadrupole moment (field-independent basis, Debye-Ang):
   XX=           -128.7870   YY=           -131.8224   ZZ=           -124.6719
   XY=            -10.4810   XZ=              0.0893   YZ=             -4.3941

  Exact polarizability: 360.909   4.102 368.650 -18.244  16.690 307.525
 Approx polarizability: 275.966   6.931 290.942 -18.272  16.875 262.127

 ******    1 imaginary frequencies (negative Signs) ******

                      1                      2                      3
                      A                      A                      A
 Frequencies --   -383.4201                31.4387                35.3133
 Red. masses --      5.9874                 4.6071                 4.5483
 Frc consts  --      0.5186                 0.0027                 0.0033
 IR Inten    --    530.2016                 0.8644                 1.2526

                      4                      5                      6
                      A                      A                      A
 Frequencies --     56.7435                63.1343                65.5461
 Red. masses --      3.7075                 4.3727                 3.7361
 Frc consts  --      0.0070                 0.0103                 0.0095
 IR Inten    --      6.7894                 2.9764                 0.5153

                      7                      8                      9
                      A                      A                      A
 Frequencies --     72.9892                88.9048               103.1227
 Red. masses --      1.7521                 2.1625                 3.4712
 Frc consts  --      0.0055                 0.0101                 0.0217
 IR Inten    --      0.9287                 0.5704                 1.2167

                     10                     11                     12
                      A                      A                      A
 Frequencies --    120.6537               144.2537               147.6284
 Red. masses --      3.3779                 4.1342                 5.9272
 Frc consts  --      0.0290                 0.0507                 0.0761
 IR Inten    --      7.3987                 2.5317                 7.6820

                     13                     14                     15
                      A                      A                      A
 Frequencies --    162.0572               174.6973               220.4407
 Red. masses --      3.6976                 2.7097                 5.7327
 Frc consts  --      0.0572                 0.0487                 0.1641
 IR Inten    --     22.4367                11.2468                 5.1373

                     16                     17                     18
                      A                      A                      A
 Frequencies --    235.2834               243.8009               261.9653
 Red. masses --      3.3328                 4.3166                 2.2729
 Frc consts  --      0.1087                 0.1512                 0.0919
 IR Inten    --     24.3920                33.2841                 0.5633

                     19                     20                     21
                      A                      A                      A
 Frequencies --    270.0604               287.5849               306.0035
 Red. masses --      3.7219                 2.3148                 2.9684
 Frc consts  --      0.1599                 0.1128                 0.1638
 IR Inten    --      0.6835                 4.5031                16.3568

                     22                     23                     24
                      A                      A                      A
 Frequencies --    313.1990               374.3058               406.8972
 Red. masses --      3.9845                 4.4465                 2.3598
 Frc consts  --      0.2303                 0.3670                 0.2302
 IR Inten    --     24.1124                79.0208                59.3362

                     25                     26                     27
                      A                      A                      A
 Frequencies --    423.2051               426.7040               436.1148
 Red. masses --      2.9286                 2.8067                 2.1123
 Frc consts  --      0.3090                 0.3011                 0.2367
 IR Inten    --     10.0829                 7.3982                40.8725

                     28                     29                     30
                      A                      A                      A
 Frequencies --    503.5858               528.1345               578.0168
 Red. masses --      3.4506                 3.4173                 4.2505
 Frc consts  --      0.5156                 0.5616                 0.8367
 IR Inten    --     14.1383                48.4967               109.3276

                     31                     32                     33
                      A                      A                      A
 Frequencies --    604.3358               629.5383               638.4950
 Red. masses --      2.6693                 5.1315                 6.3495
 Frc consts  --      0.5744                 1.1982                 1.5251
 IR Inten    --     25.5017                54.2009                 1.6836

                     34                     35                     36
                      A                      A                      A
 Frequencies --    647.4439               683.6447               721.2571
 Red. masses --      3.8054                 2.9755                 3.2761
 Frc consts  --      0.9398                 0.8194                 1.0041
 IR Inten    --     56.8737                46.0068                49.1244

                     37                     38                     39
                      A                      A                      A
 Frequencies --    725.5032               729.6778               787.8468
 Red. masses --      1.7298                 1.4813                 4.6320
 Frc consts  --      0.5364                 0.4647                 1.6940
 IR Inten    --     69.2514               290.8758                99.5090

                     40                     41                     42
                      A                      A                      A
 Frequencies --    801.4771               805.2855               818.6974
 Red. masses --      2.4244                 4.3546                 3.2570
 Frc consts  --      0.9176                 1.6638                 1.2862
 IR Inten    --      4.3124                19.4904               102.4457

                     43                     44                     45
                      A                      A                      A
 Frequencies --    876.9159               877.7682               886.3349
 Red. masses --      1.2475                 1.2507                 4.1957
 Frc consts  --      0.5652                 0.5678                 1.9420
 IR Inten    --      1.3021                 2.6533                13.1028

                     46                     47                     48
                      A                      A                      A
 Frequencies --    956.1929               967.5146               986.0896
 Red. masses --      1.4765                 1.4198                 1.0949
 Frc consts  --      0.7954                 0.7830                 0.6272
 IR Inten    --      2.3172                 3.5695                99.5275

                     49                     50                     51
                      A                      A                      A
 Frequencies --   1014.0150              1016.4217              1018.8728
 Red. masses --      1.4014                 3.1214                 1.5634
 Frc consts  --      0.8490                 1.9000                 0.9563
 IR Inten    --      2.0230                13.1066                 0.8140

                     52                     53                     54
                      A                      A                      A
 Frequencies --   1025.5349              1027.2191              1027.5850
 Red. masses --      5.7270                 2.3009                 1.9114
 Frc consts  --      3.5488                 1.4304                 1.1892
 IR Inten    --      1.1697                 1.4256                 1.0684

                     55                     56                     57
                      A                      A                      A
 Frequencies --   1035.0565              1063.4805              1066.4400
 Red. masses --      1.3339                 2.2163                 2.0028
 Frc consts  --      0.8420                 1.4768                 1.3420
 IR Inten    --      0.0872                18.2094                47.0267

                     58                     59                     60
                      A                      A                      A
 Frequencies --   1076.4384              1097.8626              1109.9654
 Red. masses --      1.6786                 2.2283                 1.6610
 Frc consts  --      1.1460                 1.5824                 1.2057
 IR Inten    --     87.5251                 3.0929                20.0035

                     61                     62                     63
                      A                      A                      A
 Frequencies --   1115.5132              1131.3368              1156.0596
 Red. masses --      2.3901                 1.9449                 1.2916
 Frc consts  --      1.7523                 1.4667                 1.0170
 IR Inten    --     17.7384                 5.4716                 1.1888

                     64                     65                     66
                      A                      A                      A
 Frequencies --   1181.6854              1186.8949              1190.2018
 Red. masses --      1.1320                 1.1280                 1.7086
 Frc consts  --      0.9313                 0.9362                 1.4260
 IR Inten    --      0.5154                 0.7622                31.2484

                     67                     68                     69
                      A                      A                      A
 Frequencies --   1192.3076              1209.3891              1212.3269
 Red. masses --      1.4439                 1.1242                 3.7252
 Frc consts  --      1.2094                 0.9688                 3.2258
 IR Inten    --     33.9693                 1.0667                57.9609

                     70                     71                     72
                      A                      A                      A
 Frequencies --   1221.4741              1286.5025              1303.2184
 Red. masses --      1.1329                 2.6855                 4.0270
 Frc consts  --      0.9959                 2.6188                 4.0296
 IR Inten    --     10.6157               186.6958               126.3966

                     73                     74                     75
                      A                      A                      A
 Frequencies --   1322.0468              1324.8392              1359.3704
 Red. masses --      4.5559                 4.1355                 1.4048
 Frc consts  --      4.6916                 4.2766                 1.5295
 IR Inten    --      3.3317               284.8917                 2.4053

                     76                     77                     78
                      A                      A                      A
 Frequencies --   1361.0131              1365.7555              1441.7252
 Red. masses --      1.3218                 1.4360                 1.5633
 Frc consts  --      1.4425                 1.5782                 1.9145
 IR Inten    --      6.1737                 6.0641               311.3012

                     79                     80                     81
                      A                      A                      A
 Frequencies --   1458.2751              1464.8850              1475.3867
 Red. masses --      1.2256                 2.3042                 1.0427
 Frc consts  --      1.5356                 2.9133                 1.3373
 IR Inten    --     60.7700               287.8354                11.6507

                     82                     83                     84
                      A                      A                      A
 Frequencies --   1488.5233              1493.5685              1499.5565
 Red. masses --      2.2353                 2.3615                 1.0445
 Frc consts  --      2.9180                 3.1037                 1.3838
 IR Inten    --     26.9837               115.8829                17.2333

                     85                     86                     87
                      A                      A                      A
 Frequencies --   1504.9065              1506.0983              1540.8673
 Red. masses --      1.0545                 1.0804                 2.3296
 Frc consts  --      1.4070                 1.4439                 3.2588
 IR Inten    --      2.8646                16.8790                61.0643

                     88                     89                     90
                      A                      A                      A
 Frequencies --   1546.4609              1559.4232              1603.3677
 Red. masses --      2.3464                 2.0215                 1.2994
 Frc consts  --      3.3062                 2.8963                 1.9682
 IR Inten    --     42.5837               646.6820               304.0333

                     91                     92                     93
                      A                      A                      A
 Frequencies --   1641.6102              1649.7635              1659.4419
 Red. masses --      5.2662                 5.0582                 4.3060
 Frc consts  --      8.3615                 8.1112                 6.9864
 IR Inten    --     26.2605                23.2461               407.6818

                     94                     95                     96
                      A                      A                      A
 Frequencies --   1670.5231              1674.5998              3048.4553
 Red. masses --      5.7859                 5.8859                 1.0368
 Frc consts  --      9.5132                 9.7249                 5.6768
 IR Inten    --      5.6787                 0.5632                48.6300

                     97                     98                     99
                      A                      A                      A
 Frequencies --   3049.2334              3105.3904              3115.6700
 Red. masses --      1.0359                 1.1045                 1.1012
 Frc consts  --      5.6748                 6.2756                 6.2984
 IR Inten    --     87.9955                43.1945                18.2891

                    100                    101                    102
                      A                      A                      A
 Frequencies --   3160.4279              3167.6403              3186.6733
 Red. masses --      1.1013                 1.1030                 1.0871
 Frc consts  --      6.4809                 6.5207                 6.5041
 IR Inten    --     23.1220                19.4375                 9.4904

                    103                    104                    105
                      A                      A                      A
 Frequencies --   3192.3580              3198.7472              3201.6312
 Red. masses --      1.0872                 1.0865                 1.0912
 Frc consts  --      6.5283                 6.5497                 6.5902
 IR Inten    --      1.0793                 0.0605                11.8108

                    106                    107                    108
                      A                      A                      A
 Frequencies --   3208.3395              3208.7397              3219.8952
 Red. masses --      1.0910                 1.0950                 1.0988
 Frc consts  --      6.6165                 6.6423                 6.7118
 IR Inten    --     15.2918                45.2817                20.0795

                    109                    110                    111
                      A                      A                      A
 Frequencies --   3220.7720              3242.3219              3246.6785
 Red. masses --      1.0965                 1.0922                 1.0926
 Frc consts  --      6.7013                 6.7651                 6.7854
 IR Inten    --     27.7626                 4.1169                 5.2524

                    112                    113                    114
                      A                      A                      A
 Frequencies --   3459.3209              3606.1435              3683.0883
 Red. masses --      1.0580                 1.0912                 1.0780
 Frc consts  --      7.4597                 8.3607                 8.6154
 IR Inten    --    108.8481               109.8317                93.9231

 - Thermochemistry -
 -------------------
 Temperature   298.150 Kelvin.  Pressure   1.00000 Atm.
 Atom     1 has atomic number  6 and mass  12.00000

 Molecular mass:   346.06807 amu.
 Principal axes and moments of inertia in atomic units:
                           1         2         3
     Eigenvalues --  6477.625306638.18587**********
           X            0.93048  -0.36627  -0.00714
           Y            0.36582   0.93001  -0.03560
           Z            0.01968   0.03051   0.99934
 This molecule is an asymmetric top.
 Rotational symmetry number  1.
 Warning -- assumption of classical behavior for rotation
           may cause significant error
 Rotational temperatures (Kelvin)      0.01337     0.01305     0.00851
 Rotational constants (GHZ):           0.27861     0.27187     0.17731
    1 imaginary frequencies ignored.
 Zero-point vibrational energy     863256.0 (Joules/Mol)
                                  206.32315 (Kcal/Mol)
 Warning -- explicit consideration of  30 degrees of freedom as
           vibrations may cause significant error
 Vibrational temperatures:     45.23    50.81    81.64    90.84    94.31
          (Kelvin)            105.02   127.91   148.37   173.59   207.55
                              212.40   233.16   251.35   317.17   338.52
                              350.78   376.91   388.56   413.77   440.27
                              450.62   538.54   585.43   608.90   613.93
                              627.47   724.55   759.87   831.64   869.50
                              905.77   918.65   931.53   983.61  1037.73
                             1043.84  1049.84  1133.54  1153.15  1158.63
                             1177.92  1261.69  1262.91  1275.24  1375.75
                             1392.04  1418.76  1458.94  1462.40  1465.93
                             1475.52  1477.94  1478.47  1489.22  1530.11
                             1534.37  1548.75  1579.58  1596.99  1604.97
                             1627.74  1663.31  1700.18  1707.68  1712.43
                             1715.46  1740.04  1744.27  1757.43  1850.99
                             1875.04  1902.13  1906.15  1955.83  1958.19
                             1965.02  2074.32  2098.13  2107.64  2122.75
                             2141.65  2148.91  2157.53  2165.22  2166.94
                             2216.96  2225.01  2243.66  2306.89  2361.91
                             2373.64  2387.57  2403.51  2409.38  4386.05
                             4387.17  4467.96  4482.75  4547.15  4557.53
                             4584.91  4593.09  4602.28  4606.43  4616.08
                             4616.66  4632.71  4633.97  4664.98  4671.25
                             4977.19  5188.44  5299.14

 Zero-point correction=                           0.328797 (Hartree/Particle)
 Thermal correction to Energy=                    0.349403
 Thermal correction to Enthalpy=                  0.350347
 Thermal correction to Gibbs Free Energy=         0.277965
 Sum of electronic and zero-point Energies=          -3417.868376
 Sum of electronic and thermal Energies=             -3417.847770
 Sum of electronic and thermal Enthalpies=           -3417.846826
 Sum of electronic and thermal Free Energies=        -3417.919208

                     E (Thermal)             CV                S
                      KCal/Mol        Cal/Mol-Kelvin    Cal/Mol-Kelvin
 Total                  219.254             76.515            152.341
 Electronic               0.000              0.000              0.000
 Translational            0.889              2.981             43.419
 Rotational               0.889              2.981             34.436
 Vibrational            217.476             70.554             74.486
 Vibration     1          0.594              1.983              5.737
 Vibration     2          0.594              1.982              5.506
 Vibration     3          0.596              1.975              4.567
 Vibration     4          0.597              1.972              4.357
 Vibration     5          0.597              1.971              4.283
 Vibration     6          0.599              1.967              4.071
 Vibration     7          0.602              1.957              3.684
 Vibration     8          0.605              1.947              3.394
 Vibration     9          0.609              1.932              3.090
 Vibration    10          0.616              1.909              2.747
 Vibration    11          0.617              1.905              2.703
 Vibration    12          0.622              1.889              2.526
 Vibration    13          0.627              1.874              2.384
 Vibration    14          0.647              1.810              1.955
 Vibration    15          0.655              1.787              1.838
 Vibration    16          0.659              1.773              1.775
 Vibration    17          0.669              1.742              1.649
 Vibration    18          0.674              1.728              1.596
 Vibration    19          0.685              1.697              1.488
 Vibration    20          0.696              1.662              1.384
 Vibration    21          0.701              1.649              1.345
 Vibration    22          0.745              1.525              1.062
 Vibration    23          0.772              1.455              0.938
 Vibration    24          0.785              1.420              0.881
 Vibration    25          0.788              1.412              0.869
 Vibration    26          0.797              1.391              0.839
 Vibration    27          0.859              1.242              0.649
 Vibration    28          0.883              1.188              0.591
 Vibration    29          0.935              1.079              0.489
 Vibration    30          0.963              1.023              0.442

 Optimization completed.
    -- Stationary point found.
 Normal termination of Gaussian 16 at Thu Apr  8 11:23:17 2021.
