 Gaussian 16, Revision A.03,
 Gaussian 16:  ES64L-G16RevA.03 25-Dec-2016

 ----------------------------------------------------------------------
 # wB97XD def2tzvp, opt=(ts, noeigen, calcfc, maxcycles=70, maxstep=1),
  freq=noraman, scrf=(iefpcm, solvent=water)
 ----------------------------------------------------------------------

 ------------------------
 4_iteration/TS-184-4.out
 ------------------------
 Symbolic Z-matrix:
 Charge =  0 Multiplicity = 1

 SCF Done:  E(RwB97XD) =  -1248.81287716     A.U. after   15 cycles
 SCF Done:  E(RwB97XD) =  -1248.81287717     A.U. after    7 cycles
 Optimization completed.
    -- Stationary point found.
 Normal termination of Gaussian 16 at Mon Feb  8 00:48:21 2021.

 ---------------------------------------------------------------------
 #N Geom=AllCheck Guess=TCheck SCRF=Check GenChk RwB97XD/def2TZVP Freq
 ---------------------------------------------------------------------

 Structure from the checkpoint file:  "/beegfs/scratch/user/q/tla25/Gau-49209.chk"
 ------------------------
 4_iteration/TS-184-4.out
 ------------------------
 Charge =  0 Multiplicity = 1

                         Standard orientation:
 ---------------------------------------------------------------------
 Center     Atomic      Atomic             Coordinates (Angstroms)
 Number     Number       Type             X           Y           Z
 ---------------------------------------------------------------------
      1          6           0       -0.185805   -0.018033   -0.089750
      2          6           0       -1.403032    0.645648    0.277891
      3          8           0       -1.438424    1.786953    0.764136
      4          6           0        1.030149    0.465767    0.385119
      5          6           0        0.864694    2.414630   -1.757963
      6          1           0        1.736832    2.204953   -2.373196
      7          1           0        0.091595    1.674913   -1.977426
      8          1           0        0.478996    3.403304   -2.009298
      9          7           0        1.196920    2.311619   -0.346029
     10          1           0        2.049216    2.793898   -0.088710
     11          1           0        0.426344    2.658040    0.220624
     12          6           0        2.298559   -0.260552    0.049433
     13          6           0        2.439262   -1.550517    0.564419
     14          6           0        3.572083   -2.298436    0.301135
     15          6           0        4.589838   -1.769783   -0.482518
     16          6           0        4.460662   -0.489528   -0.992126
     17          6           0        3.323008    0.262465   -0.726448
     18          1           0        1.648455   -1.966550    1.176021
     19          1           0        3.660898   -3.297227    0.708970
     20          1           0        5.477200   -2.353457   -0.691067
     21          1           0        5.247105   -0.064014   -1.602118
     22          1           0        3.255824    1.256700   -1.139459
     23         17           0        1.136406    1.024879    2.100979
     24          6           0       -0.180988   -1.087222   -1.167425
     25          1           0        0.650213   -0.943597   -1.859156
     26          1           0       -0.093233   -2.101456   -0.767920
     27          1           0       -1.096779   -1.044697   -1.755361
     28          6           0       -2.715569   -0.047878    0.043726
     29          6           0       -2.893100   -1.389322    0.368134
     30          6           0       -4.131155   -1.993022    0.208428
     31          6           0       -5.198824   -1.264506   -0.297255
     32          6           0       -5.027897    0.073257   -0.628163
     33          6           0       -3.795171    0.680275   -0.446801
     34          1           0       -2.059533   -1.959928    0.758961
     35          1           0       -4.262503   -3.033569    0.477215
     36          1           0       -6.163424   -1.737715   -0.431388
     37          1           0       -5.858220    0.644270   -1.024258
     38          1           0       -3.659214    1.726767   -0.688964
 ---------------------------------------------------------------------

 SCF Done:  E(RwB97XD) =  -1248.81287717     A.U. after    1 cycles

 The electronic state is 1-A.
 Alpha  occ. eigenvalues -- -101.69164 -19.21633 -14.47409 -10.40010 -10.35927
 Alpha  occ. eigenvalues --  -10.31461 -10.31403 -10.29921 -10.29710 -10.29584
 Alpha  occ. eigenvalues --  -10.29531 -10.29505 -10.29423 -10.29313 -10.29269
 Alpha  occ. eigenvalues --  -10.29204 -10.29138 -10.29109 -10.27494 -10.27062
 Alpha  occ. eigenvalues --   -9.57756  -7.32389  -7.31552  -7.31501  -1.12257
 Alpha  occ. eigenvalues --   -1.03420  -0.98673  -0.96765  -0.95504  -0.89336
 Alpha  occ. eigenvalues --   -0.86822  -0.85838  -0.85353  -0.84914  -0.78598
 Alpha  occ. eigenvalues --   -0.77296  -0.75104  -0.71511  -0.71216  -0.70481
 Alpha  occ. eigenvalues --   -0.67269  -0.64595  -0.62404  -0.60501  -0.58704
 Alpha  occ. eigenvalues --   -0.57241  -0.56936  -0.55549  -0.55353  -0.54564
 Alpha  occ. eigenvalues --   -0.53764  -0.52942  -0.52724  -0.51325  -0.51226
 Alpha  occ. eigenvalues --   -0.51000  -0.49009  -0.48317  -0.47708  -0.47266
 Alpha  occ. eigenvalues --   -0.46330  -0.46064  -0.45532  -0.44835  -0.43759
 Alpha  occ. eigenvalues --   -0.43620  -0.42970  -0.42593  -0.39869  -0.38118
 Alpha  occ. eigenvalues --   -0.34393  -0.34233  -0.33880  -0.33528  -0.32463
 Alpha  occ. eigenvalues --   -0.27867
 Alpha virt. eigenvalues --    0.01218   0.03377   0.04730   0.05163   0.05845
 Alpha virt. eigenvalues --    0.09642   0.10587   0.12373   0.13428   0.13722
 Alpha virt. eigenvalues --    0.14577   0.15137   0.15873   0.16495   0.16728

 Mulliken charges:
               1
     1  C   -0.373025
     2  C    0.333458
     3  O   -0.517322
     4  C    0.353171
     5  C   -0.281265
     6  H    0.147244
     7  H    0.148840
     8  H    0.154527
     9  N   -0.365681
    10  H    0.283256
    11  H    0.273388
    12  C    0.123836
    13  C   -0.333334
    14  C   -0.118652
    15  C   -0.145761
    16  C   -0.162380
    17  C   -0.155592
    18  H    0.167125
    19  H    0.146026
    20  H    0.146771
    21  H    0.145000
    22  H    0.135610
    23  Cl  -0.133832
    24  C   -0.387955
    25  H    0.150653
    26  H    0.135760
    27  H    0.152765
    28  C    0.131005
    29  C   -0.231020
    30  C   -0.149016
    31  C   -0.131305
    32  C   -0.147362
    33  C   -0.228452
    34  H    0.162859
    35  H    0.143036
    36  H    0.145844
    37  H    0.142835
    38  H    0.138947
 Sum of Mulliken charges =  -0.00000

 Dipole moment (field-independent basis, Debye):
    X=              4.0824    Y=             -0.2142    Z=             -4.9263  Tot=              6.4016
 Quadrupole moment (field-independent basis, Debye-Ang):
   XX=           -108.6434   YY=           -109.6888   ZZ=           -129.8730
   XY=              9.1803   XZ=             -1.7328   YZ=            -12.1743

  Exact polarizability: 385.997   5.337 320.282  -7.907 -19.674 237.529
 Approx polarizability: 282.942   1.923 271.987  -6.248 -15.642 207.352

 ******    1 imaginary frequencies (negative Signs) ******

                      1                      2                      3
                      A                      A                      A
 Frequencies --   -379.1921                24.0592                36.0127
 Red. masses --      5.2532                 3.5863                 4.2213
 Frc consts  --      0.4450                 0.0012                 0.0032
 IR Inten    --    710.0150                 0.1277                 1.5197

                      4                      5                      6
                      A                      A                      A
 Frequencies --     40.3770                57.6524                90.5452
 Red. masses --      4.2925                 5.4699                 4.4998
 Frc consts  --      0.0041                 0.0107                 0.0217
 IR Inten    --      0.9239                 3.6183                 4.2085

                      7                      8                      9
                      A                      A                      A
 Frequencies --    125.0415               126.1230               138.1398
 Red. masses --      3.2203                 4.9362                 2.4849
 Frc consts  --      0.0297                 0.0463                 0.0279
 IR Inten    --      1.2306                 8.7418                 4.6817

                     10                     11                     12
                      A                      A                      A
 Frequencies --    166.0542               175.9814               200.0194
 Red. masses --      2.1585                 3.7224                 1.1919
 Frc consts  --      0.0351                 0.0679                 0.0281
 IR Inten    --      4.3589                 1.3707                 3.3440

                     13                     14                     15
                      A                      A                      A
 Frequencies --    211.2661               216.5638               231.1509
 Red. masses --      3.3744                 3.5917                 2.2976
 Frc consts  --      0.0887                 0.0992                 0.0723
 IR Inten    --      0.3757                 9.5619                 7.2257

                     16                     17                     18
                      A                      A                      A
 Frequencies --    254.7311               282.0758               307.0191
 Red. masses --      4.2033                 4.9497                 3.8246
 Frc consts  --      0.1607                 0.2320                 0.2124
 IR Inten    --      0.5437                 4.7085                23.3000

                     19                     20                     21
                      A                      A                      A
 Frequencies --    322.1039               341.9357               389.2504
 Red. masses --      3.5917                 4.4903                 6.1619
 Frc consts  --      0.2196                 0.3093                 0.5501
 IR Inten    --     25.4444                23.7228                15.2622

                     22                     23                     24
                      A                      A                      A
 Frequencies --    399.2049               419.9946               421.9082
 Red. masses --      5.7536                 2.8745                 2.9129
 Frc consts  --      0.5402                 0.2987                 0.3055
 IR Inten    --      0.0878                 0.5414                 1.1141

                     25                     26                     27
                      A                      A                      A
 Frequencies --    482.1002               536.9437               557.9632
 Red. masses --      4.0940                 3.4784                 3.6721
 Frc consts  --      0.5606                 0.5909                 0.6736
 IR Inten    --     34.2451                 9.6469               119.0881

                     28                     29                     30
                      A                      A                      A
 Frequencies --    591.7919               625.4753               635.6801
 Red. masses --      3.9982                 4.3435                 6.4079
 Frc consts  --      0.8250                 1.0012                 1.5256
 IR Inten    --     31.1968               107.6121                 0.6512

                     31                     32                     33
                      A                      A                      A
 Frequencies --    640.3046               683.5542               687.1644
 Red. masses --      5.6843                 2.6275                 3.2249
 Frc consts  --      1.3731                 0.7233                 0.8972
 IR Inten    --     37.3547                55.9637                24.2103

                     34                     35                     36
                      A                      A                      A
 Frequencies --    724.2723               724.9286               755.7993
 Red. masses --      1.6994                 1.5750                 3.5420
 Frc consts  --      0.5252                 0.4877                 1.1921
 IR Inten    --    114.2887                30.7685                70.8375

                     37                     38                     39
                      A                      A                      A
 Frequencies --    760.6390               803.1536               830.9428
 Red. masses --      2.5238                 2.9582                 2.9257
 Frc consts  --      0.8603                 1.1243                 1.1902
 IR Inten    --    162.8186                29.8790                34.7646

                     40                     41                     42
                      A                      A                      A
 Frequencies --    868.9773               874.2289               881.5423
 Red. masses --      2.7674                 1.5130                 1.2504
 Frc consts  --      1.2313                 0.6813                 0.5725
 IR Inten    --     55.9596                20.6077                 0.8708

                     43                     44                     45
                      A                      A                      A
 Frequencies --    960.4551               967.7651               979.7233
 Red. masses --      1.4798                 1.4646                 1.0868
 Frc consts  --      0.8043                 0.8082                 0.6146
 IR Inten    --      2.6136                10.9140                76.7351

                     46                     47                     48
                      A                      A                      A
 Frequencies --   1013.2401              1016.0718              1022.5224
 Red. masses --      1.3724                 1.3919                 3.0489
 Frc consts  --      0.8302                 0.8467                 1.8782
 IR Inten    --      0.8696                17.5154               136.7084

                     49                     50                     51
                      A                      A                      A
 Frequencies --   1026.4103              1027.0768              1032.8289
 Red. masses --      5.9221                 5.4584                 1.4274
 Frc consts  --      3.6760                 3.3925                 0.8971
 IR Inten    --      0.8320                 2.3522                15.5171

                     52                     53                     54
                      A                      A                      A
 Frequencies --   1033.1759              1036.9191              1062.3857
 Red. masses --      1.3406                 2.0044                 1.9406
 Frc consts  --      0.8431                 1.2698                 1.2905
 IR Inten    --     15.1911               176.4799                 0.5555

                     55                     56                     57
                      A                      A                      A
 Frequencies --   1067.4076              1071.8680              1077.3712
 Red. masses --      1.6299                 1.5248                 1.7462
 Frc consts  --      1.0941                 1.0322                 1.1942
 IR Inten    --      9.9044                15.5756               107.6203

                     58                     59                     60
                      A                      A                      A
 Frequencies --   1090.5018              1110.7927              1125.4592
 Red. masses --      2.2711                 1.5255                 1.5902
 Frc consts  --      1.5912                 1.1090                 1.1868
 IR Inten    --      8.1345                10.9272                 6.8302

                     61                     62                     63
                      A                      A                      A
 Frequencies --   1183.4962              1186.5058              1200.5615
 Red. masses --      1.1393                 1.1392                 1.3563
 Frc consts  --      0.9402                 0.9449                 1.1518
 IR Inten    --      0.4080                 0.0231                 5.9206

                     64                     65                     66
                      A                      A                      A
 Frequencies --   1205.9511              1208.6291              1220.9048
 Red. masses --      1.4128                 2.1808                 1.1355
 Frc consts  --      1.2106                 1.8769                 0.9972
 IR Inten    --     39.4126                 4.5818                 2.9928

                     67                     68                     69
                      A                      A                      A
 Frequencies --   1252.7409              1316.8115              1325.8634
 Red. masses --      4.9286                 4.5562                 4.0565
 Frc consts  --      4.5572                 4.6548                 4.2014
 IR Inten    --    129.6897                 4.7440                26.1768

                     70                     71                     72
                      A                      A                      A
 Frequencies --   1351.1689              1353.9450              1362.1205
 Red. masses --      2.0281                 1.4391                 2.4182
 Frc consts  --      2.1815                 1.5543                 2.6435
 IR Inten    --     29.5043                32.3636               105.5291

                     73                     74                     75
                      A                      A                      A
 Frequencies --   1366.4956              1423.3701              1431.0314
 Red. masses --      1.4782                 1.8485                 1.8407
 Frc consts  --      1.6263                 2.2066                 2.2209
 IR Inten    --     24.5631               628.8135               510.1298

                     76                     77                     78
                      A                      A                      A
 Frequencies --   1468.6168              1486.5912              1488.3572
 Red. masses --      1.2308                 1.0803                 1.1555
 Frc consts  --      1.5640                 1.4067                 1.5081
 IR Inten    --     32.0230                11.7597                18.8629

                     79                     80                     81
                      A                      A                      A
 Frequencies --   1488.9932              1490.5053              1503.8540
 Red. masses --      1.8709                 1.9347                 1.1219
 Frc consts  --      2.4439                 2.5324                 1.4948
 IR Inten    --     26.6899                12.5922               229.7414

                     82                     83                     84
                      A                      A                      A
 Frequencies --   1510.6621              1540.3069              1547.6448
 Red. masses --      1.0428                 2.3269                 2.3805
 Frc consts  --      1.4021                 3.2527                 3.3595
 IR Inten    --      4.2729                 7.1855                 8.4756

                     85                     86                     87
                      A                      A                      A
 Frequencies --   1616.3371              1642.1483              1653.3473
 Red. masses --      2.6990                 1.7385                 5.4737
 Frc consts  --      4.1545                 2.7621                 8.8157
 IR Inten    --    459.6296                29.1847                 1.3543

                     88                     89                     90
                      A                      A                      A
 Frequencies --   1658.7348              1674.0814              1676.9224
 Red. masses --      4.5705                 5.9036                 5.8941
 Frc consts  --      7.4091                 9.7481                 9.7655
 IR Inten    --     63.2239                12.1308                 0.7778

                     91                     92                     93
                      A                      A                      A
 Frequencies --   3040.3628              3058.1897              3103.9408
 Red. masses --      1.0432                 1.0343                 1.0954
 Frc consts  --      5.6815                 5.6992                 6.2180
 IR Inten    --     71.9114                45.2234                30.0550

                     94                     95                     96
                      A                      A                      A
 Frequencies --   3126.3279              3139.3504              3162.4777
 Red. masses --      1.1033                 1.1002                 1.1041
 Frc consts  --      6.3536                 6.3883                 6.5061
 IR Inten    --     13.8335                35.8371                21.3775

                     97                     98                     99
                      A                      A                      A
 Frequencies --   3193.8095              3198.4834              3199.9519
 Red. masses --      1.0858                 1.0863                 1.0881
 Frc consts  --      6.5254                 6.5478                 6.5648
 IR Inten    --      1.3604                 1.0129                 1.0274

                    100                    101                    102
                      A                      A                      A
 Frequencies --   3205.5643              3207.5797              3214.4698
 Red. masses --      1.0893                 1.0917                 1.0939
 Frc consts  --      6.5950                 6.6176                 6.6595
 IR Inten    --      3.0369                13.2303                24.1438

                    103                    104                    105
                      A                      A                      A
 Frequencies --   3214.7911              3222.3799              3224.5739
 Red. masses --      1.0950                 1.0988                 1.0982
 Frc consts  --      6.6673                 6.7226                 6.7280
 IR Inten    --     33.2655                20.5381                20.3606

                    106                    107                    108
                      A                      A                      A
 Frequencies --   3258.0620              3469.3239              3596.0279
 Red. masses --      1.0914                 1.0582                 1.0905
 Frc consts  --      6.8258                 7.5046                 8.3084
 IR Inten    --     12.4143                57.7804                91.5595

 - Thermochemistry -
 -------------------
 Temperature   298.150 Kelvin.  Pressure   1.00000 Atm.
 Atom     1 has atomic number  6 and mass  12.00000

 Molecular mass:   287.10769 amu.
 Principal axes and moments of inertia in atomic units:
                           1         2         3
     Eigenvalues --  3048.216409782.25107**********
           X            0.99998   0.00231  -0.00508
           Y           -0.00267   0.99747  -0.07098
           Z            0.00491   0.07100   0.99746
 This molecule is an asymmetric top.
 Rotational symmetry number  1.
 Warning -- assumption of classical behavior for rotation
           may cause significant error
 Rotational temperatures (Kelvin)      0.02841     0.00885     0.00803
 Rotational constants (GHZ):           0.59206     0.18449     0.16722
    1 imaginary frequencies ignored.
 Zero-point vibrational energy     819663.4 (Joules/Mol)
                                  195.90424 (Kcal/Mol)
 Warning -- explicit consideration of  27 degrees of freedom as
           vibrations may cause significant error
 Vibrational temperatures:     34.62    51.81    58.09    82.95   130.27
          (Kelvin)            179.91   181.46   198.75   238.92   253.20
                              287.78   303.96   311.59   332.57   366.50
                              405.84   441.73   463.44   491.97   560.04
                              574.37   604.28   607.03   693.63   772.54
                              802.78   851.46   899.92   914.60   921.26
                              983.48   988.68  1042.07  1043.01  1087.43
                             1094.39  1155.56  1195.54  1250.26  1257.82
                             1268.34  1381.88  1392.40  1409.60  1457.83
                             1461.90  1471.18  1476.78  1477.73  1486.01
                             1486.51  1491.90  1528.54  1535.76  1542.18
                             1550.10  1568.99  1598.18  1619.28  1702.79
                             1707.12  1727.34  1735.09  1738.95  1756.61
                             1802.41  1894.60  1907.62  1944.03  1948.02
                             1959.79  1966.08  2047.91  2058.94  2113.01
                             2138.87  2141.41  2142.33  2144.50  2163.71
                             2173.51  2216.16  2226.72  2325.55  2362.69
                             2378.80  2386.55  2408.63  2412.72  4374.40
                             4400.05  4465.88  4498.09  4516.83  4550.10
                             4595.18  4601.90  4604.02  4612.09  4614.99
                             4624.91  4625.37  4636.29  4639.44  4687.62
                             4991.58  5173.88

 Zero-point correction=                           0.312193 (Hartree/Particle)
 Thermal correction to Energy=                    0.330903
 Thermal correction to Enthalpy=                  0.331847
 Thermal correction to Gibbs Free Energy=         0.264013
 Sum of electronic and zero-point Energies=          -1248.500684
 Sum of electronic and thermal Energies=             -1248.481975
 Sum of electronic and thermal Enthalpies=           -1248.481030
 Sum of electronic and thermal Free Energies=        -1248.548864

                     E (Thermal)             CV                S
                      KCal/Mol        Cal/Mol-Kelvin    Cal/Mol-Kelvin
 Total                  207.644             71.255            142.768
 Electronic               0.000              0.000              0.000
 Translational            0.889              2.981             42.862
 Rotational               0.889              2.981             34.131
 Vibrational            205.867             65.293             65.775
 Vibration     1          0.593              1.985              6.267
 Vibration     2          0.594              1.982              5.467
 Vibration     3          0.594              1.981              5.241
 Vibration     4          0.596              1.974              4.536
 Vibration     5          0.602              1.956              3.648
 Vibration     6          0.610              1.928              3.021
 Vibration     7          0.611              1.927              3.004
 Vibration     8          0.614              1.915              2.829
 Vibration     9          0.624              1.884              2.480
 Vibration    10          0.628              1.872              2.371
 Vibration    11          0.638              1.840              2.133
 Vibration    12          0.643              1.824              2.033
 Vibration    13          0.645              1.816              1.988
 Vibration    14          0.653              1.793              1.870
 Vibration    15          0.665              1.755              1.698
 Vibration    16          0.681              1.707              1.521
 Vibration    17          0.697              1.660              1.378
 Vibration    18          0.707              1.631              1.299
 Vibration    19          0.721              1.592              1.203
 Vibration    20          0.757              1.493              1.003
 Vibration    21          0.765              1.472              0.966
 Vibration    22          0.783              1.427              0.892
 Vibration    23          0.784              1.423              0.886
 Vibration    24          0.838              1.290              0.704
 Vibration    25          0.892              1.168              0.572
 Vibration    26          0.914              1.122              0.528
 Vibration    27          0.949              1.049              0.464

 Optimization completed.
    -- Stationary point found.
 Normal termination of Gaussian 16 at Mon Feb  8 03:16:28 2021.
