 Gaussian 16, Revision A.03,
 Gaussian 16:  ES64L-G16RevA.03 25-Dec-2016

 ----------------------------------------------------------------------
 # wB97XD def2tzvp, opt=(ts, noeigen, calcfc, maxcycles=70, maxstep=3),
  freq=noraman, scrf=(iefpcm, solvent=water)
 ----------------------------------------------------------------------

 ------------------------
 3_iteration/TS-191-3.out
 ------------------------
 Symbolic Z-matrix:
 Charge =  0 Multiplicity = 1

 SCF Done:  E(RwB97XD) =  -3838.48717413     A.U. after   16 cycles
 SCF Done:  E(RwB97XD) =  -3838.48717445     A.U. after   10 cycles
 SCF Done:  E(RwB97XD) =  -3838.48717441     A.U. after    8 cycles
 SCF Done:  E(RwB97XD) =  -3838.48717454     A.U. after    7 cycles
 SCF Done:  E(RwB97XD) =  -3838.48717453     A.U. after    6 cycles
 Optimization completed.
    -- Stationary point found.
 Normal termination of Gaussian 16 at Sun Feb  7 19:33:32 2021.

 ---------------------------------------------------------------------
 #N Geom=AllCheck Guess=TCheck SCRF=Check GenChk RwB97XD/def2TZVP Freq
 ---------------------------------------------------------------------

 Structure from the checkpoint file:  "/beegfs/scratch/user/q/tla25/Gau-120658.chk"
 ------------------------
 3_iteration/TS-191-3.out
 ------------------------
 Charge =  0 Multiplicity = 1

                         Standard orientation:
 ---------------------------------------------------------------------
 Center     Atomic      Atomic             Coordinates (Angstroms)
 Number     Number       Type             X           Y           Z
 ---------------------------------------------------------------------
      1          6           0       -0.264122   -0.022197   -0.108346
      2          6           0        1.101539    0.479577   -0.126869
      3          8           0        1.329039    1.689862   -0.063290
      4          6           0       -1.358796    0.815644   -0.267878
      5          6           0       -0.827962    1.664031    2.449699
      6          1           0       -0.302574    0.718398    2.291178
      7          1           0       -0.141098    2.364663    2.922720
      8          1           0       -1.672980    1.496217    3.112333
      9          7           0       -1.274922    2.162217    1.155728
     10          1           0       -2.130237    2.702622    1.198514
     11          1           0       -0.543413    2.716955    0.726077
     12          6           0       -2.751734    0.258455   -0.221577
     13          6           0       -3.330685   -0.202145   -1.402113
     14          6           0       -4.586253   -0.784909   -1.389769
     15          6           0       -5.286801   -0.909501   -0.198345
     16          6           0       -4.716835   -0.453254    0.978947
     17          6           0       -3.455196    0.123073    0.968053
     18          1           0       -2.791522   -0.110182   -2.335434
     19          1           0       -5.018721   -1.140938   -2.315935
     20          1           0       -6.270968   -1.359887   -0.189038
     21          1           0       -5.251065   -0.546418    1.915577
     22          1           0       -3.024469    0.448101    1.902534
     23         17           0       -1.249706    2.061843   -1.580918
     24         35           0       -0.568067   -1.854286    0.362583
     25          7           0        2.103966   -0.449272   -0.207162
     26          6           0        3.490424   -0.266469   -0.162398
     27          6           0        4.114249    0.960027    0.067498
     28          6           0        5.500360    1.029224    0.104993
     29          6           0        6.283521   -0.098347   -0.082671
     30          6           0        5.660875   -1.318525   -0.311251
     31          6           0        4.281572   -1.403668   -0.351173
     32          1           0        1.805871   -1.405240   -0.310609
     33          1           0        3.516975    1.844736    0.211773
     34          1           0        5.969579    1.988708    0.285015
     35          1           0        7.363071   -0.029975   -0.052295
     36          1           0        6.251943   -2.213358   -0.460667
     37          1           0        3.806388   -2.361308   -0.530969
 ---------------------------------------------------------------------

 SCF Done:  E(RwB97XD) =  -3838.48717453     A.U. after    1 cycles

 The electronic state is 1-A.
 Alpha  occ. eigenvalues -- -483.13284-101.69597 -62.68092 -56.47211 -56.46861
 Alpha  occ. eigenvalues --  -56.46847 -19.21811 -14.48461 -14.46978 -10.41253
 Alpha  occ. eigenvalues --  -10.39933 -10.34067 -10.31933 -10.31786 -10.31774
 Alpha  occ. eigenvalues --  -10.30036 -10.29883 -10.29649 -10.29606 -10.29560
 Alpha  occ. eigenvalues --  -10.29163 -10.29016 -10.29011 -10.28404 -10.28397
 Alpha  occ. eigenvalues --   -9.58195  -8.82187  -7.32839  -7.31980  -7.31936
 Alpha  occ. eigenvalues --   -6.64334  -6.63218  -6.63172  -2.74723  -2.74406
 Alpha  occ. eigenvalues --   -2.74367  -2.73466  -2.73465  -1.14818  -1.04862
 Alpha  occ. eigenvalues --   -1.04258  -0.99157  -0.96119  -0.95682  -0.91712
 Alpha  occ. eigenvalues --   -0.87094  -0.85931  -0.85314  -0.85058  -0.81857
 Alpha  occ. eigenvalues --   -0.79062  -0.75906  -0.72510  -0.71410  -0.71177
 Alpha  occ. eigenvalues --   -0.67705  -0.65668  -0.63625  -0.63042  -0.60715
 Alpha  occ. eigenvalues --   -0.58783  -0.58140  -0.57711  -0.56140  -0.55759
 Alpha  occ. eigenvalues --   -0.54643  -0.53702  -0.52869  -0.52548  -0.51939
 Alpha  occ. eigenvalues --   -0.51561  -0.51442  -0.50510  -0.48652  -0.47907
 Alpha  occ. eigenvalues --   -0.47253  -0.46959  -0.45717  -0.44879  -0.43858
 Alpha  occ. eigenvalues --   -0.43213  -0.43042  -0.41008  -0.40620  -0.39700
 Alpha  occ. eigenvalues --   -0.39350  -0.38166  -0.34640  -0.34386  -0.33873
 Alpha  occ. eigenvalues --   -0.33612  -0.30731  -0.27725
 Alpha virt. eigenvalues --    0.01170   0.03670   0.04862   0.05258   0.05692
 Alpha virt. eigenvalues --    0.08062   0.10469   0.11101   0.12698   0.13797
 Alpha virt. eigenvalues --    0.13895   0.14512   0.14933   0.15917   0.17022

 Mulliken charges:
               1
     1  C   -0.398673
     2  C    0.472982
     3  O   -0.540144
     4  C    0.330401
     5  C   -0.290025
     6  H    0.151798
     7  H    0.158840
     8  H    0.160057
     9  N   -0.354678
    10  H    0.293547
    11  H    0.281817
    12  C    0.116209
    13  C   -0.265447
    14  C   -0.140872
    15  C   -0.127160
    16  C   -0.169649
    17  C   -0.142567
    18  H    0.150625
    19  H    0.147132
    20  H    0.148205
    21  H    0.145275
    22  H    0.127388
    23  Cl  -0.126830
    24  Br  -0.126245
    25  N   -0.272551
    26  C    0.301460
    27  C   -0.293287
    28  C   -0.111049
    29  C   -0.194516
    30  C   -0.097108
    31  C   -0.311189
    32  H    0.242941
    33  H    0.162890
    34  H    0.142181
    35  H    0.141415
    36  H    0.144294
    37  H    0.142534
 Sum of Mulliken charges =  -0.00000

 Dipole moment (field-independent basis, Debye):
    X=             -4.4796    Y=              0.3742    Z=              3.9692  Tot=              5.9968
 Quadrupole moment (field-independent basis, Debye-Ang):
   XX=           -124.8453   YY=           -134.8637   ZZ=           -136.2155
   XY=             -7.5912   XZ=             -5.4799   YZ=             12.6846

  Exact polarizability: 435.596   5.381 324.711  -6.543  12.861 271.523
 Approx polarizability: 312.088   9.169 278.764  -4.843   9.163 237.701

 ******    1 imaginary frequencies (negative Signs) ******

                      1                      2                      3
                      A                      A                      A
 Frequencies --   -332.4637                17.1081                19.9801
 Red. masses --      5.7973                 4.0546                 5.2233
 Frc consts  --      0.3775                 0.0007                 0.0012
 IR Inten    --    645.3852                 0.4575                 0.2562

                      4                      5                      6
                      A                      A                      A
 Frequencies --     31.8494                47.9406                62.6487
 Red. masses --      4.6837                 5.5911                 6.5871
 Frc consts  --      0.0028                 0.0076                 0.0152
 IR Inten    --      3.2483                 1.3975                 1.7637

                      7                      8                      9
                      A                      A                      A
 Frequencies --     78.5070                95.2125               129.7340
 Red. masses --      6.6441                 7.2230                 2.5149
 Frc consts  --      0.0241                 0.0386                 0.0249
 IR Inten    --      5.4612                 3.7852                 9.1751

                     10                     11                     12
                      A                      A                      A
 Frequencies --    132.3794               158.1649               170.6398
 Red. masses --      2.9362                 4.5450                 5.6952
 Frc consts  --      0.0303                 0.0670                 0.0977
 IR Inten    --      2.5107                 6.0503                23.0352

                     13                     14                     15
                      A                      A                      A
 Frequencies --    183.5689               189.5478               214.7497
 Red. masses --      4.4911                 1.3954                 8.3323
 Frc consts  --      0.0892                 0.0295                 0.2264
 IR Inten    --      2.7899                 3.1006                 6.5616

                     16                     17                     18
                      A                      A                      A
 Frequencies --    227.6801               249.7836               253.8371
 Red. masses --      5.2013                 4.7397                 5.7978
 Frc consts  --      0.1589                 0.1742                 0.2201
 IR Inten    --      0.7522                 1.0905                 3.1657

                     19                     20                     21
                      A                      A                      A
 Frequencies --    310.7419               330.9630               354.8032
 Red. masses --      3.5985                 6.5083                 7.6792
 Frc consts  --      0.2047                 0.4200                 0.5696
 IR Inten    --     21.1010                 6.3241                27.2818

                     22                     23                     24
                      A                      A                      A
 Frequencies --    363.8080               401.4307               415.0529
 Red. masses --      9.0808                 7.9850                 2.8570
 Frc consts  --      0.7081                 0.7581                 0.2900
 IR Inten    --     28.1155                 4.6284                 0.5406

                     25                     26                     27
                      A                      A                      A
 Frequencies --    423.1847               482.9417               527.5859
 Red. masses --      2.9719                 5.6850                 2.7565
 Frc consts  --      0.3136                 0.7812                 0.4521
 IR Inten    --      0.1051                76.6495                26.9558

                     28                     29                     30
                      A                      A                      A
 Frequencies --    541.1538               570.3516               579.8462
 Red. masses --      3.7473                 2.5117                 1.4171
 Frc consts  --      0.6466                 0.4814                 0.2807
 IR Inten    --     45.4261               108.3118               152.7235

                     31                     32                     33
                      A                      A                      A
 Frequencies --    618.2841               635.1044               638.0628
 Red. masses --      2.8496                 6.4027                 5.5109
 Frc consts  --      0.6418                 1.5216                 1.3219
 IR Inten    --     42.1727                 4.2963                15.2431

                     34                     35                     36
                      A                      A                      A
 Frequencies --    666.6415               718.4835               719.8784
 Red. masses --      2.9250                 1.8764                 2.0000
 Frc consts  --      0.7659                 0.5707                 0.6107
 IR Inten    --     53.5563                66.7022                29.5564

                     37                     38                     39
                      A                      A                      A
 Frequencies --    732.1775               769.6671               784.1368
 Red. masses --      2.8595                 8.5204                 1.9603
 Frc consts  --      0.9032                 2.9738                 0.7101
 IR Inten    --    262.5660                41.1538                62.6816

                     40                     41                     42
                      A                      A                      A
 Frequencies --    791.0658               805.3374               860.9553
 Red. masses --      5.6829                 2.5409                 1.2592
 Frc consts  --      2.0953                 0.9710                 0.5499
 IR Inten    --    124.2279                 7.3338                 0.2429

                     43                     44                     45
                      A                      A                      A
 Frequencies --    872.7190               877.7980               924.3021
 Red. masses --      1.2546                 5.5255                 5.7462
 Frc consts  --      0.5630                 2.5085                 2.8924
 IR Inten    --      0.4760                19.2148                 2.3633

                     46                     47                     48
                      A                      A                      A
 Frequencies --    934.1823               960.8023              1001.9184
 Red. masses --      1.4736                 1.4471                 1.3510
 Frc consts  --      0.7577                 0.7871                 0.7991
 IR Inten    --     12.0332                 1.2883                 0.0111

                     49                     50                     51
                      A                      A                      A
 Frequencies --   1010.2504              1013.8601              1019.1191
 Red. masses --      1.1106                 1.3701                 1.3205
 Frc consts  --      0.6679                 0.8298                 0.8080
 IR Inten    --     59.1766                 3.8055                 1.0824

                     52                     53                     54
                      A                      A                      A
 Frequencies --   1020.6998              1027.3925              1034.4251
 Red. masses --      5.2959                 5.4989                 1.3246
 Frc consts  --      3.2508                 3.4198                 0.8351
 IR Inten    --      3.2244                 3.1609                 0.2526

                     55                     56                     57
                      A                      A                      A
 Frequencies --   1057.5985              1064.3895              1065.5026
 Red. masses --      2.8626                 2.2564                 2.1182
 Frc consts  --      1.8865                 1.5062                 1.4169
 IR Inten    --     21.1253                50.9063                25.4829

                     58                     59                     60
                      A                      A                      A
 Frequencies --   1081.6185              1100.3076              1122.2928
 Red. masses --      4.0177                 1.4494                 1.5593
 Frc consts  --      2.7693                 1.0339                 1.1571
 IR Inten    --     41.2510                40.1125                 5.2756

                     61                     62                     63
                      A                      A                      A
 Frequencies --   1124.0740              1182.4820              1186.5408
 Red. masses --      1.6144                 1.1249                 1.1360
 Frc consts  --      1.2018                 0.9267                 0.9423
 IR Inten    --     11.9476                 4.1585                 1.2288

                     64                     65                     66
                      A                      A                      A
 Frequencies --   1196.4139              1208.3397              1210.7685
 Red. masses --      1.5286                 1.1488                 3.0789
 Frc consts  --      1.2891                 0.9883                 2.6593
 IR Inten    --     48.7672                35.9449                66.8040

                     67                     68                     69
                      A                      A                      A
 Frequencies --   1216.3640              1262.2832              1280.1529
 Red. masses --      1.1418                 3.2355                 3.2928
 Frc consts  --      0.9953                 3.0374                 3.1794
 IR Inten    --     21.5036               640.7394                79.4648

                     70                     71                     72
                      A                      A                      A
 Frequencies --   1322.9368              1341.2599              1349.3986
 Red. masses --      4.2716                 1.3298                 3.7358
 Frc consts  --      4.4048                 1.4095                 4.0079
 IR Inten    --      0.9436                51.7764               639.4113

                     73                     74                     75
                      A                      A                      A
 Frequencies --   1360.7914              1361.3850              1433.3703
 Red. masses --      1.5534                 1.4537                 3.6507
 Frc consts  --      1.6948                 1.5874                 4.4192
 IR Inten    --      9.0960                 4.8308               705.6989

                     76                     77                     78
                      A                      A                      A
 Frequencies --   1467.3924              1483.7471              1490.9190
 Red. masses --      1.3209                 2.1924                 2.2317
 Frc consts  --      1.6758                 2.8437                 2.9228
 IR Inten    --     99.7648               277.5597                23.1106

                     79                     80                     81
                      A                      A                      A
 Frequencies --   1493.0160              1507.6890              1545.1930
 Red. masses --      1.0444                 1.0432                 2.3648
 Frc consts  --      1.3717                 1.3971                 3.3267
 IR Inten    --     13.7066                13.3040               142.9194

                     82                     83                     84
                      A                      A                      A
 Frequencies --   1548.2413              1579.9060              1615.1638
 Red. masses --      2.4509                 2.0840                 1.1773
 Frc consts  --      3.4614                 3.0648                 1.8096
 IR Inten    --     75.2766               909.7392               161.2509

                     85                     86                     87
                      A                      A                      A
 Frequencies --   1653.4821              1662.3760              1670.9055
 Red. masses --      5.7658                 5.5791                 3.9270
 Frc consts  --      9.2877                 9.0840                 6.4597
 IR Inten    --      0.5307               152.2398                34.1589

                     88                     89                     90
                      A                      A                      A
 Frequencies --   1675.9412              1685.3764              3054.8873
 Red. masses --      5.9438                 5.7854                 1.0386
 Frc consts  --      9.8363                 9.6823                 5.7105
 IR Inten    --      0.2612               317.8408                30.7006

                     91                     92                     93
                      A                      A                      A
 Frequencies --   3129.1533              3172.0290              3187.8728
 Red. masses --      1.0985                 1.1046                 1.0882
 Frc consts  --      6.3370                 6.5483                 6.5158
 IR Inten    --     12.3188                18.6363                12.3233

                     94                     95                     96
                      A                      A                      A
 Frequencies --   3197.7166              3201.0543              3207.3031
 Red. masses --      1.0883                 1.0864                 1.0932
 Frc consts  --      6.5567                 6.5586                 6.6257
 IR Inten    --      2.3338                 0.0375                28.4038

                     97                     98                     99
                      A                      A                      A
 Frequencies --   3209.8129              3219.1473              3222.3503
 Red. masses --      1.0898                 1.0938                 1.0980
 Frc consts  --      6.6156                 6.6783                 6.7173
 IR Inten    --      8.5323                18.7996                22.9774

                    100                    101                    102
                      A                      A                      A
 Frequencies --   3227.0070              3258.3043              3273.7137
 Red. masses --      1.0978                 1.0912                 1.0923
 Frc consts  --      6.7358                 6.8254                 6.8969
 IR Inten    --     14.7957                 5.8377                 5.3494

                    103                    104                    105
                      A                      A                      A
 Frequencies --   3518.5699              3613.7764              3633.9369
 Red. masses --      1.0517                 1.0967                 1.0765
 Frc consts  --      7.6715                 8.4384                 8.3758
 IR Inten    --     51.2893                94.1984                95.8889

 - Thermochemistry -
 -------------------
 Temperature   298.150 Kelvin.  Pressure   1.00000 Atm.
 Atom     1 has atomic number  6 and mass  12.00000

 Molecular mass:   366.01345 amu.
 Principal axes and moments of inertia in atomic units:
                           1         2         3
     Eigenvalues --  3652.88924********************
           X            0.99999  -0.00252  -0.00299
           Y            0.00277   0.99647   0.08387
           Z            0.00277  -0.08388   0.99647
 This molecule is an asymmetric top.
 Rotational symmetry number  1.
 Warning -- assumption of classical behavior for rotation
           may cause significant error
 Rotational temperatures (Kelvin)      0.02371     0.00632     0.00571
 Rotational constants (GHZ):           0.49406     0.13177     0.11901
    1 imaginary frequencies ignored.
 Zero-point vibrational energy     765231.5 (Joules/Mol)
                                  182.89471 (Kcal/Mol)
 Warning -- explicit consideration of  30 degrees of freedom as
           vibrations may cause significant error
 Vibrational temperatures:     24.61    28.75    45.82    68.98    90.14
          (Kelvin)            112.95   136.99   186.66   190.46   227.56
                              245.51   264.11   272.72   308.98   327.58
                              359.38   365.22   447.09   476.18   510.48
                              523.44   577.57   597.17   608.87   694.85
                              759.08   778.60   820.61   834.27   889.57
                              913.77   918.03   959.15  1033.74  1035.74
                             1053.44  1107.38  1128.20  1138.17  1158.70
                             1238.72  1255.65  1262.96  1329.86  1344.08
                             1382.38  1441.54  1453.53  1458.72  1466.29
                             1468.56  1478.19  1488.31  1521.65  1531.42
                             1533.02  1556.21  1583.10  1614.73  1617.29
                             1701.33  1707.17  1721.37  1738.53  1742.03
                             1750.08  1816.14  1841.85  1903.41  1929.77
                             1941.48  1957.88  1958.73  2062.30  2111.25
                             2134.78  2145.10  2148.12  2169.23  2223.19
                             2227.57  2273.13  2323.86  2378.99  2391.79
                             2404.06  2411.31  2424.88  4395.30  4502.15
                             4563.84  4586.64  4600.80  4605.60  4614.59
                             4618.20  4631.64  4636.24  4642.94  4687.97
                             4710.14  5062.44  5199.42  5228.42

 Zero-point correction=                           0.291461 (Hartree/Particle)
 Thermal correction to Energy=                    0.311463
 Thermal correction to Enthalpy=                  0.312407
 Thermal correction to Gibbs Free Energy=         0.239469
 Sum of electronic and zero-point Energies=          -3838.195713
 Sum of electronic and thermal Energies=             -3838.175712
 Sum of electronic and thermal Enthalpies=           -3838.174768
 Sum of electronic and thermal Free Energies=        -3838.247706

                     E (Thermal)             CV                S
                      KCal/Mol        Cal/Mol-Kelvin    Cal/Mol-Kelvin
 Total                  195.446             74.228            153.511
 Electronic               0.000              0.000              0.000
 Translational            0.889              2.981             43.586
 Rotational               0.889              2.981             34.983
 Vibrational            193.668             68.266             74.943
 Vibration     1          0.593              1.986              6.944
 Vibration     2          0.593              1.986              6.636
 Vibration     3          0.594              1.983              5.711
 Vibration     4          0.595              1.978              4.901
 Vibration     5          0.597              1.972              4.372
 Vibration     6          0.600              1.964              3.928
 Vibration     7          0.603              1.953              3.550
 Vibration     8          0.612              1.924              2.950
 Vibration     9          0.612              1.921              2.911
 Vibration    10          0.621              1.893              2.572
 Vibration    11          0.626              1.879              2.428
 Vibration    12          0.631              1.862              2.292
 Vibration    13          0.633              1.854              2.232
 Vibration    14          0.645              1.819              2.003
 Vibration    15          0.651              1.799              1.897
 Vibration    16          0.663              1.763              1.732
 Vibration    17          0.665              1.756              1.704
 Vibration    18          0.700              1.653              1.358
 Vibration    19          0.713              1.614              1.255
 Vibration    20          0.731              1.565              1.145
 Vibration    21          0.737              1.547              1.106
 Vibration    22          0.767              1.467              0.957
 Vibration    23          0.778              1.438              0.909
 Vibration    24          0.785              1.420              0.881
 Vibration    25          0.839              1.288              0.702
 Vibration    26          0.883              1.189              0.593
 Vibration    27          0.896              1.159              0.563
 Vibration    28          0.926              1.095              0.504
 Vibration    29          0.936              1.075              0.486
 Vibration    30          0.978              0.993              0.419

 Optimization completed.
    -- Stationary point found.
 Normal termination of Gaussian 16 at Sun Feb  7 21:54:19 2021.
