 Gaussian 16, Revision A.03,
 Gaussian 16:  ES64L-G16RevA.03 25-Dec-2016

 ----------------------------------------------------------------------
 # wB97XD def2tzvp, opt=(ts, noeigen, calcfc, maxcycles=70, maxstep=8),
  freq=noraman, scrf=(iefpcm, solvent=water)
 ----------------------------------------------------------------------

 ------------------------
 1_iteration/TS-143-1.out
 ------------------------
 Symbolic Z-matrix:
 Charge =  0 Multiplicity = 1

 SCF Done:  E(RwB97XD) =  -3418.18848875     A.U. after   15 cycles
 Optimization completed.
    -- Stationary point found.
 Normal termination of Gaussian 16 at Mon Mar 29 06:57:50 2021.

 ---------------------------------------------------------------------
 #N Geom=AllCheck Guess=TCheck SCRF=Check GenChk RwB97XD/def2TZVP Freq
 ---------------------------------------------------------------------

 Structure from the checkpoint file:  "/beegfs/scratch/user/q/tla25/Gau-122819.chk"
 ------------------------
 1_iteration/TS-143-1.out
 ------------------------
 Charge =  0 Multiplicity = 1

                         Standard orientation:
 ---------------------------------------------------------------------
 Center     Atomic      Atomic             Coordinates (Angstroms)
 Number     Number       Type             X           Y           Z
 ---------------------------------------------------------------------
      1          6           0       -0.475620   -0.889330   -0.852670
      2          6           0        0.977060   -1.036370   -0.913940
      3          8           0        1.497260   -2.001020   -1.473350
      4          6           0       -1.165310    0.002730   -0.068670
      5          6           0       -0.089050   -1.420390    2.166730
      6          1           0       -0.058820   -2.050640    1.273140
      7          1           0        0.916860   -1.351230    2.573230
      8          1           0       -0.745780   -1.876980    2.902930
      9          7           0       -0.578910   -0.098100    1.782610
     10          1           0       -1.380440    0.201370    2.324920
     11          1           0        0.136180    0.609670    1.879930
     12          6           0       -2.653410   -0.103370    0.051900
     13          6           0       -3.513180    0.714690   -0.674330
     14          6           0       -4.884810    0.524250   -0.616350
     15          6           0       -5.419930   -0.480510    0.175330
     16          6           0       -4.571200   -1.304820    0.898320
     17          6           0       -3.199820   -1.121100    0.831260
     18          1           0       -3.110810    1.500480   -1.298090
     19          1           0       -5.536550    1.167830   -1.193070
     20          1           0       -6.491720   -0.622710    0.225720
     21          1           0       -4.974100   -2.099340    1.512930
     22          1           0       -2.553770   -1.797150    1.374700
     23         35           0       -0.680010    2.048860   -0.154130
     24          6           0       -1.223990   -1.942640   -1.644880
     25          1           0       -2.264390   -1.669190   -1.802630
     26          1           0       -0.755440   -2.064940   -2.621820
     27          1           0       -1.203770   -2.920890   -1.155630
     28          7           0        1.746950   -0.085250   -0.275630
     29          6           0        3.137820   -0.078850   -0.116760
     30          6           0        3.906630   -1.241000   -0.059010
     31          6           0        5.274320   -1.152700    0.153910
     32          6           0        5.896630    0.075960    0.319140
     33          6           0        5.129290    1.231590    0.271790
     34          6           0        3.764440    1.157210    0.053970
     35          1           0        1.305800    0.810400   -0.132960
     36          1           0        3.433360   -2.201800   -0.183300
     37          1           0        5.858480   -2.063860    0.195350
     38          1           0        6.964540    0.132790    0.485040
     39          1           0        5.594350    2.200830    0.401570
     40          1           0        3.172740    2.064760    0.016040
 ---------------------------------------------------------------------

 SCF Done:  E(RwB97XD) =  -3418.18848875     A.U. after    1 cycles

 The electronic state is 1-A.
 Alpha  occ. eigenvalues -- -483.12014 -62.66858 -56.45932 -56.45643 -56.45633
 Alpha  occ. eigenvalues --  -19.20830 -14.49640 -14.46062 -10.40098 -10.38621
 Alpha  occ. eigenvalues --  -10.33653 -10.32076 -10.31710 -10.30093 -10.29888
 Alpha  occ. eigenvalues --  -10.29728 -10.29675 -10.29623 -10.29062 -10.28942
 Alpha  occ. eigenvalues --  -10.28870 -10.28407 -10.28346 -10.27607 -10.27100
 Alpha  occ. eigenvalues --   -8.80941  -6.62941  -6.62039  -6.62009  -2.73333
 Alpha  occ. eigenvalues --   -2.73099  -2.73073  -2.72346  -2.72344  -1.13794
 Alpha  occ. eigenvalues --   -1.05046  -1.03774  -0.98233  -0.95589  -0.92750
 Alpha  occ. eigenvalues --   -0.86764  -0.86279  -0.85518  -0.85174  -0.84142
 Alpha  occ. eigenvalues --   -0.79603  -0.77607  -0.74985  -0.71724  -0.71400
 Alpha  occ. eigenvalues --   -0.70320  -0.67517  -0.65430  -0.63765  -0.62614
 Alpha  occ. eigenvalues --   -0.61200  -0.58597  -0.57993  -0.57758  -0.56114
 Alpha  occ. eigenvalues --   -0.55560  -0.54183  -0.53161  -0.52725  -0.51899
 Alpha  occ. eigenvalues --   -0.51759  -0.51223  -0.50607  -0.50239  -0.48779
 Alpha  occ. eigenvalues --   -0.48591  -0.47547  -0.46082  -0.45658  -0.45047
 Alpha  occ. eigenvalues --   -0.44732  -0.44544  -0.43009  -0.42835  -0.42615
 Alpha  occ. eigenvalues --   -0.39304  -0.37720  -0.37026  -0.35050  -0.34490
 Alpha  occ. eigenvalues --   -0.33834  -0.33151  -0.30456  -0.27461
 Alpha virt. eigenvalues --    0.00367   0.02975   0.04764   0.05351   0.06102
 Alpha virt. eigenvalues --    0.07891   0.10103   0.12370   0.12850   0.13562
 Alpha virt. eigenvalues --    0.13764   0.14089   0.15965   0.16138   0.16796

 Mulliken charges:
               1
     1  C   -0.166471
     2  C    0.289745
     3  O   -0.503886
     4  C    0.217190
     5  C   -0.317853
     6  H    0.160937
     7  H    0.166511
     8  H    0.175271
     9  N   -0.308861
    10  H    0.300491
    11  H    0.282308
    12  C    0.070927
    13  C   -0.229476
    14  C   -0.139019
    15  C   -0.138117
    16  C   -0.140529
    17  C   -0.256559
    18  H    0.152608
    19  H    0.146893
    20  H    0.148444
    21  H    0.147248
    22  H    0.166050
    23  Br  -0.247427
    24  C   -0.358249
    25  H    0.143071
    26  H    0.130171
    27  H    0.117687
    28  N   -0.247047
    29  C    0.285226
    30  C   -0.299144
    31  C   -0.094142
    32  C   -0.191800
    33  C   -0.102901
    34  C   -0.298029
    35  H    0.220781
    36  H    0.146859
    37  H    0.141844
    38  H    0.140858
    39  H    0.142926
    40  H    0.145462
 Sum of Mulliken charges =  -0.00000

 Dipole moment (field-independent basis, Debye):
    X=             -5.0959    Y=              1.5579    Z=              7.9397  Tot=              9.5621
 Quadrupole moment (field-independent basis, Debye-Ang):
   XX=           -122.5497   YY=           -140.4445   ZZ=           -134.3371
   XY=             10.1415   XZ=              3.8540   YZ=            -11.4422

  Exact polarizability: 436.939  -2.930 356.397   5.431  -6.389 259.952
 Approx polarizability: 315.395  -3.099 297.681   4.985  -5.390 224.896

 ******    1 imaginary frequencies (negative Signs) ******

                      1                      2                      3
                      A                      A                      A
 Frequencies --   -387.1880                20.2384                25.4709
 Red. masses --      6.0910                 5.5373                 3.8396
 Frc consts  --      0.5380                 0.0013                 0.0015
 IR Inten    --    381.2040                 0.5152                 0.4315

                      4                      5                      6
                      A                      A                      A
 Frequencies --     38.4199                50.4845                74.5732
 Red. masses --      3.6478                 5.1735                 4.4491
 Frc consts  --      0.0032                 0.0078                 0.0146
 IR Inten    --      1.1419                 0.8473                 5.0258

                      7                      8                      9
                      A                      A                      A
 Frequencies --     77.5511               100.1974               114.3656
 Red. masses --      1.9599                 7.8751                 3.0415
 Frc consts  --      0.0069                 0.0466                 0.0234
 IR Inten    --      0.9838                10.0556                12.4396

                     10                     11                     12
                      A                      A                      A
 Frequencies --    125.8075               143.1447               154.0006
 Red. masses --      1.3080                 3.0470                 2.7871
 Frc consts  --      0.0122                 0.0368                 0.0389
 IR Inten    --      2.2084                 0.7259                 6.3201

                     13                     14                     15
                      A                      A                      A
 Frequencies --    166.7087               172.8817               187.4737
 Red. masses --      4.2211                 4.3463                 2.1862
 Frc consts  --      0.0691                 0.0765                 0.0453
 IR Inten    --      6.5822                13.9467                 2.9078

                     16                     17                     18
                      A                      A                      A
 Frequencies --    213.4737               230.7305               259.5825
 Red. masses --      5.3981                 3.3678                 4.8588
 Frc consts  --      0.1449                 0.1056                 0.1929
 IR Inten    --     91.8259                10.8425                 0.6329

                     19                     20                     21
                      A                      A                      A
 Frequencies --    299.0094               320.0091               339.6289
 Red. masses --      3.8412                 3.4952                 4.7489
 Frc consts  --      0.2023                 0.2109                 0.3227
 IR Inten    --     12.2646                12.8505                 0.6983

                     22                     23                     24
                      A                      A                      A
 Frequencies --    364.5901               385.7683               418.1461
 Red. masses --      4.5280                 4.2632                 4.7436
 Frc consts  --      0.3546                 0.3738                 0.4887
 IR Inten    --     32.9397                18.0430                27.3207

                     25                     26                     27
                      A                      A                      A
 Frequencies --    420.2703               424.8206               522.6102
 Red. masses --      3.0746                 3.2167                 3.6041
 Frc consts  --      0.3200                 0.3420                 0.5800
 IR Inten    --      9.1609                 6.2675                12.9558

                     28                     29                     30
                      A                      A                      A
 Frequencies --    526.3893               579.5881               584.7007
 Red. masses --      2.8603                 1.9361                 3.0197
 Frc consts  --      0.4670                 0.3832                 0.6083
 IR Inten    --     22.2866                 0.5097                58.2457

                     31                     32                     33
                      A                      A                      A
 Frequencies --    608.8429               625.7883               639.2361
 Red. masses --      4.9667                 2.9063                 5.2177
 Frc consts  --      1.0847                 0.6706                 1.2562
 IR Inten    --    160.4630                46.4804                 6.8026

                     34                     35                     36
                      A                      A                      A
 Frequencies --    642.5777               676.9139               700.6903
 Red. masses --      4.0411                 1.8354                 4.1123
 Frc consts  --      0.9831                 0.4955                 1.1896
 IR Inten    --     65.3867               123.4870               157.5768

                     37                     38                     39
                      A                      A                      A
 Frequencies --    718.1126               726.2596               780.0322
 Red. masses --      1.8401                 1.5211                 2.8038
 Frc consts  --      0.5591                 0.4727                 1.0051
 IR Inten    --     62.5544               115.7324                61.7294

                     40                     41                     42
                      A                      A                      A
 Frequencies --    787.5039               805.3554               825.4458
 Red. masses --      3.1169                 2.3308                 4.3262
 Frc consts  --      1.1389                 0.8907                 1.7367
 IR Inten    --    143.5830                 9.1370               119.1408

                     43                     44                     45
                      A                      A                      A
 Frequencies --    859.5311               872.7422               877.3292
 Red. masses --      1.2727                 4.2198                 1.2723
 Frc consts  --      0.5540                 1.8937                 0.5770
 IR Inten    --      5.0770                26.8026                 2.0478

                     46                     47                     48
                      A                      A                      A
 Frequencies --    929.6089               952.1672               967.6877
 Red. masses --      1.6863                 3.4107                 1.4790
 Frc consts  --      0.8586                 1.8219                 0.8160
 IR Inten    --     12.6925                 2.9769                 3.1173

                     49                     50                     51
                      A                      A                      A
 Frequencies --   1002.1604              1016.7512              1017.4998
 Red. masses --      1.3572                 1.3921                 1.3300
 Frc consts  --      0.8031                 0.8479                 0.8113
 IR Inten    --      0.4175                 1.2075                 2.4775

                     52                     53                     54
                      A                      A                      A
 Frequencies --   1021.4069              1024.5612              1027.0379
 Red. masses --      4.2388                 1.9476                 4.0390
 Frc consts  --      2.6055                 1.2046                 2.5101
 IR Inten    --     25.3149               138.2565                 8.2362

                     55                     56                     57
                      A                      A                      A
 Frequencies --   1035.5234              1045.7706              1060.2453
 Red. masses --      1.3166                 1.2267                 2.4001
 Frc consts  --      0.8318                 0.7904                 1.5896
 IR Inten    --      0.0823                20.1533                89.6849

                     58                     59                     60
                      A                      A                      A
 Frequencies --   1061.4352              1063.6081              1072.2277
 Red. masses --      2.2327                 1.3961                 1.9934
 Frc consts  --      1.4820                 0.9305                 1.3503
 IR Inten    --     49.5437                 4.6600                16.7088

                     61                     62                     63
                      A                      A                      A
 Frequencies --   1090.4576              1112.8232              1128.9640
 Red. masses --      1.3749                 1.6302                 1.5876
 Frc consts  --      0.9633                 1.1894                 1.1922
 IR Inten    --     36.3949                41.5627                 3.5909

                     64                     65                     66
                      A                      A                      A
 Frequencies --   1139.4423              1181.6846              1185.5749
 Red. masses --      3.0717                 1.1232                 1.3749
 Frc consts  --      2.3497                 0.9241                 1.1386
 IR Inten    --    108.2799                 2.1390                34.1606

                     67                     68                     69
                      A                      A                      A
 Frequencies --   1188.6976              1206.5570              1222.3111
 Red. masses --      1.1395                 1.1307                 1.8906
 Frc consts  --      0.9487                 0.9698                 1.6642
 IR Inten    --      1.9953                13.7307                94.7942

                     70                     71                     72
                      A                      A                      A
 Frequencies --   1229.0102              1282.7563              1307.8709
 Red. masses --      1.5416                 2.6690                 1.6077
 Frc consts  --      1.3719                 2.5875                 1.6202
 IR Inten    --     37.6982               277.8490                50.6265

                     73                     74                     75
                      A                      A                      A
 Frequencies --   1314.6557              1321.6548              1345.3140
 Red. masses --      3.3142                 4.2110                 4.3604
 Frc consts  --      3.3749                 4.3338                 4.6497
 IR Inten    --    116.5173                10.8758               526.3265

                     76                     77                     78
                      A                      A                      A
 Frequencies --   1361.0842              1372.2998              1417.0428
 Red. masses --      1.5570                 1.3900                 1.2622
 Frc consts  --      1.6994                 1.5422                 1.4933
 IR Inten    --     28.7356                 4.6563                22.1374

                     79                     80                     81
                      A                      A                      A
 Frequencies --   1449.6240              1476.0185              1476.9380
 Red. masses --      1.2002                 1.0772                 1.3503
 Frc consts  --      1.4860                 1.3826                 1.7354
 IR Inten    --     89.1548                26.6670               154.8651

                     82                     83                     84
                      A                      A                      A
 Frequencies --   1481.6356              1490.5612              1492.5576
 Red. masses --      2.0118                 2.1269                 1.0751
 Frc consts  --      2.6020                 2.7842                 1.4112
 IR Inten    --    187.6365                26.9059                 4.3180

                     85                     86                     87
                      A                      A                      A
 Frequencies --   1510.0788              1521.0006              1546.0107
 Red. masses --      1.0445                 2.0128                 2.4088
 Frc consts  --      1.4034                 2.7436                 3.3922
 IR Inten    --     13.5460               546.8456               173.2155

                     88                     89                     90
                      A                      A                      A
 Frequencies --   1554.8877              1572.6782              1643.6744
 Red. masses --      2.5769                 2.0588                 1.0975
 Frc consts  --      3.6707                 3.0001                 1.7470
 IR Inten    --    108.3084               499.3865               103.2348

                     91                     92                     93
                      A                      A                      A
 Frequencies --   1651.6911              1661.6062              1670.5346
 Red. masses --      5.5828                 6.5651                 4.2017
 Frc consts  --      8.9735                10.6794                 6.9086
 IR Inten    --      5.9973               202.9946               153.5422

                     94                     95                     96
                      A                      A                      A
 Frequencies --   1674.8076              1685.4565              3039.8997
 Red. masses --      5.7569                 6.3355                 1.0470
 Frc consts  --      9.5141                10.6039                 5.7006
 IR Inten    --      0.6037               672.8741                78.9463

                     97                     98                     99
                      A                      A                      A
 Frequencies --   3051.5066              3107.7695              3139.4658
 Red. masses --      1.0435                 1.0921                 1.0906
 Frc consts  --      5.7247                 6.2145                 6.3335
 IR Inten    --     49.8936                34.4953                 5.6245

                    100                    101                    102
                      A                      A                      A
 Frequencies --   3160.4943              3180.9523              3187.2179
 Red. masses --      1.0989                 1.1077                 1.0882
 Frc consts  --      6.4675                 6.6034                 6.5132
 IR Inten    --     24.9870                13.1899                12.8464

                    103                    104                    105
                      A                      A                      A
 Frequencies --   3197.0954              3201.0392              3206.7591
 Red. masses --      1.0881                 1.0863                 1.0930
 Frc consts  --      6.5529                 6.5584                 6.6224
 IR Inten    --      2.1650                 0.2309                29.2681

                    106                    107                    108
                      A                      A                      A
 Frequencies --   3209.9536              3220.2234              3221.2357
 Red. masses --      1.0897                 1.0935                 1.0979
 Frc consts  --      6.6154                 6.6810                 6.7119
 IR Inten    --      8.7034                24.1565                23.2809

                    109                    110                    111
                      A                      A                      A
 Frequencies --   3229.6865              3233.0944              3252.9163
 Red. masses --      1.0937                 1.0960                 1.0936
 Frc consts  --      6.7216                 6.7497                 6.8181
 IR Inten    --     15.3600                 2.9495                 1.5117

                    112                    113                    114
                      A                      A                      A
 Frequencies --   3541.9517              3577.5124              3626.0074
 Red. masses --      1.0524                 1.0770                 1.0958
 Frc consts  --      7.7788                 8.1214                 8.4890
 IR Inten    --     52.1821               272.5857                53.3767

 - Thermochemistry -
 -------------------
 Temperature   298.150 Kelvin.  Pressure   1.00000 Atm.
 Atom     1 has atomic number  6 and mass  12.00000

 Molecular mass:   346.06807 amu.
 Principal axes and moments of inertia in atomic units:
                           1         2         3
     Eigenvalues --  3297.78420********************
           X            0.99993   0.01175   0.00256
           Y           -0.01172   0.99988  -0.01052
           Z           -0.00269   0.01049   0.99994
 This molecule is an asymmetric top.
 Rotational symmetry number  1.
 Warning -- assumption of classical behavior for rotation
           may cause significant error
 Rotational temperatures (Kelvin)      0.02626     0.00697     0.00626
 Rotational constants (GHZ):           0.54726     0.14516     0.13047
    1 imaginary frequencies ignored.
 Zero-point vibrational energy     863329.6 (Joules/Mol)
                                  206.34072 (Kcal/Mol)
 Warning -- explicit consideration of  30 degrees of freedom as
           vibrations may cause significant error
 Vibrational temperatures:     29.12    36.65    55.28    72.64   107.29
          (Kelvin)            111.58   144.16   164.55   181.01   205.95
                              221.57   239.86   248.74   269.73   307.14
                              331.97   373.48   430.21   460.42   488.65
                              524.56   555.03   601.62   604.68   611.22
                              751.92   757.36   833.90   841.25   875.99
                              900.37   919.72   924.53   973.93  1008.14
                             1033.20  1044.93  1122.29  1133.04  1158.73
                             1187.63  1236.67  1255.68  1262.28  1337.50
                             1369.96  1392.29  1441.89  1462.88  1463.96
                             1469.58  1474.12  1477.68  1489.89  1504.63
                             1525.46  1527.17  1530.29  1542.70  1568.93
                             1601.10  1624.33  1639.40  1700.18  1705.78
                             1710.27  1735.97  1758.63  1768.27  1845.60
                             1881.73  1891.50  1901.57  1935.61  1958.30
                             1974.43  2038.81  2085.69  2123.66  2124.98
                             2131.74  2144.59  2147.46  2172.67  2188.38
                             2224.36  2237.14  2262.73  2364.88  2376.42
                             2390.68  2403.53  2409.67  2425.00  4373.74
                             4390.44  4471.39  4516.99  4547.25  4576.68
                             4585.70  4599.91  4605.58  4613.81  4618.41
                             4633.18  4634.64  4646.80  4651.70  4680.22
                             5096.08  5147.24  5217.02

 Zero-point correction=                           0.328825 (Hartree/Particle)
 Thermal correction to Energy=                    0.349301
 Thermal correction to Enthalpy=                  0.350245
 Thermal correction to Gibbs Free Energy=         0.277140
 Sum of electronic and zero-point Energies=          -3417.859664
 Sum of electronic and thermal Energies=             -3417.839187
 Sum of electronic and thermal Enthalpies=           -3417.838243
 Sum of electronic and thermal Free Energies=        -3417.911349

                     E (Thermal)             CV                S
                      KCal/Mol        Cal/Mol-Kelvin    Cal/Mol-Kelvin
 Total                  219.190             76.335            153.863
 Electronic               0.000              0.000              0.000
 Translational            0.889              2.981             43.419
 Rotational               0.889              2.981             34.694
 Vibrational            217.412             70.373             75.751
 Vibration     1          0.593              1.986              6.611
 Vibration     2          0.593              1.985              6.154
 Vibration     3          0.594              1.982              5.339
 Vibration     4          0.595              1.977              4.798
 Vibration     5          0.599              1.966              4.029
 Vibration     6          0.599              1.964              3.952
 Vibration     7          0.604              1.949              3.450
 Vibration     8          0.607              1.938              3.193
 Vibration     9          0.611              1.927              3.009
 Vibration    10          0.616              1.910              2.761
 Vibration    11          0.620              1.898              2.622
 Vibration    12          0.624              1.883              2.472
 Vibration    13          0.626              1.876              2.404
 Vibration    14          0.632              1.857              2.253
 Vibration    15          0.644              1.820              2.014
 Vibration    16          0.652              1.794              1.873
 Vibration    17          0.668              1.747              1.665
 Vibration    18          0.692              1.676              1.422
 Vibration    19          0.706              1.635              1.310
 Vibration    20          0.720              1.596              1.214
 Vibration    21          0.738              1.545              1.102
 Vibration    22          0.754              1.501              1.016
 Vibration    23          0.781              1.431              0.898
 Vibration    24          0.783              1.426              0.891
 Vibration    25          0.787              1.416              0.876
 Vibration    26          0.878              1.200              0.604
 Vibration    27          0.881              1.192              0.595
 Vibration    28          0.936              1.075              0.486
 Vibration    29          0.942              1.064              0.477
 Vibration    30          0.968              1.013              0.435

 Optimization completed.
    -- Stationary point found.
 Normal termination of Gaussian 16 at Mon Mar 29 09:43:12 2021.
