 Gaussian 16, Revision A.03,
 Gaussian 16:  ES64L-G16RevA.03 25-Dec-2016

 ----------------------------------------------------------------------
 # wB97XD def2tzvp, opt=(ts, noeigen, calcfc, maxcycles=70, maxstep=5),
  freq=noraman, scrf=(iefpcm, solvent=water)
 ----------------------------------------------------------------------

 ------------------------
 2_iteration/TS-138-2.out
 ------------------------
 Symbolic Z-matrix:
 Charge =  0 Multiplicity = 1

 SCF Done:  E(RwB97XD) =  -3171.07474792     A.U. after   15 cycles
 SCF Done:  E(RwB97XD) =  -3171.07474768     A.U. after    7 cycles
 Optimization completed.
    -- Stationary point found.
 Normal termination of Gaussian 16 at Sun Feb  7 15:25:56 2021.

 ---------------------------------------------------------------------
 #N Geom=AllCheck Guess=TCheck SCRF=Check GenChk RwB97XD/def2TZVP Freq
 ---------------------------------------------------------------------

 Structure from the checkpoint file:  "/beegfs/scratch/user/q/tla25/Gau-36851.chk"
 ------------------------
 2_iteration/TS-138-2.out
 ------------------------
 Charge =  0 Multiplicity = 1

                         Standard orientation:
 ---------------------------------------------------------------------
 Center     Atomic      Atomic             Coordinates (Angstroms)
 Number     Number       Type             X           Y           Z
 ---------------------------------------------------------------------
      1          6           0        0.985735   -1.019947   -0.423214
      2          6           0        2.396990   -0.995165   -0.679825
      3          8           0        2.937168   -1.921795   -1.303427
      4          6           0        0.206620   -0.010840    0.155080
      5          6           0        0.709305   -1.216530    2.614377
      6          1           0        1.361496   -1.795529    1.960230
      7          1           0        1.164828   -1.130841    3.599256
      8          1           0       -0.247641   -1.725825    2.696536
      9          7           0        0.523870    0.099950    2.009469
     10          1           0       -0.189562    0.652867    2.472681
     11          1           0        1.381971    0.636091    2.061599
     12          6           0       -1.292132   -0.116015    0.010777
     13          6           0       -1.794983   -0.032993   -1.290038
     14          6           0       -3.149717   -0.136325   -1.538644
     15          6           0       -4.039846   -0.326799   -0.488630
     16          6           0       -3.553562   -0.412419    0.802749
     17          6           0       -2.189821   -0.306983    1.052091
     18          1           0       -1.106633    0.111520   -2.112974
     19          1           0       -3.513194   -0.068937   -2.556029
     20          1           0       -5.101997   -0.408320   -0.679746
     21          1           0       -4.231794   -0.565167    1.632270
     22          1           0       -1.864484   -0.397812    2.077227
     23         35           0        0.646024    1.913979   -0.205797
     24          6           0        0.304607   -2.329270   -0.780630
     25          1           0       -0.614349   -2.482775   -0.217461
     26          1           0        0.051128   -2.391979   -1.844003
     27          1           0        0.975620   -3.160579   -0.563341
     28          6           0        3.322013    0.112266   -0.206676
     29          1           0        3.399438    0.883237   -0.975237
     30          1           0        3.019901    0.602236    0.715333
     31          1           0        4.308731   -0.326606   -0.066796
 ---------------------------------------------------------------------

 SCF Done:  E(RwB97XD) =  -3171.07474768     A.U. after    1 cycles

 The electronic state is 1-A.
 Alpha  occ. eigenvalues -- -483.12649 -62.67487 -56.46597 -56.46258 -56.46242
 Alpha  occ. eigenvalues --  -19.19939 -14.50356 -10.40498 -10.34921 -10.32283
 Alpha  occ. eigenvalues --  -10.31772 -10.30165 -10.29657 -10.29625 -10.29544
 Alpha  occ. eigenvalues --  -10.29457 -10.27155 -10.26550 -10.26325  -8.81578
 Alpha  occ. eigenvalues --   -6.63694  -6.62627  -6.62577  -2.74076  -2.73790
 Alpha  occ. eigenvalues --   -2.73750  -2.72886  -2.72886  -1.10675  -1.05769
 Alpha  occ. eigenvalues --   -0.98216  -0.93226  -0.86391  -0.86073  -0.85674
 Alpha  occ. eigenvalues --   -0.82293  -0.79833  -0.76799  -0.72598  -0.71434
 Alpha  occ. eigenvalues --   -0.67731  -0.65304  -0.61198  -0.59213  -0.58142
 Alpha  occ. eigenvalues --   -0.56743  -0.55718  -0.55045  -0.53448  -0.52563
 Alpha  occ. eigenvalues --   -0.51520  -0.51481  -0.49825  -0.49254  -0.48061
 Alpha  occ. eigenvalues --   -0.47861  -0.46645  -0.45643  -0.44666  -0.44420
 Alpha  occ. eigenvalues --   -0.43044  -0.42489  -0.41816  -0.37714  -0.37395
 Alpha  occ. eigenvalues --   -0.34473  -0.33388  -0.31639  -0.27158
 Alpha virt. eigenvalues --    0.01850   0.04300   0.04741   0.06760   0.09771
 Alpha virt. eigenvalues --    0.12365   0.13190   0.13927   0.14948   0.15335
 Alpha virt. eigenvalues --    0.16165   0.16419   0.17567   0.17857   0.18430

 Mulliken charges:
               1
     1  C   -0.252302
     2  C    0.214410
     3  O   -0.521078
     4  C    0.224059
     5  C   -0.290563
     6  H    0.162840
     7  H    0.168543
     8  H    0.158456
     9  N   -0.298030
    10  H    0.294559
    11  H    0.279284
    12  C    0.165825
    13  C   -0.306669
    14  C   -0.119900
    15  C   -0.145261
    16  C   -0.174740
    17  C   -0.185654
    18  H    0.162925
    19  H    0.146587
    20  H    0.147039
    21  H    0.145993
    22  H    0.138018
    23  Br  -0.146291
    24  C   -0.373152
    25  H    0.138023
    26  H    0.117985
    27  H    0.127666
    28  C   -0.343945
    29  H    0.145577
    30  H    0.090621
    31  H    0.129172
 Sum of Mulliken charges =   0.00000

 Dipole moment (field-independent basis, Debye):
    X=             -5.3450    Y=              2.9332    Z=              8.7867  Tot=             10.6949
 Quadrupole moment (field-independent basis, Debye-Ang):
   XX=           -107.7217   YY=           -116.4722   ZZ=            -87.7201
   XY=             14.4722   XZ=             13.0537   YZ=             -8.0830

  Exact polarizability: 287.699  -5.500 222.366 -16.982   9.071 242.442
 Approx polarizability: 217.929  -3.208 183.388 -12.426   6.163 207.039

 ******    1 imaginary frequencies (negative Signs) ******

                      1                      2                      3
                      A                      A                      A
 Frequencies --   -369.3372                21.5741                68.6183
 Red. masses --      5.3620                 3.4410                 4.7381
 Frc consts  --      0.4309                 0.0009                 0.0131
 IR Inten    --    731.0221                 0.2229                 4.0572

                      4                      5                      6
                      A                      A                      A
 Frequencies --     73.3944                84.8111               113.0749
 Red. masses --      3.6916                 5.6491                 1.8680
 Frc consts  --      0.0117                 0.0239                 0.0141
 IR Inten    --      5.8385                 5.5757                 1.7838

                      7                      8                      9
                      A                      A                      A
 Frequencies --    123.3521               132.8341               160.3936
 Red. masses --      1.6181                 2.0773                 1.3773
 Frc consts  --      0.0145                 0.0216                 0.0209
 IR Inten    --      1.7476                 3.9109                 1.2834

                     10                     11                     12
                      A                      A                      A
 Frequencies --    168.4551               185.5534               196.3677
 Red. masses --      4.6428                 2.9245                 1.1371
 Frc consts  --      0.0776                 0.0593                 0.0258
 IR Inten    --      6.6046                 2.3409                 0.6089

                     13                     14                     15
                      A                      A                      A
 Frequencies --    241.9974               256.4500               269.2224
 Red. masses --      2.8699                 5.7645                 3.3849
 Frc consts  --      0.0990                 0.2234                 0.1445
 IR Inten    --      1.0997                20.6127                 7.3485

                     16                     17                     18
                      A                      A                      A
 Frequencies --    299.6244               331.5521               346.7054
 Red. masses --      3.6795                 3.4868                 4.3926
 Frc consts  --      0.1946                 0.2258                 0.3111
 IR Inten    --     30.4231                36.2401                 3.4627

                     19                     20                     21
                      A                      A                      A
 Frequencies --    388.3678               419.6388               466.0824
 Red. masses --      3.3117                 2.8703                 3.6273
 Frc consts  --      0.2943                 0.2978                 0.4643
 IR Inten    --      8.2555                 1.1505                83.7822

                     22                     23                     24
                      A                      A                      A
 Frequencies --    528.8112               580.3959               597.9861
 Red. masses --      3.4898                 3.5334                 3.2062
 Frc consts  --      0.5750                 0.7013                 0.6755
 IR Inten    --     10.4728               115.4642                30.9104

                     25                     26                     27
                      A                      A                      A
 Frequencies --    626.8970               638.5301               669.3341
 Red. masses --      2.7222                 5.2571                 4.0682
 Frc consts  --      0.6303                 1.2629                 1.0738
 IR Inten    --     15.3070                 2.6909                98.1131

                     28                     29                     30
                      A                      A                      A
 Frequencies --    690.3136               723.1232               758.5677
 Red. masses --      2.0307                 1.6101                 2.6688
 Frc consts  --      0.5702                 0.4960                 0.9048
 IR Inten    --     58.0601                69.4535               256.9114

                     31                     32                     33
                      A                      A                      A
 Frequencies --    827.6073               868.6926               874.2001
 Red. masses --      2.8454                 1.3755                 2.7475
 Frc consts  --      1.1483                 0.6115                 1.2371
 IR Inten    --     42.6700                 4.4705                42.1807

                     34                     35                     36
                      A                      A                      A
 Frequencies --    954.8816               972.0792               994.3380
 Red. masses --      1.4548                 1.7983                 1.1966
 Frc consts  --      0.7816                 1.0012                 0.6971
 IR Inten    --      1.7360                14.8314                53.1993

                     37                     38                     39
                      A                      A                      A
 Frequencies --   1011.6262              1021.5260              1026.7679
 Red. masses --      1.3753                 2.5833                 2.9330
 Frc consts  --      0.8292                 1.5883                 1.8218
 IR Inten    --      6.5345               195.3103                82.7882

                     40                     41                     42
                      A                      A                      A
 Frequencies --   1032.7381              1036.2836              1061.0610
 Red. masses --      1.3211                 1.6502                 1.2609
 Frc consts  --      0.8302                 1.0441                 0.8364
 IR Inten    --      0.1481                23.4529                44.7987

                     43                     44                     45
                      A                      A                      A
 Frequencies --   1065.8881              1069.3111              1076.4025
 Red. masses --      1.5728                 1.9534                 3.5468
 Frc consts  --      1.0528                 1.3160                 2.4212
 IR Inten    --     17.2957                32.6042                76.0838

                     46                     47                     48
                      A                      A                      A
 Frequencies --   1114.5441              1129.3511              1187.9135
 Red. masses --      2.3754                 1.5913                 1.1390
 Frc consts  --      1.7385                 1.1958                 0.9470
 IR Inten    --     20.6623                 6.6691                 0.2514

                     49                     50                     51
                      A                      A                      A
 Frequencies --   1221.3490              1226.7066              1235.0790
 Red. masses --      2.3956                 1.1858                 1.6350
 Frc consts  --      2.1054                 1.0513                 1.4694
 IR Inten    --     68.3900                12.8299                15.2830

                     52                     53                     54
                      A                      A                      A
 Frequencies --   1319.9974              1336.5250              1358.8715
 Red. masses --      4.6764                 1.3239                 3.3964
 Frc consts  --      4.8008                 1.3933                 3.6951
 IR Inten    --     17.3894                10.1137               161.8931

                     55                     56                     57
                      A                      A                      A
 Frequencies --   1370.4389              1395.4285              1412.7649
 Red. masses --      1.3997                 1.5379                 1.7624
 Frc consts  --      1.5489                 1.7644                 2.0725
 IR Inten    --     10.2873               101.8298               478.3234

                     58                     59                     60
                      A                      A                      A
 Frequencies --   1419.0550              1452.6893              1460.7174
 Red. masses --      1.6995                 1.2088                 1.1007
 Frc consts  --      2.0163                 1.5030                 1.3837
 IR Inten    --    623.9198                49.6520                 5.6344

                     61                     62                     63
                      A                      A                      A
 Frequencies --   1474.7177              1485.0259              1489.0474
 Red. masses --      1.0513                 1.1058                 2.0732
 Frc consts  --      1.3471                 1.4368                 2.7084
 IR Inten    --     11.4218                15.1775                23.0344

                     64                     65                     66
                      A                      A                      A
 Frequencies --   1493.5993              1498.9488              1503.0039
 Red. masses --      1.0575                 1.0871                 1.1225
 Frc consts  --      1.3899                 1.4390                 1.4941
 IR Inten    --      5.4841               117.4729               124.6122

                     67                     68                     69
                      A                      A                      A
 Frequencies --   1545.9565              1620.4355              1646.1298
 Red. masses --      2.2698                 7.8271                 1.3565
 Frc consts  --      3.1962                12.1092                 2.1657
 IR Inten    --     18.4452               774.4903                43.0798

                     70                     71                     72
                      A                      A                      A
 Frequencies --   1656.2818              1675.5187              3029.8783
 Red. masses --      2.9087                 5.6566                 1.0489
 Frc consts  --      4.7013                 9.3563                 5.6731
 IR Inten    --     19.3754                 0.3716                94.8825

                     73                     74                     75
                      A                      A                      A
 Frequencies --   3072.3424              3075.0360              3101.9687
 Red. masses --      1.0385                 1.0336                 1.0878
 Frc consts  --      5.7756                 5.7584                 6.1671
 IR Inten    --     11.1357                32.2394                42.7500

                     76                     77                     78
                      A                      A                      A
 Frequencies --   3144.6662              3145.0598              3155.7555
 Red. masses --      1.1004                 1.0994                 1.1038
 Frc consts  --      6.4115                 6.4072                 6.4767
 IR Inten    --     22.1531                26.5252                 2.4745

                     79                     80                     81
                      A                      A                      A
 Frequencies --   3171.2435              3178.2321              3199.4991
 Red. masses --      1.1014                 1.1061                 1.0862
 Frc consts  --      6.5260                 6.5831                 6.5514
 IR Inten    --     44.8971                11.9041                 1.0219

                     82                     83                     84
                      A                      A                      A
 Frequencies --   3207.0602              3215.5721              3224.6974
 Red. masses --      1.0891                 1.0937                 1.0978
 Frc consts  --      6.6000                 6.6631                 6.7257
 IR Inten    --      3.5119                19.7754                21.9495

                     85                     86                     87
                      A                      A                      A
 Frequencies --   3242.7535              3522.4342              3597.4162
 Red. masses --      1.0931                 1.0523                 1.0949
 Frc consts  --      6.7720                 7.6929                 8.3483
 IR Inten    --     15.0803                40.1189                57.8892

 - Thermochemistry -
 -------------------
 Temperature   298.150 Kelvin.  Pressure   1.00000 Atm.
 Atom     1 has atomic number  6 and mass  12.00000

 Molecular mass:   269.04153 amu.
 Principal axes and moments of inertia in atomic units:
                           1         2         3
     Eigenvalues --  2874.653795002.835095626.68002
           X            0.99984  -0.00961   0.01495
           Y            0.00979   0.99988  -0.01208
           Z           -0.01483   0.01222   0.99982
 This molecule is an asymmetric top.
 Rotational symmetry number  1.
 Warning -- assumption of classical behavior for rotation
           may cause significant error
 Rotational temperatures (Kelvin)      0.03013     0.01731     0.01539
 Rotational constants (GHZ):           0.62781     0.36074     0.32075
    1 imaginary frequencies ignored.
 Zero-point vibrational energy     676303.7 (Joules/Mol)
                                  161.64046 (Kcal/Mol)
 Warning -- explicit consideration of  23 degrees of freedom as
           vibrations may cause significant error
 Vibrational temperatures:     31.04    98.73   105.60   122.02   162.69
          (Kelvin)            177.48   191.12   230.77   242.37   266.97
                              282.53   348.18   368.97   387.35   431.09
                              477.03   498.83   558.77   603.77   670.59
                              760.84   835.06   860.37   901.96   918.70
                              963.02   993.21  1040.41  1091.41  1190.74
                             1249.85  1257.78  1373.86  1398.61  1430.63
                             1455.50  1469.75  1477.29  1485.88  1490.98
                             1526.63  1533.58  1538.50  1548.70  1603.58
                             1624.88  1709.14  1757.25  1764.96  1777.00
                             1899.18  1922.96  1955.11  1971.76  2007.71
                             2032.65  2041.70  2090.10  2101.65  2121.79
                             2136.62  2142.41  2148.96  2156.65  2162.49
                             2224.29  2331.45  2368.41  2383.02  2410.70
                             4359.32  4420.42  4424.29  4463.04  4524.47
                             4525.04  4540.43  4562.71  4572.77  4603.37
                             4614.24  4626.49  4639.62  4665.60  5068.00
                             5175.88

 Zero-point correction=                           0.257590 (Hartree/Particle)
 Thermal correction to Energy=                    0.273669
 Thermal correction to Enthalpy=                  0.274614
 Thermal correction to Gibbs Free Energy=         0.212993
 Sum of electronic and zero-point Energies=          -3170.817157
 Sum of electronic and thermal Energies=             -3170.801078
 Sum of electronic and thermal Enthalpies=           -3170.800134
 Sum of electronic and thermal Free Energies=        -3170.861754

                     E (Thermal)             CV                S
                      KCal/Mol        Cal/Mol-Kelvin    Cal/Mol-Kelvin
 Total                  171.730             58.836            129.691
 Electronic               0.000              0.000              0.000
 Translational            0.889              2.981             42.668
 Rotational               0.889              2.981             32.759
 Vibrational            169.953             52.874             54.264
 Vibration     1          0.593              1.985              6.484
 Vibration     2          0.598              1.969              4.193
 Vibration     3          0.599              1.967              4.060
 Vibration     4          0.601              1.960              3.776
 Vibration     5          0.607              1.939              3.215
 Vibration     6          0.610              1.930              3.047
 Vibration     7          0.613              1.921              2.905
 Vibration     8          0.622              1.891              2.545
 Vibration     9          0.625              1.881              2.453
 Vibration    10          0.632              1.860              2.272
 Vibration    11          0.636              1.845              2.167
 Vibration    12          0.658              1.776              1.788
 Vibration    13          0.666              1.752              1.686
 Vibration    14          0.674              1.730              1.601
 Vibration    15          0.692              1.674              1.419
 Vibration    16          0.714              1.612              1.253
 Vibration    17          0.725              1.582              1.181
 Vibration    18          0.757              1.495              1.006
 Vibration    19          0.782              1.428              0.893
 Vibration    20          0.823              1.325              0.749
 Vibration    21          0.884              1.186              0.590
 Vibration    22          0.937              1.074              0.485
 Vibration    23          0.956              1.036              0.453

 Optimization completed.
    -- Stationary point found.
 Normal termination of Gaussian 16 at Sun Feb  7 16:39:46 2021.
