 Gaussian 16, Revision A.03,
 Gaussian 16:  ES64L-G16RevA.03 25-Dec-2016

 ----------------------------------------------------------------------
 # wB97XD def2tzvp, opt=(ts, noeigen, calcfc, maxcycles=70, maxstep=8),
  freq=noraman, scrf=(iefpcm, solvent=water)
 ----------------------------------------------------------------------

 ------------------------
 1_iteration/TS-187-1.out
 ------------------------
 Symbolic Z-matrix:
 Charge =  0 Multiplicity = 1

 SCF Done:  E(RwB97XD) =  -3607.44114881     A.U. after   16 cycles
 SCF Done:  E(RwB97XD) =  -3607.44150327     A.U. after   12 cycles
 SCF Done:  E(RwB97XD) =  -3607.44153591     A.U. after   11 cycles
 SCF Done:  E(RwB97XD) =  -3607.44154382     A.U. after   10 cycles
 SCF Done:  E(RwB97XD) =  -3607.44154414     A.U. after   10 cycles
 SCF Done:  E(RwB97XD) =  -3607.44154172     A.U. after   11 cycles
 SCF Done:  E(RwB97XD) =  -3607.44154222     A.U. after   10 cycles
 SCF Done:  E(RwB97XD) =  -3607.44152630     A.U. after   12 cycles
 SCF Done:  E(RwB97XD) =  -3607.44152837     A.U. after   10 cycles
 SCF Done:  E(RwB97XD) =  -3607.44154211     A.U. after   11 cycles
 SCF Done:  E(RwB97XD) =  -3607.44154350     A.U. after   10 cycles
 SCF Done:  E(RwB97XD) =  -3607.44154222     A.U. after   10 cycles
 SCF Done:  E(RwB97XD) =  -3607.44154333     A.U. after    9 cycles
 Optimization completed.
    -- Stationary point found.
 Normal termination of Gaussian 16 at Sun Feb  7 05:35:59 2021.

 ---------------------------------------------------------------------
 #N Geom=AllCheck Guess=TCheck SCRF=Check GenChk RwB97XD/def2TZVP Freq
 ---------------------------------------------------------------------

 Structure from the checkpoint file:  "/beegfs/scratch/user/q/tla25/Gau-35674.chk"
 ------------------------
 1_iteration/TS-187-1.out
 ------------------------
 Charge =  0 Multiplicity = 1

                         Standard orientation:
 ---------------------------------------------------------------------
 Center     Atomic      Atomic             Coordinates (Angstroms)
 Number     Number       Type             X           Y           Z
 ---------------------------------------------------------------------
      1          6           0       -1.063347    0.222508   -0.240745
      2          6           0       -2.487456   -0.059784   -0.322888
      3          8           0       -2.915250   -1.215835   -0.197877
      4          6           0       -0.105254   -0.779131   -0.232770
      5          6           0       -0.931264   -1.272461    2.495741
      6          1           0       -0.103701   -1.196821    3.196234
      7          1           0       -1.269705   -0.267861    2.228757
      8          1           0       -1.755384   -1.796979    2.978000
      9          7           0       -0.519084   -1.953938    1.275965
     10          1           0        0.200187   -2.652267    1.418931
     11          1           0       -1.326782   -2.378101    0.831136
     12          6           0        1.351000   -0.435129   -0.119646
     13          6           0        2.050349   -0.115095   -1.282037
     14          6           0        3.378254    0.269260   -1.221709
     15          6           0        4.031893    0.332709    0.001404
     16          6           0        3.343171    0.014152    1.159872
     17          6           0        2.009298   -0.364198    1.100105
     18          1           0        1.547483   -0.160870   -2.239002
     19          1           0        3.904438    0.518483   -2.134182
     20          1           0        5.072007    0.628436    0.049004
     21          1           0        3.840188    0.060575    2.120226
     22          1           0        1.491014   -0.587043    2.019477
     23         17           0       -0.304875   -2.119665   -1.445101
     24         35           0       -0.517893    2.026933    0.100354
     25          7           0       -3.346612    0.967151   -0.517795
     26          1           0       -3.038456    1.913808   -0.637499
     27          1           0       -4.330146    0.767475   -0.524898
 ---------------------------------------------------------------------

 SCF Done:  E(RwB97XD) =  -3607.44154333     A.U. after    1 cycles

 The electronic state is 1-A.
 Alpha  occ. eigenvalues -- -483.12961-101.69396 -62.67776 -56.46893 -56.46543
 Alpha  occ. eigenvalues --  -56.46532 -19.20994 -14.48313 -14.44506 -10.41077
 Alpha  occ. eigenvalues --  -10.39205 -10.31725 -10.31699 -10.31538 -10.29974
 Alpha  occ. eigenvalues --  -10.29821 -10.29603 -10.29563 -10.29513  -9.57993
 Alpha  occ. eigenvalues --   -8.81877  -7.32633  -7.31781  -7.31737  -6.64020
 Alpha  occ. eigenvalues --   -6.62905  -6.62868  -2.74409  -2.74090  -2.74059
 Alpha  occ. eigenvalues --   -2.73158  -2.73157  -1.13668  -1.04246  -1.00329
 Alpha  occ. eigenvalues --   -0.98953  -0.95792  -0.91198  -0.86882  -0.85880
 Alpha  occ. eigenvalues --   -0.81774  -0.78963  -0.75190  -0.71350  -0.69857
 Alpha  occ. eigenvalues --   -0.65826  -0.63534  -0.62501  -0.59645  -0.57898
 Alpha  occ. eigenvalues --   -0.57357  -0.55964  -0.55304  -0.53872  -0.52291
 Alpha  occ. eigenvalues --   -0.51798  -0.51447  -0.49996  -0.48427  -0.47551
 Alpha  occ. eigenvalues --   -0.46856  -0.45715  -0.43783  -0.43096  -0.40485
 Alpha  occ. eigenvalues --   -0.40333  -0.39329  -0.38136  -0.35316  -0.34536
 Alpha  occ. eigenvalues --   -0.34363  -0.33454  -0.27996
 Alpha virt. eigenvalues --    0.01710   0.04274   0.05230   0.06733   0.10704
 Alpha virt. eigenvalues --    0.11176   0.13074   0.13887   0.14686   0.15339
 Alpha virt. eigenvalues --    0.15972   0.17011   0.17400   0.18184   0.18927

 Mulliken charges:
               1
     1  C   -0.329092
     2  C    0.339492
     3  O   -0.537663
     4  C    0.302506
     5  C   -0.290382
     6  H    0.159592
     7  H    0.152430
     8  H    0.157803
     9  N   -0.353361
    10  H    0.292241
    11  H    0.280860
    12  C    0.130649
    13  C   -0.272142
    14  C   -0.135525
    15  C   -0.129581
    16  C   -0.172955
    17  C   -0.123369
    18  H    0.150820
    19  H    0.147038
    20  H    0.147875
    21  H    0.144698
    22  H    0.120211
    23  Cl  -0.134994
    24  Br  -0.130611
    25  N   -0.462376
    26  H    0.273443
    27  H    0.272390
 Sum of Mulliken charges =  -0.00000

 Dipole moment (field-independent basis, Debye):
    X=              2.5227    Y=             -0.1625    Z=              4.3017  Tot=              4.9895
 Quadrupole moment (field-independent basis, Debye-Ang):
   XX=            -98.9265   YY=           -106.2786   ZZ=            -98.0197
   XY=             -8.2598   XZ=             -0.9850   YZ=            -11.3068

  Exact polarizability: 266.947   6.901 226.679   7.616  -6.996 223.701
 Approx polarizability: 206.400   9.323 191.796   5.607  -4.118 192.755

 ******    1 imaginary frequencies (negative Signs) ******

                      1                      2                      3
                      A                      A                      A
 Frequencies --   -333.2106                27.8274                61.0436
 Red. masses --      5.7022                 4.1356                 7.0354
 Frc consts  --      0.3730                 0.0019                 0.0154
 IR Inten    --    501.8601                 0.9048                 2.6683

                      4                      5                      6
                      A                      A                      A
 Frequencies --     66.0619                82.6162               103.0614
 Red. masses --      7.1394                 7.6814                 1.1760
 Frc consts  --      0.0184                 0.0309                 0.0074
 IR Inten    --      0.1492                 1.1591               281.1173

                      7                      8                      9
                      A                      A                      A
 Frequencies --    125.0506               134.5124               175.2642
 Red. masses --      3.6364                 2.1044                 5.5493
 Frc consts  --      0.0335                 0.0224                 0.1004
 IR Inten    --     34.9358                 2.4583                 9.0914

                     10                     11                     12
                      A                      A                      A
 Frequencies --    181.4900               193.7791               205.2136
 Red. masses --      2.3438                 7.9196                 2.0005
 Frc consts  --      0.0455                 0.1752                 0.0496
 IR Inten    --     18.9189                 2.3314                20.2538

                     13                     14                     15
                      A                      A                      A
 Frequencies --    212.7568               251.7901               302.3073
 Red. masses --      3.9531                 5.8078                 4.5957
 Frc consts  --      0.1054                 0.2169                 0.2475
 IR Inten    --      1.3363                 0.9377                 4.2483

                     16                     17                     18
                      A                      A                      A
 Frequencies --    310.5825               329.4905               354.1109
 Red. masses --      4.2391                 5.2761                 7.4476
 Frc consts  --      0.2409                 0.3375                 0.5502
 IR Inten    --      9.9081                 8.5603                36.5709

                     19                     20                     21
                      A                      A                      A
 Frequencies --    415.1965               415.9113               498.5200
 Red. masses --      5.2400                 3.0484                 4.0676
 Frc consts  --      0.5322                 0.3107                 0.5956
 IR Inten    --     11.9440                 2.8273                65.7939

                     22                     23                     24
                      A                      A                      A
 Frequencies --    545.8755               563.6821               585.1219
 Red. masses --      1.5501                 1.8100                 3.5955
 Frc consts  --      0.2721                 0.3388                 0.7253
 IR Inten    --     44.1402                40.2853               118.8094

                     25                     26                     27
                      A                      A                      A
 Frequencies --    637.5118               652.3866               681.0932
 Red. masses --      6.0054                 1.7539                 4.9547
 Frc consts  --      1.4380                 0.4398                 1.3542
 IR Inten    --     11.8727                69.9089                41.6620

                     28                     29                     30
                      A                      A                      A
 Frequencies --    721.7707               746.6465               784.1975
 Red. masses --      1.7012                 3.7509                 7.8995
 Frc consts  --      0.5222                 1.2320                 2.8622
 IR Inten    --     62.1597               289.8668                50.5822

                     31                     32                     33
                      A                      A                      A
 Frequencies --    806.0732               873.0225               895.8115
 Red. masses --      2.5594                 1.2548                 5.1094
 Frc consts  --      0.9798                 0.5635                 2.4157
 IR Inten    --     11.8314                 0.4092                 3.4970

                     34                     35                     36
                      A                      A                      A
 Frequencies --    958.8402              1006.3665              1013.5994
 Red. masses --      1.4380                 1.0947                 1.3838
 Frc consts  --      0.7790                 0.6532                 0.8376
 IR Inten    --      1.4873                60.2324                 0.3741

                     37                     38                     39
                      A                      A                      A
 Frequencies --   1027.4944              1033.7006              1041.4214
 Red. masses --      5.3920                 1.3733                 3.0627
 Frc consts  --      3.3540                 0.8645                 1.9571
 IR Inten    --      2.4723                 0.9043                15.0229

                     40                     41                     42
                      A                      A                      A
 Frequencies --   1065.7152              1076.6351              1098.7365
 Red. masses --      2.2404                 3.1558                 2.2138
 Frc consts  --      1.4992                 2.1552                 1.5746
 IR Inten    --     14.4138                73.5504                 8.9573

                     43                     44                     45
                      A                      A                      A
 Frequencies --   1108.1791              1124.7148              1186.5133
 Red. masses --      1.3903                 1.5662                 1.1351
 Frc consts  --      1.0060                 1.1673                 0.9415
 IR Inten    --     41.6109                 6.0064                 0.4442

                     46                     47                     48
                      A                      A                      A
 Frequencies --   1201.9798              1216.8030              1218.3402
 Red. masses --      1.4903                 2.8249                 1.2043
 Frc consts  --      1.2686                 2.4643                 1.0532
 IR Inten    --     52.1395                47.8384                 3.2068

                     49                     50                     51
                      A                      A                      A
 Frequencies --   1323.2533              1349.2275              1364.4500
 Red. masses --      4.5409                 1.2818                 1.4295
 Frc consts  --      4.6846                 1.3748                 1.5680
 IR Inten    --      1.0966                11.3266                 3.4935

                     52                     53                     54
                      A                      A                      A
 Frequencies --   1390.2971              1436.3539              1465.9936
 Red. masses --      4.1534                 3.2126                 1.4317
 Frc consts  --      4.7301                 3.9051                 1.8128
 IR Inten    --    559.4508               701.8786               126.9105

                     55                     56                     57
                      A                      A                      A
 Frequencies --   1490.8817              1493.3036              1506.9381
 Red. masses --      2.2273                 1.0434                 1.0416
 Frc consts  --      2.9169                 1.3709                 1.3936
 IR Inten    --     21.5180                12.2608                14.2908

                     58                     59                     60
                      A                      A                      A
 Frequencies --   1548.5697              1602.1767              1619.5925
 Red. masses --      2.3822                 1.5794                 1.1366
 Frc consts  --      3.3658                 2.3887                 1.7566
 IR Inten    --      4.1480               288.8074               314.4117

                     61                     62                     63
                      A                      A                      A
 Frequencies --   1654.3476              1665.1682              1676.5842
 Red. masses --      5.7231                 3.2494                 5.9297
 Frc consts  --      9.2286                 5.3085                 9.8205
 IR Inten    --      1.2529               397.6530                 0.4300

                     64                     65                     66
                      A                      A                      A
 Frequencies --   3056.4364              3129.7432              3172.6402
 Red. masses --      1.0381                 1.0992                 1.1042
 Frc consts  --      5.7138                 6.3439                 6.5488
 IR Inten    --     32.7056                13.6797                18.5714

                     67                     68                     69
                      A                      A                      A
 Frequencies --   3200.7181              3209.3428              3218.5354
 Red. masses --      1.0863                 1.0898                 1.0938
 Frc consts  --      6.5570                 6.6132                 6.6760
 IR Inten    --      0.0420                 8.1323                19.6434

                     70                     71                     72
                      A                      A                      A
 Frequencies --   3226.5353              3264.6958              3508.2483
 Red. masses --      1.0981                 1.0907                 1.0525
 Frc consts  --      6.7353                 6.8493                 7.6325
 IR Inten    --     14.9591                 5.6296                55.1063

                     73                     74                     75
                      A                      A                      A
 Frequencies --   3608.7015              3634.7203              3763.7043
 Red. masses --      1.0956                 1.0451                 1.1058
 Frc consts  --      8.4063                 8.1349                 9.2293
 IR Inten    --     98.0804               102.7695               102.0731

 - Thermochemistry -
 -------------------
 Temperature   298.150 Kelvin.  Pressure   1.00000 Atm.
 Atom     1 has atomic number  6 and mass  12.00000

 Molecular mass:   289.98215 amu.
 Principal axes and moments of inertia in atomic units:
                           1         2         3
     Eigenvalues --  3280.687234972.307436177.23906
           X            0.99979   0.01926  -0.00701
           Y           -0.01972   0.99720  -0.07219
           Z            0.00560   0.07231   0.99737
 This molecule is an asymmetric top.
 Rotational symmetry number  1.
 Warning -- assumption of classical behavior for rotation
           may cause significant error
 Rotational temperatures (Kelvin)      0.02640     0.01742     0.01402
 Rotational constants (GHZ):           0.55011     0.36296     0.29216
    1 imaginary frequencies ignored.
 Zero-point vibrational energy     549683.9 (Joules/Mol)
                                  131.37761 (Kcal/Mol)
 Warning -- explicit consideration of  23 degrees of freedom as
           vibrations may cause significant error
 Vibrational temperatures:     40.04    87.83    95.05   118.87   148.28
          (Kelvin)            179.92   193.53   252.17   261.12   278.80
                              295.26   306.11   362.27   434.95   446.86
                              474.06   509.49   597.38   598.40   717.26
                              785.39   811.01   841.86   917.24   938.64
                              979.94  1038.47  1074.26  1128.29  1159.76
                             1256.08  1288.87  1379.56  1447.94  1458.34
                             1478.34  1487.26  1498.37  1533.33  1549.04
                             1580.84  1594.42  1618.21  1707.13  1729.38
                             1750.71  1752.92  1903.87  1941.24  1963.14
                             2000.33  2066.59  2109.24  2145.05  2148.53
                             2168.15  2228.05  2305.17  2330.23  2380.24
                             2395.81  2412.23  4397.53  4503.00  4564.72
                             4605.12  4617.53  4630.75  4642.26  4697.17
                             5047.59  5192.12  5229.55  5415.13

 Zero-point correction=                           0.209364 (Hartree/Particle)
 Thermal correction to Energy=                    0.225161
 Thermal correction to Enthalpy=                  0.226105
 Thermal correction to Gibbs Free Energy=         0.164758
 Sum of electronic and zero-point Energies=          -3607.232180
 Sum of electronic and thermal Energies=             -3607.216383
 Sum of electronic and thermal Enthalpies=           -3607.215438
 Sum of electronic and thermal Free Energies=        -3607.276786

                     E (Thermal)             CV                S
                      KCal/Mol        Cal/Mol-Kelvin    Cal/Mol-Kelvin
 Total                  141.290             56.830            129.116
 Electronic               0.000              0.000              0.000
 Translational            0.889              2.981             42.892
 Rotational               0.889              2.981             32.977
 Vibrational            139.513             50.868             53.248
 Vibration     1          0.593              1.984              5.979
 Vibration     2          0.597              1.973              4.423
 Vibration     3          0.597              1.970              4.267
 Vibration     4          0.600              1.961              3.828
 Vibration     5          0.605              1.947              3.396
 Vibration     6          0.610              1.928              3.021
 Vibration     7          0.613              1.919              2.880
 Vibration     8          0.627              1.873              2.378
 Vibration     9          0.630              1.865              2.313
 Vibration    10          0.635              1.849              2.191
 Vibration    11          0.640              1.832              2.086
 Vibration    12          0.644              1.821              2.020
 Vibration    13          0.664              1.760              1.718
 Vibration    14          0.694              1.669              1.404
 Vibration    15          0.699              1.654              1.359
 Vibration    16          0.712              1.617              1.263
 Vibration    17          0.730              1.567              1.148
 Vibration    18          0.779              1.437              0.908
 Vibration    19          0.779              1.436              0.906
 Vibration    20          0.854              1.253              0.662
 Vibration    21          0.901              1.149              0.553
 Vibration    22          0.919              1.110              0.517
 Vibration    23          0.942              1.064              0.476

 Optimization completed.
    -- Stationary point found.
 Normal termination of Gaussian 16 at Sun Feb  7 06:34:43 2021.
