 Gaussian 16, Revision A.03,
 Gaussian 16:  ES64L-G16RevA.03 25-Dec-2016

 ----------------------------------------------------------------------
 # wB97XD def2tzvp, opt=(ts, noeigen, calcfc, maxcycles=70, maxstep=8),
  freq=noraman, scrf=(iefpcm, solvent=water)
 ----------------------------------------------------------------------

 ------------------------
 1_iteration/TS-130-1.out
 ------------------------
 Symbolic Z-matrix:
 Charge =  0 Multiplicity = 1

 SCF Done:  E(RwB97XD) =  -3131.76576720     A.U. after   15 cycles
 SCF Done:  E(RwB97XD) =  -3131.76576974     A.U. after   10 cycles
 SCF Done:  E(RwB97XD) =  -3131.76576976     A.U. after    8 cycles
 Optimization completed.
    -- Stationary point found.
 Normal termination of Gaussian 16 at Sat Feb  6 22:23:28 2021.

 ---------------------------------------------------------------------
 #N Geom=AllCheck Guess=TCheck SCRF=Check GenChk RwB97XD/def2TZVP Freq
 ---------------------------------------------------------------------

 Structure from the checkpoint file:  "/beegfs/scratch/user/q/tla25/Gau-62731.chk"
 ------------------------
 1_iteration/TS-130-1.out
 ------------------------
 Charge =  0 Multiplicity = 1

                         Standard orientation:
 ---------------------------------------------------------------------
 Center     Atomic      Atomic             Coordinates (Angstroms)
 Number     Number       Type             X           Y           Z
 ---------------------------------------------------------------------
      1          6           0        0.964376   -1.002978   -0.722886
      2          6           0        2.370419   -1.221055   -0.820924
      3          8           0        2.813902   -2.116356   -1.555151
      4          6           0        0.210954   -0.052062   -0.032429
      5          6           0        0.259265   -1.654112    2.258988
      6          1           0        0.820051   -2.253164    1.538365
      7          1           0        0.688076   -1.784915    3.250879
      8          1           0       -0.778272   -1.976655    2.267394
      9          7           0        0.335510   -0.259100    1.839760
     10          1           0       -0.396949    0.308976    2.252069
     11          1           0        1.223266    0.153905    2.100453
     12          6           0       -1.286312   -0.126035   -0.196140
     13          6           0       -2.106320    0.994027   -0.292698
     14          6           0       -3.481194    0.861736   -0.425794
     15          6           0       -4.066518   -0.392506   -0.454358
     16          6           0       -3.262333   -1.517895   -0.347795
     17          6           0       -1.890660   -1.387168   -0.219426
     18          1           0       -1.677176    1.984683   -0.273138
     19          1           0       -4.093183    1.750762   -0.507852
     20          1           0       -5.139200   -0.494352   -0.556815
     21          1           0       -3.702644   -2.506576   -0.362463
     22          1           0       -1.287530   -2.279603   -0.131130
     23         35           0        0.901982    1.815198   -0.037868
     24          1           0        0.384828   -1.729381   -1.276229
     25          6           0        3.382822   -0.399648   -0.046677
     26          1           0        3.028508   -0.046727    0.919497
     27          1           0        4.274047   -1.007622    0.099761
     28          1           0        3.660015    0.479468   -0.631698
 ---------------------------------------------------------------------

 SCF Done:  E(RwB97XD) =  -3131.76576976     A.U. after    1 cycles

 The electronic state is 1-A.
 Alpha  occ. eigenvalues -- -483.12839 -62.67694 -56.46799 -56.46462 -56.46449
 Alpha  occ. eigenvalues --  -19.20105 -14.50321 -10.40739 -10.35333 -10.32157
 Alpha  occ. eigenvalues --  -10.31813 -10.29937 -10.29769 -10.29627 -10.29575
 Alpha  occ. eigenvalues --  -10.29530 -10.27305 -10.25429  -8.81798  -6.63909
 Alpha  occ. eigenvalues --   -6.62849  -6.62803  -2.74295  -2.74006  -2.73970
 Alpha  occ. eigenvalues --   -2.73112  -2.73111  -1.10775  -1.05689  -0.98110
 Alpha  occ. eigenvalues --   -0.93037  -0.86708  -0.85832  -0.84549  -0.81332
 Alpha  occ. eigenvalues --   -0.79748  -0.73904  -0.71145  -0.67788  -0.64905
 Alpha  occ. eigenvalues --   -0.61668  -0.60721  -0.58390  -0.56319  -0.55712
 Alpha  occ. eigenvalues --   -0.55488  -0.53905  -0.52235  -0.51723  -0.51033
 Alpha  occ. eigenvalues --   -0.49523  -0.48760  -0.48054  -0.47030  -0.45522
 Alpha  occ. eigenvalues --   -0.44720  -0.43813  -0.42858  -0.42404  -0.37565
 Alpha  occ. eigenvalues --   -0.37249  -0.34436  -0.34376  -0.32068  -0.28080
 Alpha virt. eigenvalues --    0.01384   0.04045   0.04793   0.07592   0.09775
 Alpha virt. eigenvalues --    0.12798   0.13665   0.14142   0.14620   0.16498
 Alpha virt. eigenvalues --    0.16656   0.17168   0.18043   0.18343   0.19373

 Mulliken charges:
               1
     1  C   -0.423106
     2  C    0.235309
     3  O   -0.522072
     4  C    0.304626
     5  C   -0.303633
     6  H    0.158252
     7  H    0.167953
     8  H    0.169086
     9  N   -0.287750
    10  H    0.299351
    11  H    0.283142
    12  C    0.082222
    13  C   -0.232315
    14  C   -0.125353
    15  C   -0.149009
    16  C   -0.136393
    17  C   -0.314732
    18  H    0.151870
    19  H    0.147103
    20  H    0.147712
    21  H    0.147227
    22  H    0.188746
    23  Br  -0.143516
    24  H    0.130758
    25  C   -0.346008
    26  H    0.092991
    27  H    0.129785
    28  H    0.147754
 Sum of Mulliken charges =  -0.00000

 Dipole moment (field-independent basis, Debye):
    X=             -6.1213    Y=              2.5009    Z=              9.3655  Tot=             11.4646
 Quadrupole moment (field-independent basis, Debye-Ang):
   XX=            -98.7870   YY=           -101.7280   ZZ=            -94.2743
   XY=             13.5850   XZ=             13.9534   YZ=            -11.2925

  Exact polarizability: 280.997 -14.199 245.541 -13.705  12.226 182.349
 Approx polarizability: 208.126  -8.102 206.003  -7.821  10.275 155.576

 ******    1 imaginary frequencies (negative Signs) ******

                      1                      2                      3
                      A                      A                      A
 Frequencies --   -372.4416                39.8564                69.6878
 Red. masses --      5.3728                 3.8132                 2.8681
 Frc consts  --      0.4391                 0.0036                 0.0082
 IR Inten    --    667.7520                 0.8660                 2.1670

                      4                      5                      6
                      A                      A                      A
 Frequencies --     77.7850                92.6273               115.7404
 Red. masses --      5.4939                 3.8287                 5.2551
 Frc consts  --      0.0196                 0.0194                 0.0415
 IR Inten    --      9.9670                 2.5068                 5.3742

                      7                      8                      9
                      A                      A                      A
 Frequencies --    142.8166               173.2957               198.8903
 Red. masses --      1.9230                 5.0446                 1.1090
 Frc consts  --      0.0231                 0.0893                 0.0258
 IR Inten    --      8.4475                 1.3591                 0.6811

                     10                     11                     12
                      A                      A                      A
 Frequencies --    204.4973               211.8494               260.6083
 Red. masses --      1.4899                 3.6136                 4.2251
 Frc consts  --      0.0367                 0.0956                 0.1691
 IR Inten    --      2.4904                 7.1291                17.8015

                     13                     14                     15
                      A                      A                      A
 Frequencies --    272.7122               291.8689               306.7620
 Red. masses --      4.9111                 4.4137                 3.1878
 Frc consts  --      0.2152                 0.2215                 0.1767
 IR Inten    --     15.1714                 4.5274                33.6184

                     16                     17                     18
                      A                      A                      A
 Frequencies --    354.1240               424.6329               448.8487
 Red. masses --      6.0430                 2.9123                 4.2918
 Frc consts  --      0.4465                 0.3094                 0.5094
 IR Inten    --      6.6177                 1.2215                47.8595

                     19                     20                     21
                      A                      A                      A
 Frequencies --    522.9940               571.4380               597.9187
 Red. masses --      3.4526                 2.3030                 2.3978
 Frc consts  --      0.5564                 0.4431                 0.5051
 IR Inten    --     43.6756                51.0479                67.5907

                     22                     23                     24
                      A                      A                      A
 Frequencies --    631.9630               636.6453               649.1468
 Red. masses --      3.9383                 3.4780                 3.5649
 Frc consts  --      0.9267                 0.8306                 0.8851
 IR Inten    --     17.5763                10.5147                49.3914

                     25                     26                     27
                      A                      A                      A
 Frequencies --    714.6327               724.1050               758.3689
 Red. masses --      1.8811                 1.6430                 1.7123
 Frc consts  --      0.5660                 0.5076                 0.5802
 IR Inten    --     79.7819                79.7829               153.5508

                     28                     29                     30
                      A                      A                      A
 Frequencies --    804.5935               847.1639               877.1985
 Red. masses --      2.1120                 3.6309                 1.2549
 Frc consts  --      0.8056                 1.5353                 0.5689
 IR Inten    --     19.8858                38.0987                 0.8180

                     31                     32                     33
                      A                      A                      A
 Frequencies --    893.9348               968.3059              1015.1666
 Red. masses --      3.8243                 1.4235                 1.3674
 Frc consts  --      1.8006                 0.7864                 0.8303
 IR Inten    --     59.5662                 5.8505                47.1977

                     34                     35                     36
                      A                      A                      A
 Frequencies --   1019.6440              1024.5658              1028.0506
 Red. masses --      1.3615                 3.1276                 1.5674
 Frc consts  --      0.8340                 1.9344                 0.9760
 IR Inten    --      1.9068                15.5376                28.3718

                     37                     38                     39
                      A                      A                      A
 Frequencies --   1036.3013              1042.5185              1064.6593
 Red. masses --      1.3255                 1.8232                 1.2234
 Frc consts  --      0.8387                 1.1675                 0.8170
 IR Inten    --      0.4416                22.9781               136.5809

                     40                     41                     42
                      A                      A                      A
 Frequencies --   1073.5547              1076.9070              1130.1525
 Red. masses --      2.0684                 4.6065                 1.6379
 Frc consts  --      1.4045                 3.1476                 1.2326
 IR Inten    --      9.1104                28.3057                51.7529

                     43                     44                     45
                      A                      A                      A
 Frequencies --   1189.8708              1203.3541              1232.7269
 Red. masses --      1.1718                 2.5923                 1.3816
 Frc consts  --      0.9775                 2.2116                 1.2370
 IR Inten    --     21.9536               261.2985                19.2183

                     46                     47                     48
                      A                      A                      A
 Frequencies --   1235.3694              1259.8549              1314.3697
 Red. masses --      1.2372                 2.1433                 2.2660
 Frc consts  --      1.1124                 2.0043                 2.3065
 IR Inten    --     35.2551               165.8830               284.5636

                     49                     50                     51
                      A                      A                      A
 Frequencies --   1332.5967              1336.3477              1380.8306
 Red. masses --      4.0551                 1.3313                 1.3533
 Frc consts  --      4.2428                 1.4007                 1.5203
 IR Inten    --    124.3194                 0.2227                11.7187

                     52                     53                     54
                      A                      A                      A
 Frequencies --   1396.6426              1446.6493              1460.7210
 Red. masses --      1.3833                 1.2094                 1.1523
 Frc consts  --      1.5898                 1.4912                 1.4486
 IR Inten    --     99.0039               120.6516               230.1572

                     55                     56                     57
                      A                      A                      A
 Frequencies --   1473.0844              1484.8246              1495.3433
 Red. masses --      1.4310                 1.5187                 2.1585
 Frc consts  --      1.8295                 1.9727                 2.8437
 IR Inten    --    264.4069               204.9559               261.4374

                     58                     59                     60
                      A                      A                      A
 Frequencies --   1497.5139              1500.7607              1549.2711
 Red. masses --      1.0506                 1.1045                 2.1789
 Frc consts  --      1.3881                 1.4656                 3.0813
 IR Inten    --     18.2387                55.1591                 7.7729

                     61                     62                     63
                      A                      A                      A
 Frequencies --   1626.0713              1642.0899              1652.3682
 Red. masses --      7.4916                 1.1077                 5.3778
 Frc consts  --     11.6709                 1.7598                 8.6510
 IR Inten    --   1042.1241                42.3080                 9.2292

                     64                     65                     66
                      A                      A                      A
 Frequencies --   1674.9509              3062.7720              3071.0175
 Red. masses --      5.6683                 1.0374                 1.0381
 Frc consts  --      9.3693                 5.7333                 5.7684
 IR Inten    --      0.9352                30.3744                 8.4986

                     67                     68                     69
                      A                      A                      A
 Frequencies --   3144.5135              3144.7991              3168.0282
 Red. masses --      1.1000                 1.0985                 1.1023
 Frc consts  --      6.4086                 6.4010                 6.5182
 IR Inten    --      9.5473                12.2079                47.0115

                     70                     71                     72
                      A                      A                      A
 Frequencies --   3181.4718              3200.8791              3208.1928
 Red. masses --      1.1055                 1.0865                 1.0871
 Frc consts  --      6.5929                 6.5587                 6.5923
 IR Inten    --      9.1789                 0.0841                 8.6390

                     73                     74                     75
                      A                      A                      A
 Frequencies --   3210.7715              3222.0988              3234.5257
 Red. masses --      1.0898                 1.0956                 1.0936
 Frc consts  --      6.6195                 6.7014                 6.7412
 IR Inten    --      8.9233                24.2767                 8.1914

                     76                     77                     78
                      A                      A                      A
 Frequencies --   3248.1140              3522.8443              3603.8713
 Red. masses --      1.0915                 1.0514                 1.0962
 Frc consts  --      6.7847                 7.6875                 8.3882
 IR Inten    --      2.0940                50.5917                61.7884

 - Thermochemistry -
 -------------------
 Temperature   298.150 Kelvin.  Pressure   1.00000 Atm.
 Atom     1 has atomic number  6 and mass  12.00000

 Molecular mass:   255.02588 amu.
 Principal axes and moments of inertia in atomic units:
                           1         2         3
     Eigenvalues --  2516.152254658.106015741.39673
           X            0.99966  -0.02284   0.01224
           Y            0.02328   0.99904  -0.03714
           Z           -0.01138   0.03741   0.99924
 This molecule is an asymmetric top.
 Rotational symmetry number  1.
 Warning -- assumption of classical behavior for rotation
           may cause significant error
 Rotational temperatures (Kelvin)      0.03442     0.01859     0.01509
 Rotational constants (GHZ):           0.71726     0.38744     0.31434
    1 imaginary frequencies ignored.
 Zero-point vibrational energy     604150.3 (Joules/Mol)
                                  144.39539 (Kcal/Mol)
 Warning -- explicit consideration of  20 degrees of freedom as
           vibrations may cause significant error
 Vibrational temperatures:     57.34   100.27   111.92   133.27   166.52
          (Kelvin)            205.48   249.33   286.16   294.23   304.80
                              374.96   392.37   419.93   441.36   509.51
                              610.95   645.79   752.47   822.17   860.27
                              909.25   915.99   933.98  1028.20  1041.83
                             1091.12  1157.63  1218.88  1262.09  1286.17
                             1393.18  1460.60  1467.04  1474.12  1479.14
                             1491.01  1499.95  1531.81  1544.61  1549.43
                             1626.04  1711.96  1731.36  1773.62  1777.42
                             1812.65  1891.08  1917.31  1922.71  1986.71
                             2009.46  2081.41  2101.65  2119.44  2136.33
                             2151.47  2154.59  2159.26  2229.06  2339.55
                             2362.60  2377.39  2409.88  4406.65  4418.51
                             4524.25  4524.66  4558.09  4577.43  4605.35
                             4615.87  4619.58  4635.88  4653.76  4673.31
                             5068.59  5185.17

 Zero-point correction=                           0.230109 (Hartree/Particle)
 Thermal correction to Energy=                    0.244462
 Thermal correction to Enthalpy=                  0.245406
 Thermal correction to Gibbs Free Energy=         0.187885
 Sum of electronic and zero-point Energies=          -3131.535661
 Sum of electronic and thermal Energies=             -3131.521308
 Sum of electronic and thermal Enthalpies=           -3131.520364
 Sum of electronic and thermal Free Energies=        -3131.577885

                     E (Thermal)             CV                S
                      KCal/Mol        Cal/Mol-Kelvin    Cal/Mol-Kelvin
 Total                  153.402             53.011            121.063
 Electronic               0.000              0.000              0.000
 Translational            0.889              2.981             42.509
 Rotational               0.889              2.981             32.576
 Vibrational            151.625             47.049             45.979
 Vibration     1          0.594              1.981              5.266
 Vibration     2          0.598              1.969              4.162
 Vibration     3          0.599              1.964              3.946
 Vibration     4          0.602              1.954              3.604
 Vibration     5          0.608              1.936              3.170
 Vibration     6          0.616              1.910              2.766
 Vibration     7          0.627              1.875              2.399
 Vibration     8          0.637              1.841              2.143
 Vibration     9          0.640              1.833              2.092
 Vibration    10          0.643              1.823              2.028
 Vibration    11          0.669              1.745              1.658
 Vibration    12          0.676              1.724              1.579
 Vibration    13          0.687              1.689              1.463
 Vibration    14          0.697              1.661              1.380
 Vibration    15          0.730              1.567              1.148
 Vibration    16          0.787              1.417              0.876
 Vibration    17          0.808              1.363              0.799
 Vibration    18          0.878              1.199              0.603
 Vibration    19          0.928              1.093              0.501
 Vibration    20          0.956              1.036              0.453

 Optimization completed.
    -- Stationary point found.
 Normal termination of Gaussian 16 at Sat Feb  6 23:15:12 2021.
