 Gaussian 16, Revision A.03,
 Gaussian 16:  ES64L-G16RevA.03 25-Dec-2016

 ----------------------------------------------------------------------
 # wB97XD def2tzvp, opt=(ts, noeigen, calcfc, maxcycles=70, maxstep=8),
  freq=noraman, scrf=(iefpcm, solvent=water)
 ----------------------------------------------------------------------

 ------------------------
 1_iteration/TS-135-1.out
 ------------------------
 Symbolic Z-matrix:
 Charge =  0 Multiplicity = 1

 SCF Done:  E(RwB97XD) =  -3378.87892182     A.U. after   15 cycles
 SCF Done:  E(RwB97XD) =  -3378.87918849     A.U. after   12 cycles
 SCF Done:  E(RwB97XD) =  -3378.87919697     A.U. after   11 cycles
 SCF Done:  E(RwB97XD) =  -3378.87920241     A.U. after    9 cycles
 SCF Done:  E(RwB97XD) =  -3378.87920276     A.U. after    8 cycles
 SCF Done:  E(RwB97XD) =  -3378.87920276     A.U. after    6 cycles
 Optimization completed.
    -- Stationary point found.
 Normal termination of Gaussian 16 at Sun Feb  7 02:33:48 2021.

 ---------------------------------------------------------------------
 #N Geom=AllCheck Guess=TCheck SCRF=Check GenChk RwB97XD/def2TZVP Freq
 ---------------------------------------------------------------------

 Structure from the checkpoint file:  "/beegfs/scratch/user/q/tla25/Gau-95604.chk"
 ------------------------
 1_iteration/TS-135-1.out
 ------------------------
 Charge =  0 Multiplicity = 1

                         Standard orientation:
 ---------------------------------------------------------------------
 Center     Atomic      Atomic             Coordinates (Angstroms)
 Number     Number       Type             X           Y           Z
 ---------------------------------------------------------------------
      1          6           0       -0.432644   -0.892761   -0.838467
      2          6           0        0.997626   -1.082690   -0.882281
      3          8           0        1.493292   -2.051305   -1.462675
      4          6           0       -1.220108   -0.009165   -0.124902
      5          6           0       -0.945959   -1.546044    2.201161
      6          1           0       -0.434775   -1.666501    3.154965
      7          1           0       -1.981864   -1.858021    2.303028
      8          1           0       -0.453808   -2.164554    1.447830
      9          7           0       -0.894112   -0.160566    1.751519
     10          1           0       -1.563002    0.430820    2.232221
     11          1           0        0.029334    0.232261    1.894154
     12          6           0       -2.709789   -0.201459   -0.168458
     13          6           0       -3.624981    0.847553   -0.163502
     14          6           0       -4.990234    0.603001   -0.187395
     15          6           0       -5.471129   -0.695251   -0.206618
     16          6           0       -4.571472   -1.750864   -0.198715
     17          6           0       -3.209238   -1.508188   -0.176555
     18          1           0       -3.281506    1.870940   -0.148120
     19          1           0       -5.677706    1.438990   -0.191419
     20          1           0       -6.536655   -0.884620   -0.223650
     21          1           0       -4.928778   -2.772561   -0.204993
     22          1           0       -2.529345   -2.347772   -0.156050
     23         35           0       -0.694597    1.949722   -0.174408
     24          1           0       -0.962397   -1.671753   -1.365840
     25          7           0        1.792836   -0.165314   -0.218134
     26          6           0        3.188613   -0.161642   -0.107862
     27          6           0        3.962504   -1.321837   -0.131108
     28          6           0        5.337506   -1.236726    0.031132
     29          6           0        5.962914   -0.014086    0.226070
     30          6           0        5.191117    1.139127    0.259972
     31          6           0        3.819118    1.068365    0.092217
     32          1           0        1.360150    0.725718   -0.030756
     33          1           0        3.486379   -2.277753   -0.278825
     34          1           0        5.925182   -2.146351    0.009327
     35          1           0        7.036361    0.040010    0.352491
     36          1           0        5.658267    2.103891    0.413537
     37          1           0        3.224587    1.974596    0.115959
 ---------------------------------------------------------------------

 SCF Done:  E(RwB97XD) =  -3378.87920276     A.U. after    1 cycles

 The electronic state is 1-A.
 Alpha  occ. eigenvalues -- -483.13062 -62.67909 -56.47001 -56.46685 -56.46673
 Alpha  occ. eigenvalues --  -19.20404 -14.49953 -14.46022 -10.40766 -10.38572
 Alpha  occ. eigenvalues --  -10.33609 -10.32068 -10.31928 -10.30007 -10.29872
 Alpha  occ. eigenvalues --  -10.29684 -10.29615 -10.29581 -10.29032 -10.28904
 Alpha  occ. eigenvalues --  -10.28831 -10.28336 -10.28308 -10.26055  -8.82003
 Alpha  occ. eigenvalues --   -6.64064  -6.63072  -6.63038  -2.74453  -2.74186
 Alpha  occ. eigenvalues --   -2.74158  -2.73358  -2.73356  -1.13310  -1.05379
 Alpha  occ. eigenvalues --   -1.03683  -0.98175  -0.95519  -0.92839  -0.86853
 Alpha  occ. eigenvalues --   -0.86046  -0.85398  -0.85109  -0.82791  -0.79574
 Alpha  occ. eigenvalues --   -0.75311  -0.72128  -0.71260  -0.70561  -0.67719
 Alpha  occ. eigenvalues --   -0.65456  -0.64401  -0.62647  -0.61765  -0.58923
 Alpha  occ. eigenvalues --   -0.58193  -0.57460  -0.56025  -0.55481  -0.54111
 Alpha  occ. eigenvalues --   -0.53452  -0.52525  -0.52076  -0.51598  -0.51123
 Alpha  occ. eigenvalues --   -0.50603  -0.49548  -0.48625  -0.48013  -0.46628
 Alpha  occ. eigenvalues --   -0.46051  -0.45227  -0.44594  -0.43890  -0.42946
 Alpha  occ. eigenvalues --   -0.42831  -0.39317  -0.37849  -0.37731  -0.34821
 Alpha  occ. eigenvalues --   -0.34454  -0.34170  -0.33337  -0.30519  -0.27805
 Alpha virt. eigenvalues --    0.01119   0.03224   0.04627   0.05399   0.05762
 Alpha virt. eigenvalues --    0.09069   0.10057   0.12856   0.12907   0.13788
 Alpha virt. eigenvalues --    0.14281   0.15790   0.16111   0.16669   0.17067

 Mulliken charges:
               1
     1  C   -0.409815
     2  C    0.349020
     3  O   -0.527160
     4  C    0.226202
     5  C   -0.305611
     6  H    0.167598
     7  H    0.167927
     8  H    0.159144
     9  N   -0.287630
    10  H    0.297161
    11  H    0.283889
    12  C    0.124193
    13  C   -0.236097
    14  C   -0.125494
    15  C   -0.148447
    16  C   -0.130356
    17  C   -0.323979
    18  H    0.152447
    19  H    0.147249
    20  H    0.148120
    21  H    0.147541
    22  H    0.182853
    23  Br  -0.173210
    24  H    0.145767
    25  N   -0.266131
    26  C    0.278925
    27  C   -0.295824
    28  C   -0.096254
    29  C   -0.192312
    30  C   -0.107265
    31  C   -0.287823
    32  H    0.218044
    33  H    0.147426
    34  H    0.141628
    35  H    0.140695
    36  H    0.142845
    37  H    0.144734
 Sum of Mulliken charges =  -0.00000

 Dipole moment (field-independent basis, Debye):
    X=             -6.2464    Y=              2.5788    Z=              8.7134  Tot=             11.0269
 Quadrupole moment (field-independent basis, Debye-Ang):
   XX=           -114.9578   YY=           -129.0602   ZZ=           -132.2760
   XY=             10.8444   XZ=              1.3384   YZ=             -7.4966

  Exact polarizability: 432.535  -5.350 341.879  -2.871  14.662 222.980
 Approx polarizability: 307.728  -5.022 291.109  -0.156  14.853 194.422

 ******    1 imaginary frequencies (negative Signs) ******

                      1                      2                      3
                      A                      A                      A
 Frequencies --   -405.3994                23.7378                26.1589
 Red. masses --      5.0754                 5.5966                 4.1772
 Frc consts  --      0.4915                 0.0019                 0.0017
 IR Inten    --    547.8316                 1.2790                 0.5781

                      4                      5                      6
                      A                      A                      A
 Frequencies --     38.2283                57.7836                78.3673
 Red. masses --      3.9745                 5.0327                 4.8656
 Frc consts  --      0.0034                 0.0099                 0.0176
 IR Inten    --      0.5736                 0.2988                 2.7306

                      7                      8                      9
                      A                      A                      A
 Frequencies --     85.8469               100.3459               120.2532
 Red. masses --      4.6229                 4.4690                 4.5318
 Frc consts  --      0.0201                 0.0265                 0.0386
 IR Inten    --      5.8110                 3.1077                14.6606

                     10                     11                     12
                      A                      A                      A
 Frequencies --    137.0862               167.9637               182.3104
 Red. masses --      2.6572                 6.4666                 2.7539
 Frc consts  --      0.0294                 0.1075                 0.0539
 IR Inten    --      5.6508                 7.4358                 6.1321

                     13                     14                     15
                      A                      A                      A
 Frequencies --    215.3374               223.2599               252.3231
 Red. masses --      1.8731                 3.7118                 6.0690
 Frc consts  --      0.0512                 0.1090                 0.2277
 IR Inten    --      5.6006                15.7527                39.8402

                     16                     17                     18
                      A                      A                      A
 Frequencies --    256.8794               298.1546               302.3890
 Red. masses --      4.8534                 4.8486                 2.9801
 Frc consts  --      0.1887                 0.2540                 0.1605
 IR Inten    --      1.2476                12.6281                16.1025

                     19                     20                     21
                      A                      A                      A
 Frequencies --    347.6333               368.0190               423.7084
 Red. masses --      7.0131                 5.5902                 2.9694
 Frc consts  --      0.4993                 0.4461                 0.3141
 IR Inten    --     17.4426                 2.8135                 0.5812

                     22                     23                     24
                      A                      A                      A
 Frequencies --    425.8793               456.7341               501.8517
 Red. masses --      2.9278                 5.1319                 4.8988
 Frc consts  --      0.3129                 0.6307                 0.7269
 IR Inten    --      1.5679                21.3108                41.3402

                     25                     26                     27
                      A                      A                      A
 Frequencies --    527.2046               568.6442               595.8960
 Red. masses --      2.8323                 2.5549                 1.6487
 Frc consts  --      0.4638                 0.4868                 0.3449
 IR Inten    --     21.9344                30.4838                97.1599

                     28                     29                     30
                      A                      A                      A
 Frequencies --    608.6722               623.7682               637.4973
 Red. masses --      2.5170                 2.6510                 5.5495
 Frc consts  --      0.5494                 0.6077                 1.3288
 IR Inten    --    102.9748                76.5509                 8.8261

                     31                     32                     33
                      A                      A                      A
 Frequencies --    640.9706               700.9213               710.1645
 Red. masses --      3.7718                 2.0825                 2.1403
 Frc consts  --      0.9130                 0.6028                 0.6360
 IR Inten    --     39.5568                78.5837               107.9899

                     34                     35                     36
                      A                      A                      A
 Frequencies --    718.7776               724.6128               729.9764
 Red. masses --      1.9726                 1.6378                 3.7227
 Frc consts  --      0.6004                 0.5067                 1.1688
 IR Inten    --     53.8977                60.6243                67.9032

                     37                     38                     39
                      A                      A                      A
 Frequencies --    783.7359               797.1959               806.8676
 Red. masses --      1.8962                 4.0651                 2.1887
 Frc consts  --      0.6862                 1.5221                 0.8396
 IR Inten    --     59.4016               132.0555                22.6715

                     40                     41                     42
                      A                      A                      A
 Frequencies --    861.8030               871.4557               878.4447
 Red. masses --      1.2670                 4.2698                 1.2580
 Frc consts  --      0.5544                 1.9105                 0.5720
 IR Inten    --      2.8581                40.5572                 0.7553

                     43                     44                     45
                      A                      A                      A
 Frequencies --    912.5556               936.3609               969.9171
 Red. masses --      4.3077                 1.5680                 1.4810
 Frc consts  --      2.1135                 0.8100                 0.8208
 IR Inten    --     18.7971                12.2490                 3.4841

                     46                     47                     48
                      A                      A                      A
 Frequencies --    994.7936              1002.9874              1016.5458
 Red. masses --      4.0272                 1.3604                 1.1336
 Frc consts  --      2.3481                 0.8063                 0.6902
 IR Inten    --     28.6547                 0.6840                22.2884

                     49                     50                     51
                      A                      A                      A
 Frequencies --   1017.9568              1021.9850              1022.8059
 Red. masses --      1.2905                 3.2927                 1.7624
 Frc consts  --      0.7879                 2.0262                 1.0863
 IR Inten    --      1.9259                 3.8604                 2.0556

                     52                     53                     54
                      A                      A                      A
 Frequencies --   1024.9522              1039.2485              1063.6248
 Red. masses --      4.6931                 1.3197                 1.7004
 Frc consts  --      2.9048                 0.8398                 1.1334
 IR Inten    --      7.4275                 1.4208                43.8312

                     55                     56                     57
                      A                      A                      A
 Frequencies --   1065.4312              1071.3177              1079.7305
 Red. masses --      1.3830                 2.0821                 4.3267
 Frc consts  --      0.9250                 1.4080                 2.9719
 IR Inten    --     81.9743                16.9677                24.7588

                     58                     59                     60
                      A                      A                      A
 Frequencies --   1120.9589              1127.9741              1182.1437
 Red. masses --      1.5286                 1.5862                 1.1228
 Frc consts  --      1.1317                 1.1891                 0.9245
 IR Inten    --      7.0529                36.0427                 4.2948

                     61                     62                     63
                      A                      A                      A
 Frequencies --   1189.8258              1202.4164              1209.5929
 Red. masses --      1.1502                 2.6572                 1.1263
 Frc consts  --      0.9594                 2.2635                 0.9709
 IR Inten    --     12.7180               233.0018                17.8497

                     64                     65                     66
                      A                      A                      A
 Frequencies --   1227.2319              1228.0791              1261.2112
 Red. masses --      1.2349                 1.3786                 2.5103
 Frc consts  --      1.0958                 1.2250                 2.3526
 IR Inten    --     16.6444                53.6409               158.2319

                     67                     68                     69
                      A                      A                      A
 Frequencies --   1276.8210              1297.6874              1324.3696
 Red. masses --      2.2626                 2.2182                 4.4166
 Frc consts  --      2.1733                 2.2009                 4.5641
 IR Inten    --    576.3940               206.9967                 4.7516

                     70                     71                     72
                      A                      A                      A
 Frequencies --   1341.1908              1345.1099              1363.4042
 Red. masses --      1.4989                 3.0541                 1.5237
 Frc consts  --      1.5886                 3.2558                 1.6688
 IR Inten    --     80.1449               413.2335                21.9548

                     73                     74                     75
                      A                      A                      A
 Frequencies --   1371.3817              1452.3248              1479.5153
 Red. masses --      1.4131                 1.2053                 2.1256
 Frc consts  --      1.5658                 1.4979                 2.7414
 IR Inten    --     11.7946                80.6651               246.1897

                     76                     77                     78
                      A                      A                      A
 Frequencies --   1482.8533              1498.6682              1499.2548
 Red. masses --      2.4733                 1.7720                 1.1322
 Frc consts  --      3.2042                 2.3449                 1.4995
 IR Inten    --    300.1393               322.4321               109.9879

                     79                     80                     81
                      A                      A                      A
 Frequencies --   1504.1972              1545.7764              1548.6605
 Red. masses --      1.2135                 2.2835                 2.4408
 Frc consts  --      1.6177                 3.2148                 3.4489
 IR Inten    --     85.8071                63.2321                93.9302

                     82                     83                     84
                      A                      A                      A
 Frequencies --   1569.4045              1633.9686              1650.1753
 Red. masses --      2.0252                 1.0981                 5.5360
 Frc consts  --      2.9390                 1.7274                 8.8819
 IR Inten    --    469.6845                93.0358                19.6096

                     85                     86                     87
                      A                      A                      A
 Frequencies --   1659.7205              1670.1433              1674.0056
 Red. masses --      7.0222                 3.8856                 5.7450
 Frc consts  --     11.3971                 6.3858                 9.4854
 IR Inten    --    332.5225               263.7510                 2.6917

                     88                     89                     90
                      A                      A                      A
 Frequencies --   1681.4336              3064.6712              3143.4246
 Red. masses --      5.9420                 1.0363                 1.1015
 Frc consts  --      9.8979                 5.7347                 6.4130
 IR Inten    --    727.5844                31.5831                 5.2531

                     91                     92                     93
                      A                      A                      A
 Frequencies --   3180.4389              3186.8342              3196.8378
 Red. masses --      1.1050                 1.0882                 1.0881
 Frc consts  --      6.5857                 6.5113                 6.5519
 IR Inten    --     10.9981                13.3829                 2.1351

                     94                     95                     96
                      A                      A                      A
 Frequencies --   3201.4179              3206.4464              3210.1025
 Red. masses --      1.0866                 1.0931                 1.0907
 Frc consts  --      6.5613                 6.6214                 6.6222
 IR Inten    --      0.2203                30.0597                13.3831

                     97                     98                     99
                      A                      A                      A
 Frequencies --   3221.0286              3222.5165              3229.6351
 Red. masses --      1.0979                 1.0953                 1.0907
 Frc consts  --      6.7114                 6.7014                 6.7027
 IR Inten    --     24.6166                24.9560                 2.8427

                    100                    101                    102
                      A                      A                      A
 Frequencies --   3238.4579              3244.3968              3262.2736
 Red. masses --      1.0901                 1.0922                 1.0927
 Frc consts  --      6.7359                 6.7738                 6.8517
 IR Inten    --      5.1558                 2.1301                 1.2861

                    103                    104                    105
                      A                      A                      A
 Frequencies --   3523.8834              3596.8892              3607.8211
 Red. masses --      1.0508                 1.0763                 1.0966
 Frc consts  --      7.6882                 8.2043                 8.4098
 IR Inten    --     45.3248               201.8046                64.6479

 - Thermochemistry -
 -------------------
 Temperature   298.150 Kelvin.  Pressure   1.00000 Atm.
 Atom     1 has atomic number  6 and mass  12.00000

 Molecular mass:   332.05242 amu.
 Principal axes and moments of inertia in atomic units:
                           1         2         3
     Eigenvalues --  2898.66441********************
           X            0.99995   0.01042  -0.00041
           Y           -0.01042   0.99989  -0.01028
           Z            0.00030   0.01029   0.99995
 This molecule is an asymmetric top.
 Rotational symmetry number  1.
 Warning -- assumption of classical behavior for rotation
           may cause significant error
 Rotational temperatures (Kelvin)      0.02988     0.00696     0.00619
 Rotational constants (GHZ):           0.62261     0.14503     0.12897
    1 imaginary frequencies ignored.
 Zero-point vibrational energy     791172.1 (Joules/Mol)
                                  189.09467 (Kcal/Mol)
 Warning -- explicit consideration of  27 degrees of freedom as
           vibrations may cause significant error
 Vibrational temperatures:     34.15    37.64    55.00    83.14   112.75
          (Kelvin)            123.51   144.38   173.02   197.24   241.66
                              262.30   309.82   321.22   363.04   369.59
                              428.98   435.07   500.17   529.50   609.62
                              612.75   657.14   722.05   758.53   818.15
                              857.36   875.74   897.46   917.22   922.21
                             1008.47  1021.77  1034.16  1042.56  1050.27
                             1127.62  1146.99  1160.90  1239.94  1253.83
                             1263.89  1312.96  1347.21  1395.49  1431.29
                             1443.08  1462.58  1464.61  1470.41  1471.59
                             1474.68  1495.25  1530.32  1532.92  1541.39
                             1553.49  1612.81  1622.90  1700.84  1711.89
                             1730.01  1740.33  1765.71  1766.93  1814.60
                             1837.06  1867.08  1905.47  1929.67  1935.31
                             1961.63  1973.11  2089.57  2128.69  2133.50
                             2156.25  2157.09  2164.20  2224.03  2228.18
                             2258.02  2350.92  2374.23  2387.97  2402.96
                             2408.52  2419.21  4409.38  4522.69  4575.94
                             4585.14  4599.54  4606.13  4613.36  4618.62
                             4634.34  4636.48  4646.72  4659.42  4667.96
                             4693.68  5070.08  5175.12  5190.85

 Zero-point correction=                           0.301342 (Hartree/Particle)
 Thermal correction to Energy=                    0.319977
 Thermal correction to Enthalpy=                  0.320921
 Thermal correction to Gibbs Free Energy=         0.251867
 Sum of electronic and zero-point Energies=          -3378.577861
 Sum of electronic and thermal Energies=             -3378.559226
 Sum of electronic and thermal Enthalpies=           -3378.558282
 Sum of electronic and thermal Free Energies=        -3378.627336

                     E (Thermal)             CV                S
                      KCal/Mol        Cal/Mol-Kelvin    Cal/Mol-Kelvin
 Total                  200.788             70.369            145.336
 Electronic               0.000              0.000              0.000
 Translational            0.889              2.981             43.295
 Rotational               0.889              2.981             34.578
 Vibrational            199.011             64.407             67.463
 Vibration     1          0.593              1.985              6.294
 Vibration     2          0.593              1.985              6.101
 Vibration     3          0.594              1.982              5.349
 Vibration     4          0.596              1.974              4.531
 Vibration     5          0.600              1.964              3.931
 Vibration     6          0.601              1.959              3.753
 Vibration     7          0.604              1.949              3.448
 Vibration     8          0.609              1.932              3.096
 Vibration     9          0.614              1.916              2.844
 Vibration    10          0.625              1.882              2.458
 Vibration    11          0.630              1.864              2.305
 Vibration    12          0.645              1.818              1.998
 Vibration    13          0.649              1.806              1.932
 Vibration    14          0.664              1.759              1.714
 Vibration    15          0.666              1.751              1.683
 Vibration    16          0.691              1.677              1.427
 Vibration    17          0.694              1.669              1.404
 Vibration    18          0.725              1.580              1.177
 Vibration    19          0.741              1.538              1.088
 Vibration    20          0.786              1.419              0.879
 Vibration    21          0.788              1.414              0.872
 Vibration    22          0.815              1.346              0.776
 Vibration    23          0.857              1.246              0.654
 Vibration    24          0.882              1.190              0.593
 Vibration    25          0.925              1.099              0.507
 Vibration    26          0.954              1.041              0.457
 Vibration    27          0.968              1.013              0.435

 Optimization completed.
    -- Stationary point found.
 Normal termination of Gaussian 16 at Sun Feb  7 04:37:18 2021.
