 Gaussian 16, Revision A.03,
 Gaussian 16:  ES64L-G16RevA.03 25-Dec-2016

 ----------------------------------------------------------------------
 # wB97XD def2tzvp, opt=(ts, noeigen, calcfc, maxcycles=70, maxstep=3),
  freq=noraman, scrf=(iefpcm, solvent=water)
 ----------------------------------------------------------------------

 ------------------------
 3_iteration/TS-151-3.out
 ------------------------
 Symbolic Z-matrix:
 Charge =  0 Multiplicity = 1

 SCF Done:  E(RwB97XD) =  -5952.49109064     A.U. after   15 cycles
 Optimization completed.
    -- Stationary point found.
 Normal termination of Gaussian 16 at Sun Feb  7 18:24:52 2021.

 ---------------------------------------------------------------------
 #N Geom=AllCheck Guess=TCheck SCRF=Check GenChk RwB97XD/def2TZVP Freq
 ---------------------------------------------------------------------

 Structure from the checkpoint file:  "/beegfs/scratch/user/q/tla25/Gau-22042.chk"
 ------------------------
 3_iteration/TS-151-3.out
 ------------------------
 Charge =  0 Multiplicity = 1

                         Standard orientation:
 ---------------------------------------------------------------------
 Center     Atomic      Atomic             Coordinates (Angstroms)
 Number     Number       Type             X           Y           Z
 ---------------------------------------------------------------------
      1          6           0       -0.135720   -0.238028    0.004411
      2          6           0        1.210600    0.319522    0.087371
      3          8           0        1.390290    1.477882    0.467921
      4          6           0       -1.270010    0.546182    0.076901
      5          6           0       -0.865370    0.594972    2.946161
      6          1           0       -0.386750    1.147902    3.754781
      7          1           0       -1.754590    0.100342    3.329141
      8          1           0       -0.169510   -0.163768    2.584461
      9          7           0       -1.203020    1.470202    1.832041
     10          1           0       -1.999250    2.069921    2.012481
     11          1           0       -0.400190    2.044072    1.589861
     12          6           0       -2.635680   -0.055699   -0.053729
     13          6           0       -2.976870   -0.596289   -1.295439
     14          6           0       -4.214500   -1.176209   -1.497609
     15          6           0       -5.140100   -1.224619   -0.462429
     16          6           0       -4.812490   -0.684369    0.768201
     17          6           0       -3.568350   -0.100059    0.972021
     18          1           0       -2.259790   -0.561009   -2.105739
     19          1           0       -4.458239   -1.591749   -2.466879
     20          1           0       -6.110269   -1.678219   -0.618839
     21          1           0       -5.524440   -0.711659    1.582931
     22          1           0       -3.349550    0.311221    1.944511
     23         35           0       -1.258500    2.244502   -0.953999
     24         35           0       -0.330719   -2.141658    0.146991
     25          7           0        2.241380   -0.502058   -0.271929
     26          6           0        3.622220   -0.280917   -0.201869
     27          6           0        4.205660    0.923163    0.191991
     28          6           0        5.589110    1.035673    0.227301
     29          6           0        6.407290   -0.025077   -0.126299
     30          6           0        5.824140   -1.221797   -0.522169
     31          6           0        4.448250   -1.350577   -0.559009
     32          1           0        1.976261   -1.418698   -0.593049
     33          1           0        3.580350    1.757093    0.463601
     34          1           0        6.027880    1.976503    0.536181
     35          1           0        7.484170    0.077043   -0.096309
     36          1           0        6.443541   -2.064047   -0.803699
     37          1           0        4.003111   -2.289757   -0.867139
 ---------------------------------------------------------------------

 SCF Done:  E(RwB97XD) =  -5952.49109064     A.U. after    1 cycles

 The electronic state is 1-A.
 Alpha  occ. eigenvalues -- -483.13378-483.12911 -62.68187 -62.67734 -56.47307
 Alpha  occ. eigenvalues --  -56.46956 -56.46941 -56.46860 -56.46499 -56.46482
 Alpha  occ. eigenvalues --  -19.22216 -14.48105 -14.47242 -10.40777 -10.40237
 Alpha  occ. eigenvalues --  -10.34152 -10.32202 -10.31936 -10.31709 -10.30124
 Alpha  occ. eigenvalues --  -10.29883 -10.29635 -10.29595 -10.29538 -10.29221
 Alpha  occ. eigenvalues --  -10.29103 -10.29067 -10.28493 -10.28474  -8.82280
 Alpha  occ. eigenvalues --   -8.81819  -6.64430  -6.63982  -6.63310  -6.63263
 Alpha  occ. eigenvalues --   -6.62845  -6.62788  -2.74817  -2.74500  -2.74461
 Alpha  occ. eigenvalues --   -2.74357  -2.74051  -2.74005  -2.73557  -2.73556
 Alpha  occ. eigenvalues --   -2.73085  -2.73085  -1.15182  -1.05040  -1.03778
 Alpha  occ. eigenvalues --   -0.98546  -0.96031  -0.94438  -0.89918  -0.86236
 Alpha  occ. eigenvalues --   -0.85918  -0.85398  -0.85136  -0.81505  -0.78802
 Alpha  occ. eigenvalues --   -0.75968  -0.72604  -0.71425  -0.71247  -0.67752
 Alpha  occ. eigenvalues --   -0.65748  -0.63655  -0.62955  -0.60596  -0.58399
 Alpha  occ. eigenvalues --   -0.58085  -0.57287  -0.55835  -0.55656  -0.54358
 Alpha  occ. eigenvalues --   -0.53929  -0.52867  -0.52442  -0.51947  -0.51478
 Alpha  occ. eigenvalues --   -0.51397  -0.50573  -0.48707  -0.47685  -0.47246
 Alpha  occ. eigenvalues --   -0.46133  -0.45129  -0.44915  -0.43837  -0.43100
 Alpha  occ. eigenvalues --   -0.42803  -0.40558  -0.40409  -0.39192  -0.37839
 Alpha  occ. eigenvalues --   -0.37005  -0.34878  -0.34460  -0.33942  -0.33006
 Alpha  occ. eigenvalues --   -0.30833  -0.27852
 Alpha virt. eigenvalues --    0.00778   0.02402   0.04622   0.05201   0.05402
 Alpha virt. eigenvalues --    0.07530   0.09542   0.10708   0.12520   0.13672
 Alpha virt. eigenvalues --    0.13913   0.14698   0.15137   0.15938   0.16842

 Mulliken charges:
               1
     1  C   -0.402486
     2  C    0.504262
     3  O   -0.539818
     4  C    0.285731
     5  C   -0.278094
     6  H    0.157331
     7  H    0.148995
     8  H    0.151015
     9  N   -0.369680
    10  H    0.289960
    11  H    0.282900
    12  C    0.172044
    13  C   -0.306236
    14  C   -0.117258
    15  C   -0.143175
    16  C   -0.169070
    17  C   -0.168821
    18  H    0.161702
    19  H    0.147496
    20  H    0.147759
    21  H    0.145943
    22  H    0.134557
    23  Br  -0.122519
    24  Br  -0.122995
    25  N   -0.271735
    26  C    0.303292
    27  C   -0.289824
    28  C   -0.112310
    29  C   -0.192018
    30  C   -0.097802
    31  C   -0.310082
    32  H    0.245303
    33  H    0.163520
    34  H    0.142646
    35  H    0.141886
    36  H    0.144767
    37  H    0.142815
 Sum of Mulliken charges =  -0.00000

 Dipole moment (field-independent basis, Debye):
    X=             -3.8387    Y=             -1.2092    Z=              3.7515  Tot=              5.5019
 Quadrupole moment (field-independent basis, Debye-Ang):
   XX=           -130.4310   YY=           -146.8231   ZZ=           -136.1076
   XY=             -4.4099   XZ=             -8.7844   YZ=             12.2078

  Exact polarizability: 446.592   5.823 341.715 -15.736  26.250 286.739
 Approx polarizability: 320.889   7.770 289.638 -11.319  23.372 248.387

 ******    1 imaginary frequencies (negative Signs) ******

                      1                      2                      3
                      A                      A                      A
 Frequencies --   -357.4358                18.2154                22.3775
 Red. masses --      5.3357                 4.9102                 4.2006
 Frc consts  --      0.4016                 0.0010                 0.0012
 IR Inten    --    647.7161                 0.7931                 0.1333

                      4                      5                      6
                      A                      A                      A
 Frequencies --     32.8082                41.8672                66.4618
 Red. masses --      4.3277                 7.0498                 5.3978
 Frc consts  --      0.0027                 0.0073                 0.0140
 IR Inten    --      2.1507                 1.2368                 2.0160

                      7                      8                      9
                      A                      A                      A
 Frequencies --     76.9928                85.3684               120.0402
 Red. masses --      6.2697                 7.9245                 3.3422
 Frc consts  --      0.0219                 0.0340                 0.0284
 IR Inten    --      4.0222                 0.3359                 2.0253

                     10                     11                     12
                      A                      A                      A
 Frequencies --    132.2609               135.8633               153.1510
 Red. masses --      1.9433                 5.5571                 7.1217
 Frc consts  --      0.0200                 0.0604                 0.0984
 IR Inten    --     10.7022                13.2546                 0.3777

                     13                     14                     15
                      A                      A                      A
 Frequencies --    160.3350               189.8921               212.2712
 Red. masses --      3.5915                 3.8339                 3.6354
 Frc consts  --      0.0544                 0.0815                 0.0965
 IR Inten    --      2.4885                 0.3633                25.4299

                     16                     17                     18
                      A                      A                      A
 Frequencies --    224.2781               239.8074               250.8167
 Red. masses --      3.3631                 5.2728                 4.4549
 Frc consts  --      0.0997                 0.1787                 0.1651
 IR Inten    --      5.0163                 0.5640                 0.8043

                     19                     20                     21
                      A                      A                      A
 Frequencies --    262.3602               299.3248               333.8755
 Red. masses --      5.7601                 3.3250                 7.7183
 Frc consts  --      0.2336                 0.1755                 0.5069
 IR Inten    --      7.2570                28.7334                19.4850

                     22                     23                     24
                      A                      A                      A
 Frequencies --    362.6462               408.5204               418.7572
 Red. masses --      7.5304                 8.8336                 2.8739
 Frc consts  --      0.5835                 0.8686                 0.2969
 IR Inten    --     12.9714                 5.0704                 0.2914

                     25                     26                     27
                      A                      A                      A
 Frequencies --    423.2225               488.7169               527.6209
 Red. masses --      2.9792                 4.8912                 2.7810
 Frc consts  --      0.3144                 0.6883                 0.4561
 IR Inten    --      0.1266                57.9182                21.4356

                     28                     29                     30
                      A                      A                      A
 Frequencies --    538.6634               554.8559               586.2186
 Red. masses --      3.7232                 4.8720                 1.1556
 Frc consts  --      0.6365                 0.8837                 0.2340
 IR Inten    --     79.3167               125.5522               100.8623

                     31                     32                     33
                      A                      A                      A
 Frequencies --    620.1655               635.5304               640.1333
 Red. masses --      3.2738                 6.3848                 5.5381
 Frc consts  --      0.7419                 1.5194                 1.3371
 IR Inten    --     31.3506                 5.1940                15.2753

                     34                     35                     36
                      A                      A                      A
 Frequencies --    657.8703               707.4571               719.0646
 Red. masses --      2.9129                 3.9223                 1.8851
 Frc consts  --      0.7428                 1.1566                 0.5743
 IR Inten    --     97.3888               181.6546                62.0838

                     37                     38                     39
                      A                      A                      A
 Frequencies --    722.4528               773.2617               782.3196
 Red. masses --      1.5151                 7.2735                 7.5662
 Frc consts  --      0.4659                 2.5624                 2.7283
 IR Inten    --    154.7250                30.2048                48.5711

                     40                     41                     42
                      A                      A                      A
 Frequencies --    785.8232               802.8172               862.9915
 Red. masses --      1.8590                 2.3480                 1.2589
 Frc consts  --      0.6763                 0.8916                 0.5524
 IR Inten    --     98.8884                 0.1871                 0.0693

                     43                     44                     45
                      A                      A                      A
 Frequencies --    869.9363               876.6412               915.6408
 Red. masses --      1.2510                 5.6276                 5.6947
 Frc consts  --      0.5578                 2.5481                 2.8130
 IR Inten    --      0.4396                18.7586                 2.7901

                     46                     47                     48
                      A                      A                      A
 Frequencies --    937.0046               957.8584               987.6646
 Red. masses --      1.4625                 1.4464                 1.0946
 Frc consts  --      0.7565                 0.7819                 0.6291
 IR Inten    --     12.8502                 0.6175                73.8066

                     49                     50                     51
                      A                      A                      A
 Frequencies --   1003.4927              1012.4371              1020.9131
 Red. masses --      1.3495                 1.3718                 1.4591
 Frc consts  --      0.8007                 0.8285                 0.8960
 IR Inten    --      0.0568                 1.2472                 1.2985

                     52                     53                     54
                      A                      A                      A
 Frequencies --   1021.1342              1025.8441              1034.0075
 Red. masses --      3.8742                 5.6543                 1.3196
 Frc consts  --      2.3801                 3.5058                 0.8313
 IR Inten    --      2.4425                 3.1177                 0.1667

                     55                     56                     57
                      A                      A                      A
 Frequencies --   1056.4805              1065.3676              1066.7155
 Red. masses --      3.1656                 2.2329                 2.0547
 Frc consts  --      2.0817                 1.4932                 1.3775
 IR Inten    --     25.0043                32.1428                42.4359

                     58                     59                     60
                      A                      A                      A
 Frequencies --   1079.1602              1089.6474              1124.2849
 Red. masses --      4.0775                 1.4942                 1.5709
 Frc consts  --      2.7978                 1.0453                 1.1699
 IR Inten    --     45.5559                36.5842                16.6265

                     61                     62                     63
                      A                      A                      A
 Frequencies --   1126.4702              1183.3270              1186.4880
 Red. masses --      1.6011                 1.1246                 1.1443
 Frc consts  --      1.1970                 0.9278                 0.9491
 IR Inten    --      7.1097                 3.9541                 0.8150

                     64                     65                     66
                      A                      A                      A
 Frequencies --   1204.4809              1210.8674              1211.2973
 Red. masses --      3.0416                 1.4875                 1.1729
 Frc consts  --      2.5999                 1.2850                 1.0139
 IR Inten    --     82.3133                52.6464                10.7232

                     67                     68                     69
                      A                      A                      A
 Frequencies --   1218.4017              1262.2942              1279.3711
 Red. masses --      1.1264                 3.6195                 2.9698
 Frc consts  --      0.9852                 3.3980                 2.8639
 IR Inten    --      4.4345               512.4162               149.2647

                     70                     71                     72
                      A                      A                      A
 Frequencies --   1320.4201              1350.4450              1354.2198
 Red. masses --      4.4809                 4.0816                 1.3005
 Frc consts  --      4.6030                 4.3857                 1.4052
 IR Inten    --     20.2756               621.6199                 8.7980

                     73                     74                     75
                      A                      A                      A
 Frequencies --   1363.1063              1363.5662              1446.7023
 Red. masses --      1.4394                 1.4974                 3.0860
 Frc consts  --      1.5758                 1.6403                 3.8054
 IR Inten    --      3.9522                26.3731               642.3756

                     76                     77                     78
                      A                      A                      A
 Frequencies --   1476.1567              1484.4875              1488.0423
 Red. masses --      1.4348                 2.1892                 1.0615
 Frc consts  --      1.8421                 2.8425                 1.3849
 IR Inten    --    110.8810               280.2554                23.7809

                     79                     80                     81
                      A                      A                      A
 Frequencies --   1489.3780              1510.8775              1545.0704
 Red. masses --      2.1176                 1.0394                 2.3476
 Frc consts  --      2.7676                 1.3979                 3.3019
 IR Inten    --     33.7578                10.0078               109.2424

                     82                     83                     84
                      A                      A                      A
 Frequencies --   1548.8693              1582.7754              1624.7913
 Red. masses --      2.4559                 2.1044                 1.2070
 Frc consts  --      3.4713                 3.1061                 1.8774
 IR Inten    --     74.7016               946.5645               177.5129

                     85                     86                     87
                      A                      A                      A
 Frequencies --   1653.0497              1663.9406              1672.3152
 Red. masses --      5.6730                 5.1017                 3.9902
 Frc consts  --      9.1334                 8.3222                 6.5748
 IR Inten    --      3.7896               159.6731                17.9415

                     88                     89                     90
                      A                      A                      A
 Frequencies --   1674.9534              1687.8783              3066.6493
 Red. masses --      5.9567                 5.3598                 1.0343
 Frc consts  --      9.8461                 8.9966                 5.7308
 IR Inten    --      0.6106               269.6926                39.5295

                     91                     92                     93
                      A                      A                      A
 Frequencies --   3136.0262              3172.2423              3188.4476
 Red. masses --      1.1039                 1.1038                 1.0885
 Frc consts  --      6.3964                 6.5444                 6.5200
 IR Inten    --     12.5579                21.2601                12.0338

                     94                     95                     96
                      A                      A                      A
 Frequencies --   3198.4850              3200.1752              3207.4336
 Red. masses --      1.0882                 1.0863                 1.0894
 Frc consts  --      6.5592                 6.5548                 6.6035
 IR Inten    --      2.0168                 0.6727                 4.5483

                     97                     98                     99
                      A                      A                      A
 Frequencies --   3208.5743              3216.1223              3222.8080
 Red. masses --      1.0931                 1.0940                 1.0981
 Frc consts  --      6.6303                 6.6673                 6.7199
 IR Inten    --     27.9528                20.0152                22.8119

                    100                    101                    102
                      A                      A                      A
 Frequencies --   3225.8015              3262.6283              3273.3058
 Red. masses --      1.0984                 1.0912                 1.0926
 Frc consts  --      6.7339                 6.8436                 6.8971
 IR Inten    --     18.3053                10.0278                 5.9139

                    103                    104                    105
                      A                      A                      A
 Frequencies --   3485.8772              3594.0530              3631.8292
 Red. masses --      1.0555                 1.0933                 1.0766
 Frc consts  --      7.5569                 8.3207                 8.3664
 IR Inten    --     54.6385                89.9171                88.3896

 - Thermochemistry -
 -------------------
 Temperature   298.150 Kelvin.  Pressure   1.00000 Atm.
 Atom     1 has atomic number  6 and mass  12.00000

 Molecular mass:   409.96294 amu.
 Principal axes and moments of inertia in atomic units:
                           1         2         3
     Eigenvalues --  4802.12225********************
           X            0.99991   0.01134  -0.00648
           Y           -0.01084   0.99732   0.07238
           Z            0.00728  -0.07230   0.99736
 This molecule is an asymmetric top.
 Rotational symmetry number  1.
 Warning -- assumption of classical behavior for rotation
           may cause significant error
 Rotational temperatures (Kelvin)      0.01804     0.00610     0.00528
 Rotational constants (GHZ):           0.37582     0.12717     0.10991
    1 imaginary frequencies ignored.
 Zero-point vibrational energy     763792.9 (Joules/Mol)
                                  182.55090 (Kcal/Mol)
 Warning -- explicit consideration of  30 degrees of freedom as
           vibrations may cause significant error
 Vibrational temperatures:     26.21    32.20    47.20    60.24    95.62
          (Kelvin)            110.78   122.83   172.71   190.29   195.48
                              220.35   230.69   273.21   305.41   322.69
                              345.03   360.87   377.48   430.66   480.37
                              521.77   587.77   602.50   608.92   703.15
                              759.13   775.02   798.31   843.44   892.28
                              914.39   921.01   946.53  1017.87  1034.57
                             1039.45  1112.55  1125.58  1130.62  1155.07
                             1241.65  1251.64  1261.29  1317.40  1348.14
                             1378.14  1421.03  1443.80  1456.67  1468.87
                             1469.18  1475.96  1487.71  1520.04  1532.83
                             1534.77  1552.67  1567.76  1617.60  1620.74
                             1702.54  1707.09  1732.98  1742.17  1742.79
                             1753.01  1816.16  1840.73  1899.79  1942.99
                             1948.42  1961.21  1961.87  2081.48  2123.86
                             2135.85  2140.96  2142.88  2173.82  2223.01
                             2228.48  2277.26  2337.71  2378.37  2394.04
                             2406.09  2409.88  2428.48  4412.22  4512.04
                             4564.15  4587.46  4601.91  4604.34  4614.78
                             4616.42  4627.28  4636.90  4641.21  4694.19
                             4709.56  5015.40  5171.04  5225.39

 Zero-point correction=                           0.290913 (Hartree/Particle)
 Thermal correction to Energy=                    0.311218
 Thermal correction to Enthalpy=                  0.312162
 Thermal correction to Gibbs Free Energy=         0.238118
 Sum of electronic and zero-point Energies=          -5952.200177
 Sum of electronic and thermal Energies=             -5952.179873
 Sum of electronic and thermal Enthalpies=           -5952.178929
 Sum of electronic and thermal Free Energies=        -5952.252972

                     E (Thermal)             CV                S
                      KCal/Mol        Cal/Mol-Kelvin    Cal/Mol-Kelvin
 Total                  195.292             74.610            155.837
 Electronic               0.000              0.000              0.000
 Translational            0.889              2.981             43.924
 Rotational               0.889              2.981             35.369
 Vibrational            193.515             68.649             76.545
 Vibration     1          0.593              1.986              6.820
 Vibration     2          0.593              1.985              6.411
 Vibration     3          0.594              1.983              5.652
 Vibration     4          0.594              1.980              5.169
 Vibration     5          0.598              1.970              4.256
 Vibration     6          0.599              1.965              3.966
 Vibration     7          0.601              1.959              3.764
 Vibration     8          0.609              1.933              3.100
 Vibration     9          0.612              1.921              2.913
 Vibration    10          0.614              1.918              2.861
 Vibration    11          0.619              1.899              2.633
 Vibration    12          0.622              1.891              2.546
 Vibration    13          0.633              1.854              2.229
 Vibration    14          0.643              1.822              2.024
 Vibration    15          0.649              1.804              1.924
 Vibration    16          0.657              1.780              1.804
 Vibration    17          0.663              1.761              1.725
 Vibration    18          0.670              1.742              1.646
 Vibration    19          0.692              1.675              1.421
 Vibration    20          0.715              1.608              1.241
 Vibration    21          0.736              1.549              1.111
 Vibration    22          0.773              1.452              0.932
 Vibration    23          0.782              1.429              0.896
 Vibration    24          0.785              1.420              0.881
 Vibration    25          0.845              1.275              0.687
 Vibration    26          0.883              1.189              0.593
 Vibration    27          0.894              1.165              0.568
 Vibration    28          0.910              1.129              0.534
 Vibration    29          0.943              1.061              0.474
 Vibration    30          0.980              0.989              0.416

 Optimization completed.
    -- Stationary point found.
 Normal termination of Gaussian 16 at Sun Feb  7 20:52:38 2021.
