 Gaussian 16, Revision A.03,
 Gaussian 16:  ES64L-G16RevA.03 25-Dec-2016

 ----------------------------------------------------------------------
 # wB97XD def2tzvp, opt=(ts, noeigen, calcfc, maxcycles=70, maxstep=5),
  freq=noraman, scrf=(iefpcm, solvent=water)
 ----------------------------------------------------------------------

 ------------------------
 2_iteration/TS-152-2.out
 ------------------------
 Symbolic Z-matrix:
 Charge =  0 Multiplicity = 1

 SCF Done:  E(RwB97XD) =  -5897.11155076     A.U. after   15 cycles
 SCF Done:  E(RwB97XD) =  -5897.11166879     A.U. after   12 cycles
 SCF Done:  E(RwB97XD) =  -5897.11167397     A.U. after   10 cycles
 SCF Done:  E(RwB97XD) =  -5897.11167459     A.U. after    9 cycles
 SCF Done:  E(RwB97XD) =  -5897.11167470     A.U. after    7 cycles
 Optimization completed.
    -- Stationary point found.
 Normal termination of Gaussian 16 at Sun Feb  7 18:29:08 2021.

 ---------------------------------------------------------------------
 #N Geom=AllCheck Guess=TCheck SCRF=Check GenChk RwB97XD/def2TZVP Freq
 ---------------------------------------------------------------------

 Structure from the checkpoint file:  "/beegfs/scratch/user/q/tla25/Gau-30444.chk"
 ------------------------
 2_iteration/TS-152-2.out
 ------------------------
 Charge =  0 Multiplicity = 1

                         Standard orientation:
 ---------------------------------------------------------------------
 Center     Atomic      Atomic             Coordinates (Angstroms)
 Number     Number       Type             X           Y           Z
 ---------------------------------------------------------------------
      1          6           0        0.263415    0.028330    0.129218
      2          6           0        1.472532    0.819027    0.215673
      3          8           0        1.428595    2.011473    0.518056
      4          6           0       -1.001257    0.581685    0.033463
      5          6           0       -0.848397    0.973162    2.946376
      6          1           0       -0.621955    1.675042    3.750212
      7          1           0       -1.628447    0.291385    3.277651
      8          1           0        0.050092    0.395555    2.727102
      9          7           0       -1.257376    1.665392    1.732014
     10          1           0       -2.162313    2.114173    1.809319
     11          1           0       -0.564016    2.363821    1.482341
     12          6           0       -2.217274   -0.278672   -0.115689
     13          6           0       -2.330465   -1.006737   -1.302112
     14          6           0       -3.417600   -1.830428   -1.523344
     15          6           0       -4.415921   -1.940798   -0.563474
     16          6           0       -4.312920   -1.217813    0.611691
     17          6           0       -3.221088   -0.388216    0.834942
     18          1           0       -1.554193   -0.925003   -2.052463
     19          1           0       -3.486031   -2.388407   -2.448255
     20          1           0       -5.268208   -2.585514   -0.734805
     21          1           0       -5.084113   -1.292926    1.367331
     22          1           0       -3.172576    0.158711    1.762885
     23         35           0       -1.193919    2.145146   -1.143504
     24         35           0        0.393693   -1.826832    0.600715
     25          6           0        2.803749    0.200938   -0.075670
     26          6           0        2.989597   -0.620291   -1.183453
     27          6           0        4.250367   -1.110783   -1.483353
     28          6           0        5.328857   -0.801875   -0.665369
     29          6           0        5.147350    0.013516    0.443405
     30          6           0        3.891008    0.523993    0.729200
     31          1           0        2.146639   -0.865094   -1.817891
     32          1           0        4.391629   -1.737123   -2.354869
     33          1           0        6.311597   -1.194527   -0.893985
     34          1           0        5.986805    0.255669    1.082583
     35          1           0        3.744149    1.173520    1.582873
 ---------------------------------------------------------------------

 SCF Done:  E(RwB97XD) =  -5897.11167470     A.U. after    1 cycles

 The electronic state is 1-A.
 Alpha  occ. eigenvalues -- -483.13385-483.12994 -62.68205 -62.67798 -56.47336
 Alpha  occ. eigenvalues --  -56.46969 -56.46950 -56.46924 -56.46560 -56.46556
 Alpha  occ. eigenvalues --  -19.23559 -14.47728 -10.40944 -10.38040 -10.32421
 Alpha  occ. eigenvalues --  -10.32002 -10.31626 -10.30210 -10.30147 -10.29947
 Alpha  occ. eigenvalues --  -10.29719 -10.29662 -10.29628 -10.29619 -10.29565
 Alpha  occ. eigenvalues --  -10.29542 -10.29362 -10.29348  -8.82290  -8.81886
 Alpha  occ. eigenvalues --   -6.64471  -6.64053  -6.63309  -6.63249  -6.62890
 Alpha  occ. eigenvalues --   -6.62877  -2.74846  -2.74530  -2.74482  -2.74437
 Alpha  occ. eigenvalues --   -2.74099  -2.74088  -2.73542  -2.73541  -2.73148
 Alpha  occ. eigenvalues --   -2.73148  -1.14427  -1.03440  -0.98684  -0.97196
 Alpha  occ. eigenvalues --   -0.94819  -0.90260  -0.86735  -0.86255  -0.85942
 Alpha  occ. eigenvalues --   -0.85602  -0.81536  -0.78641  -0.76245  -0.72181
 Alpha  occ. eigenvalues --   -0.71435  -0.70856  -0.67906  -0.64886  -0.62764
 Alpha  occ. eigenvalues --   -0.61122  -0.58930  -0.57402  -0.57067  -0.55973
 Alpha  occ. eigenvalues --   -0.55623  -0.55151  -0.54283  -0.53148  -0.52728
 Alpha  occ. eigenvalues --   -0.51673  -0.51487  -0.51434  -0.48957  -0.48485
 Alpha  occ. eigenvalues --   -0.47611  -0.46464  -0.46067  -0.44993  -0.44406
 Alpha  occ. eigenvalues --   -0.43960  -0.43060  -0.42818  -0.40138  -0.38851
 Alpha  occ. eigenvalues --   -0.38382  -0.37087  -0.35009  -0.34504  -0.34043
 Alpha  occ. eigenvalues --   -0.33669  -0.32691  -0.28781
 Alpha virt. eigenvalues --   -0.00261   0.01483   0.04477   0.04588   0.05048
 Alpha virt. eigenvalues --    0.06295   0.09123   0.10623   0.12650   0.13604
 Alpha virt. eigenvalues --    0.14152   0.14323   0.15384   0.15872   0.16895

 Mulliken charges:
               1
     1  C   -0.356417
     2  C    0.344065
     3  O   -0.466471
     4  C    0.294814
     5  C   -0.272765
     6  H    0.155707
     7  H    0.147837
     8  H    0.149306
     9  N   -0.390248
    10  H    0.287854
    11  H    0.278875
    12  C    0.173910
    13  C   -0.319333
    14  C   -0.111528
    15  C   -0.146897
    16  C   -0.162522
    17  C   -0.171777
    18  H    0.165145
    19  H    0.147681
    20  H    0.147877
    21  H    0.146251
    22  H    0.138364
    23  Br  -0.090769
    24  Br  -0.100289
    25  C    0.155679
    26  C   -0.252769
    27  C   -0.140174
    28  C   -0.130844
    29  C   -0.144825
    30  C   -0.227116
    31  H    0.169071
    32  H    0.145475
    33  H    0.147873
    34  H    0.145255
    35  H    0.143706
 Sum of Mulliken charges =  -0.00000

 Dipole moment (field-independent basis, Debye):
    X=             -3.7409    Y=             -0.7112    Z=              3.2077  Tot=              4.9789
 Quadrupole moment (field-independent basis, Debye-Ang):
   XX=           -120.7173   YY=           -145.5891   ZZ=           -126.2476
   XY=             -4.5574   XZ=             -8.1778   YZ=             13.5892

  Exact polarizability: 399.422   1.417 313.983 -13.073  32.827 307.242
 Approx polarizability: 295.553   2.542 266.540  -9.075  27.689 263.419

 ******    1 imaginary frequencies (negative Signs) ******

                      1                      2                      3
                      A                      A                      A
 Frequencies --   -354.3655                21.0863                43.3305
 Red. masses --      5.3341                 5.4816                 4.4649
 Frc consts  --      0.3946                 0.0014                 0.0049
 IR Inten    --    660.3499                 0.7840                 0.5846

                      4                      5                      6
                      A                      A                      A
 Frequencies --     44.8946                48.7835                68.3862
 Red. masses --      4.9972                 5.3841                 6.0320
 Frc consts  --      0.0059                 0.0075                 0.0166
 IR Inten    --      1.2058                 1.5270                 1.0550

                      7                      8                      9
                      A                      A                      A
 Frequencies --     90.4022               110.4561               119.6137
 Red. masses --      5.7931                 3.2399                 4.6804
 Frc consts  --      0.0279                 0.0233                 0.0395
 IR Inten    --      0.6936                 2.4993                 1.9780

                     10                     11                     12
                      A                      A                      A
 Frequencies --    137.4185               152.0321               157.1740
 Red. masses --      7.1373                 1.3627                 7.4352
 Frc consts  --      0.0794                 0.0186                 0.1082
 IR Inten    --      3.6535                 3.9661                 0.7748

                     13                     14                     15
                      A                      A                      A
 Frequencies --    185.5788               201.9409               204.4815
 Red. masses --      5.6417                 4.7285                 5.7166
 Frc consts  --      0.1145                 0.1136                 0.1408
 IR Inten    --      3.8557                10.4592                 0.4610

                     16                     17                     18
                      A                      A                      A
 Frequencies --    227.2851               253.6981               263.9876
 Red. masses --      3.3799                 4.7269                 6.1709
 Frc consts  --      0.1029                 0.1792                 0.2534
 IR Inten    --      1.1357                 0.4819                10.8991

                     19                     20                     21
                      A                      A                      A
 Frequencies --    291.9005               330.4644               381.1121
 Red. masses --      3.2802                 8.2617                 7.8972
 Frc consts  --      0.1647                 0.5316                 0.6758
 IR Inten    --     13.3097                35.0478                 4.8562

                     22                     23                     24
                      A                      A                      A
 Frequencies --    418.3673               419.2709               421.8838
 Red. masses --      3.6441                 2.9220                 3.5427
 Frc consts  --      0.3758                 0.3026                 0.3715
 IR Inten    --      1.5531                 0.2407                 7.5662

                     25                     26                     27
                      A                      A                      A
 Frequencies --    495.5357               539.0657               553.3823
 Red. masses --      4.8017                 3.8480                 4.2612
 Frc consts  --      0.6947                 0.6588                 0.7688
 IR Inten    --     36.0728                83.5081               112.4012

                     28                     29                     30
                      A                      A                      A
 Frequencies --    582.8189               634.9265               638.2990
 Red. masses --      4.0375                 6.4058                 6.3773
 Frc consts  --      0.8080                 1.5215                 1.5309
 IR Inten    --     37.0061                 0.1908                11.8575

                     31                     32                     33
                      A                      A                      A
 Frequencies --    652.6120               678.8428               718.0023
 Red. masses --      1.8917                 5.4301                 4.4541
 Frc consts  --      0.4747                 1.4743                 1.3529
 IR Inten    --    122.4141                61.6272                24.3495

                     34                     35                     36
                      A                      A                      A
 Frequencies --    722.2809               724.6519               751.7896
 Red. masses --      1.7401                 1.5665                 2.9767
 Frc consts  --      0.5349                 0.4846                 0.9912
 IR Inten    --     93.8902               155.3500               107.7568

                     37                     38                     39
                      A                      A                      A
 Frequencies --    800.0235               819.7070               829.8769
 Red. masses --      2.5110                 4.2723                 3.5930
 Frc consts  --      0.9469                 1.6913                 1.4579
 IR Inten    --     20.8881                62.9061                16.4914

                     40                     41                     42
                      A                      A                      A
 Frequencies --    871.7814               879.1123               951.3913
 Red. masses --      1.2476                 1.2482                 2.5488
 Frc consts  --      0.5586                 0.5684                 1.3593
 IR Inten    --      0.7914                 1.3119                25.6777

                     43                     44                     45
                      A                      A                      A
 Frequencies --    962.9938               968.4117               976.8048
 Red. masses --      1.8564                 1.4944                 1.1660
 Frc consts  --      1.0143                 0.8257                 0.6555
 IR Inten    --     12.0589                 6.5259                87.6097

                     46                     47                     48
                      A                      A                      A
 Frequencies --   1013.1478              1014.4288              1025.4257
 Red. masses --      1.3704                 1.3827                 5.7466
 Frc consts  --      0.8288                 0.8383                 3.5601
 IR Inten    --      0.7782                 1.5256                 3.7404

                     49                     50                     51
                      A                      A                      A
 Frequencies --   1026.7342              1033.7783              1034.1611
 Red. masses --      6.0586                 1.3200                 1.3182
 Frc consts  --      3.7630                 0.8312                 0.8307
 IR Inten    --      1.5601                 0.3041                 0.1640

                     52                     53                     54
                      A                      A                      A
 Frequencies --   1058.4189              1064.5130              1070.3594
 Red. masses --      2.2354                 1.6499                 1.9971
 Frc consts  --      1.4754                 1.1015                 1.3481
 IR Inten    --     18.7477                98.4705                46.0546

                     55                     56                     57
                      A                      A                      A
 Frequencies --   1082.9065              1110.2152              1129.0478
 Red. masses --      2.4409                 1.5995                 1.8235
 Frc consts  --      1.6865                 1.1616                 1.3696
 IR Inten    --      9.6698                19.1753                 4.5803

                     58                     59                     60
                      A                      A                      A
 Frequencies --   1139.7855              1184.6402              1187.8135
 Red. masses --      3.1400                 1.1384                 1.1691
 Frc consts  --      2.4034                 0.9413                 0.9719
 IR Inten    --     18.4958                 0.5207                 2.3150

                     61                     62                     63
                      A                      A                      A
 Frequencies --   1203.7894              1203.8679              1205.5253
 Red. masses --      1.2305                 1.4507                 2.5620
 Frc consts  --      1.0505                 1.2388                 2.1937
 IR Inten    --     40.8290                19.9576                75.8569

                     64                     65                     66
                      A                      A                      A
 Frequencies --   1230.9840              1304.5668              1323.3860
 Red. masses --      1.1632                 4.7121                 4.7176
 Frc consts  --      1.0385                 4.7250                 4.8680
 IR Inten    --      1.3183               275.8583                93.3564

                     67                     68                     69
                      A                      A                      A
 Frequencies --   1335.9336              1355.0779              1357.6389
 Red. masses --      5.4904                 1.3283                 1.4413
 Frc consts  --      5.7732                 1.4371                 1.5653
 IR Inten    --    143.8949                28.1904                20.8297

                     70                     71                     72
                      A                      A                      A
 Frequencies --   1375.3030              1424.8000              1464.3808
 Red. masses --      1.3708                 4.1567                 1.3040
 Frc consts  --      1.5277                 4.9718                 1.6475
 IR Inten    --     12.0679               991.9358                74.2704

                     73                     74                     75
                      A                      A                      A
 Frequencies --   1487.0527              1489.9600              1492.3622
 Red. masses --      1.0449                 2.1863                 2.2591
 Frc consts  --      1.3613                 2.8596                 2.9644
 IR Inten    --     12.4512                28.2032                35.9723

                     76                     77                     78
                      A                      A                      A
 Frequencies --   1505.7595              1540.5026              1549.1263
 Red. masses --      1.0414                 2.3243                 2.3123
 Frc consts  --      1.3912                 3.2499                 3.2694
 IR Inten    --     14.8015                 4.1093                 6.5665

                     79                     80                     81
                      A                      A                      A
 Frequencies --   1634.9367              1649.5584              1654.9645
 Red. masses --      1.5870                 3.5308                 4.9157
 Frc consts  --      2.4993                 5.6606                 7.9325
 IR Inten    --    302.0954                10.7292                 6.6022

                     82                     83                     84
                      A                      A                      A
 Frequencies --   1670.1258              1674.4432              1676.7530
 Red. masses --      4.5680                 5.8674                 5.4617
 Frc consts  --      7.5072                 9.6925                 9.0472
 IR Inten    --    148.4599                22.9600                 4.7406

                     85                     86                     87
                      A                      A                      A
 Frequencies --   3064.2525              3135.1043              3166.0460
 Red. masses --      1.0346                 1.1034                 1.1043
 Frc consts  --      5.7234                 6.3897                 6.5219
 IR Inten    --     42.9314                14.5126                21.0644

                     88                     89                     90
                      A                      A                      A
 Frequencies --   3196.4914              3199.6237              3202.3626
 Red. masses --      1.0860                 1.0865                 1.0883
 Frc consts  --      6.5380                 6.5534                 6.5757
 IR Inten    --      1.0907                 0.9101                 1.2160

                     91                     92                     93
                      A                      A                      A
 Frequencies --   3206.6248              3209.3460              3215.5661
 Red. masses --      1.0894                 1.0917                 1.0940
 Frc consts  --      6.6000                 6.6253                 6.6647
 IR Inten    --      3.4059                10.2828                20.2935

                     94                     95                     96
                      A                      A                      A
 Frequencies --   3216.9678              3224.7196              3225.4899
 Red. masses --      1.0953                 1.0989                 1.0984
 Frc consts  --      6.6786                 6.7330                 6.7326
 IR Inten    --     29.3114                18.6316                18.8833

                     97                     98                     99
                      A                      A                      A
 Frequencies --   3267.2469              3504.3111              3599.9231
 Red. masses --      1.0907                 1.0527                 1.0948
 Frc consts  --      6.8600                 7.6162                 8.3596
 IR Inten    --     11.9446                36.6616                82.5050

 - Thermochemistry -
 -------------------
 Temperature   298.150 Kelvin.  Pressure   1.00000 Atm.
 Atom     1 has atomic number  6 and mass  12.00000

 Molecular mass:   394.95204 amu.
 Principal axes and moments of inertia in atomic units:
                           1         2         3
     Eigenvalues --  5028.32121********************
           X            0.99955   0.02754  -0.01211
           Y           -0.02569   0.99085   0.13249
           Z            0.01565  -0.13212   0.99111
 This molecule is an asymmetric top.
 Rotational symmetry number  1.
 Warning -- assumption of classical behavior for rotation
           may cause significant error
 Rotational temperatures (Kelvin)      0.01723     0.00809     0.00697
 Rotational constants (GHZ):           0.35892     0.16858     0.14524
    1 imaginary frequencies ignored.
 Zero-point vibrational energy     717556.7 (Joules/Mol)
                                  171.50016 (Kcal/Mol)
 Warning -- explicit consideration of  27 degrees of freedom as
           vibrations may cause significant error
 Vibrational temperatures:     30.34    62.34    64.59    70.19    98.39
          (Kelvin)            130.07   158.92   172.10   197.71   218.74
                              226.14   267.01   290.55   294.20   327.01
                              365.01   379.82   419.98   475.46   548.34
                              601.94   603.24   607.00   712.97   775.60
                              796.19   838.55   913.52   918.37   938.96
                              976.70  1033.05  1039.20  1042.61  1081.66
                             1151.06  1179.38  1194.01  1254.30  1264.85
                             1368.84  1385.53  1393.33  1405.40  1457.69
                             1459.54  1475.36  1477.24  1487.38  1487.93
                             1522.83  1531.60  1540.01  1558.06  1597.35
                             1624.45  1639.90  1704.43  1709.00  1731.98
                             1732.10  1734.48  1771.11  1876.98  1904.06
                             1922.11  1949.65  1953.34  1978.75  2049.97
                             2106.92  2139.54  2143.72  2147.18  2166.45
                             2216.44  2228.85  2352.31  2373.35  2381.12
                             2402.94  2409.15  2412.47  4408.78  4510.72
                             4555.23  4599.04  4603.54  4607.49  4613.62
                             4617.53  4626.48  4628.50  4639.65  4640.76
                             4700.84  5041.92  5179.49

 Zero-point correction=                           0.273303 (Hartree/Particle)
 Thermal correction to Energy=                    0.292466
 Thermal correction to Enthalpy=                  0.293410
 Thermal correction to Gibbs Free Energy=         0.222964
 Sum of electronic and zero-point Energies=          -5896.838372
 Sum of electronic and thermal Energies=             -5896.819209
 Sum of electronic and thermal Enthalpies=           -5896.818264
 Sum of electronic and thermal Free Energies=        -5896.888711

                     E (Thermal)             CV                S
                      KCal/Mol        Cal/Mol-Kelvin    Cal/Mol-Kelvin
 Total                  183.525             70.330            148.266
 Electronic               0.000              0.000              0.000
 Translational            0.889              2.981             43.812
 Rotational               0.889              2.981             34.858
 Vibrational            181.748             64.369             69.596
 Vibration     1          0.593              1.985              6.529
 Vibration     2          0.595              1.980              5.101
 Vibration     3          0.595              1.979              5.030
 Vibration     4          0.595              1.978              4.866
 Vibration     5          0.598              1.969              4.199
 Vibration     6          0.602              1.956              3.651
 Vibration     7          0.606              1.941              3.261
 Vibration     8          0.609              1.933              3.107
 Vibration     9          0.614              1.916              2.840
 Vibration    10          0.619              1.900              2.647
 Vibration    11          0.621              1.895              2.584
 Vibration    12          0.632              1.860              2.272
 Vibration    13          0.639              1.837              2.115
 Vibration    14          0.640              1.834              2.092
 Vibration    15          0.651              1.799              1.900
 Vibration    16          0.665              1.757              1.705
 Vibration    17          0.671              1.739              1.635
 Vibration    18          0.687              1.689              1.463
 Vibration    19          0.713              1.615              1.258
 Vibration    20          0.751              1.510              1.035
 Vibration    21          0.781              1.430              0.898
 Vibration    22          0.782              1.428              0.894
 Vibration    23          0.784              1.423              0.886
 Vibration    24          0.851              1.260              0.669
 Vibration    25          0.894              1.164              0.567
 Vibration    26          0.909              1.132              0.537
 Vibration    27          0.940              1.068              0.480

 Optimization completed.
    -- Stationary point found.
 Normal termination of Gaussian 16 at Sun Feb  7 20:43:32 2021.
