 Gaussian 16, Revision A.03,
 Gaussian 16:  ES64L-G16RevA.03 25-Dec-2016

 ----------------------------------------------------------------------
 # wB97XD def2tzvp, opt=(ts, noeigen, calcfc, maxcycles=70, maxstep=3),
  freq=noraman, scrf=(iefpcm, solvent=water)
 ----------------------------------------------------------------------

 ------------------------
 0_iteration/TS-140-0.out
 ------------------------
 Symbolic Z-matrix:
 Charge =  0 Multiplicity = 1

 SCF Done:  E(RwB97XD) =  -3246.32098147     A.U. after   15 cycles
 SCF Done:  E(RwB97XD) =  -3246.32098139     A.U. after    7 cycles
 Optimization completed.
    -- Stationary point found.
 Normal termination of Gaussian 16 at Sat Mar 27 19:50:32 2021.

 ---------------------------------------------------------------------
 #N Geom=AllCheck Guess=TCheck SCRF=Check GenChk RwB97XD/def2TZVP Freq
 ---------------------------------------------------------------------

 Structure from the checkpoint file:  "/beegfs/scratch/user/q/tla25/Gau-88740.chk"
 ------------------------
 0_iteration/TS-140-0.out
 ------------------------
 Charge =  0 Multiplicity = 1

                         Standard orientation:
 ---------------------------------------------------------------------
 Center     Atomic      Atomic             Coordinates (Angstroms)
 Number     Number       Type             X           Y           Z
 ---------------------------------------------------------------------
      1          6           0        0.885557   -0.843450   -0.188143
      2          6           0        2.271702   -0.460392   -0.131106
      3          8           0        2.718960    0.570477    0.360367
      4          6           0       -0.089611    0.092964    0.100243
      5          6           0        0.392924   -0.412770    2.873558
      6          1           0        0.858002   -1.240870    2.333898
      7          1           0        1.031436   -0.141154    3.714198
      8          1           0       -0.575237   -0.736521    3.248232
      9          7           0        0.234774    0.693899    1.942072
     10          1           0       -0.392846    1.418322    2.269463
     11          1           0        1.137875    1.110592    1.729883
     12          6           0       -1.539218   -0.262384   -0.012708
     13          6           0       -2.450280   -0.183663    1.032078
     14          6           0       -3.781317   -0.530569    0.837075
     15          6           0       -4.221648   -0.952865   -0.405069
     16          6           0       -3.320281   -1.024274   -1.459594
     17          6           0       -1.995566   -0.680663   -1.264851
     18          1           0       -2.147582    0.147064    2.013389
     19          1           0       -4.472743   -0.466387    1.667402
     20          1           0       -5.259360   -1.221943   -0.554385
     21          1           0       -3.650634   -1.348531   -2.438123
     22          1           0       -1.297874   -0.735807   -2.090768
     23         35           0        0.100682    1.954142   -0.647863
     24          6           0        0.546698   -2.302902   -0.410485
     25          1           0       -0.435516   -2.548077   -0.011039
     26          1           0        0.547157   -2.574331   -1.470438
     27          1           0        1.273573   -2.945352    0.087247
     28          8           0        3.097576   -1.392873   -0.650452
     29          6           0        4.491601   -1.130935   -0.552803
     30          1           0        4.795208   -1.017896    0.488254
     31          1           0        4.986808   -1.992778   -0.992811
     32          1           0        4.758803   -0.228020   -1.102184
 ---------------------------------------------------------------------

 SCF Done:  E(RwB97XD) =  -3246.32098139     A.U. after    1 cycles

 The electronic state is 1-A.
 Alpha  occ. eigenvalues -- -483.11878 -62.66709 -56.45817 -56.45482 -56.45466
 Alpha  occ. eigenvalues --  -19.28548 -19.22004 -14.47941 -10.39927 -10.39555
 Alpha  occ. eigenvalues --  -10.32746 -10.31520 -10.31519 -10.29925 -10.29654
 Alpha  occ. eigenvalues --  -10.29517 -10.29478 -10.29408 -10.27313 -10.27081
 Alpha  occ. eigenvalues --   -8.80796  -6.62901  -6.61852  -6.61797  -2.73284
 Alpha  occ. eigenvalues --   -2.73005  -2.72961  -2.72111  -2.72111  -1.20004
 Alpha  occ. eigenvalues --   -1.10448  -1.03618  -0.98042  -0.93108  -0.87167
 Alpha  occ. eigenvalues --   -0.85823  -0.85560  -0.81425  -0.78659  -0.77234
 Alpha  occ. eigenvalues --   -0.73041  -0.71206  -0.67950  -0.64938  -0.62499
 Alpha  occ. eigenvalues --   -0.60512  -0.58032  -0.57378  -0.56843  -0.56156
 Alpha  occ. eigenvalues --   -0.55470  -0.54703  -0.52841  -0.51551  -0.51307
 Alpha  occ. eigenvalues --   -0.51114  -0.49166  -0.48322  -0.47526  -0.46775
 Alpha  occ. eigenvalues --   -0.46194  -0.45399  -0.44412  -0.43849  -0.42734
 Alpha  occ. eigenvalues --   -0.42260  -0.38969  -0.37433  -0.36556  -0.35177
 Alpha  occ. eigenvalues --   -0.34320  -0.32934  -0.27561
 Alpha virt. eigenvalues --    0.01942   0.04175   0.04732   0.07560   0.10479
 Alpha virt. eigenvalues --    0.12622   0.13335   0.14318   0.14892   0.15818
 Alpha virt. eigenvalues --    0.16324   0.16422   0.17127   0.18573   0.18831

 Mulliken charges:
               1
     1  C   -0.368631
     2  C    0.467535
     3  O   -0.517465
     4  C    0.299483
     5  C   -0.278610
     6  H    0.150925
     7  H    0.156049
     8  H    0.146960
     9  N   -0.355235
    10  H    0.286062
    11  H    0.280969
    12  C    0.153555
    13  C   -0.180985
    14  C   -0.163464
    15  C   -0.149379
    16  C   -0.114000
    17  C   -0.302530
    18  H    0.139171
    19  H    0.145001
    20  H    0.146661
    21  H    0.146320
    22  H    0.161196
    23  Br  -0.177065
    24  C   -0.370364
    25  H    0.142319
    26  H    0.124499
    27  H    0.132846
    28  O   -0.300899
    29  C   -0.195873
    30  H    0.127604
    31  H    0.139081
    32  H    0.128261
 Sum of Mulliken charges =  -0.00000

 Dipole moment (field-independent basis, Debye):
    X=             -2.8149    Y=             -2.2606    Z=              4.6579  Tot=              5.8932
 Quadrupole moment (field-independent basis, Debye-Ang):
   XX=            -97.7050   YY=           -112.9975   ZZ=            -92.5764
   XY=             -2.7396   XZ=             -1.5051   YZ=              4.6902

  Exact polarizability: 292.825   3.267 224.860 -10.621  12.996 241.539
 Approx polarizability: 219.761   5.192 188.287  -7.701  13.069 204.633

 ******    1 imaginary frequencies (negative Signs) ******

                      1                      2                      3
                      A                      A                      A
 Frequencies --   -377.9438                27.3121                59.2095
 Red. masses --      5.3158                 3.5960                 3.7849
 Frc consts  --      0.4474                 0.0016                 0.0078
 IR Inten    --    522.5658                 0.1314                 2.1162

                      4                      5                      6
                      A                      A                      A
 Frequencies --     71.5539                82.3098               117.1909
 Red. masses --      5.3174                 4.9984                 3.5430
 Frc consts  --      0.0160                 0.0200                 0.0287
 IR Inten    --      2.5182                 5.7150                 3.5697

                      7                      8                      9
                      A                      A                      A
 Frequencies --    127.4392               137.8924               142.1580
 Red. masses --      1.7092                 2.4395                 1.2773
 Frc consts  --      0.0164                 0.0273                 0.0152
 IR Inten    --      2.4519                 6.6664                 0.5784

                     10                     11                     12
                      A                      A                      A
 Frequencies --    158.0468               163.8555               172.5056
 Red. masses --      5.2627                 1.3476                 1.5083
 Frc consts  --      0.0775                 0.0213                 0.0264
 IR Inten    --      5.7363                 1.8931                 1.5693

                     13                     14                     15
                      A                      A                      A
 Frequencies --    185.9864               211.0981               251.0099
 Red. masses --      4.2547                 2.7785                 7.1160
 Frc consts  --      0.0867                 0.0730                 0.2642
 IR Inten    --      0.1081                 8.1855                20.3869

                     16                     17                     18
                      A                      A                      A
 Frequencies --    273.2303               284.4627               300.3071
 Red. masses --      2.9789                 4.5144                 3.8060
 Frc consts  --      0.1310                 0.2152                 0.2022
 IR Inten    --      5.1474                18.4468                14.8262

                     19                     20                     21
                      A                      A                      A
 Frequencies --    333.0915               357.9434               368.2003
 Red. masses --      2.9474                 4.8127                 4.1245
 Frc consts  --      0.1927                 0.3633                 0.3294
 IR Inten    --     30.3333                 9.8527                48.9154

                     22                     23                     24
                      A                      A                      A
 Frequencies --    419.1923               511.6605               534.3793
 Red. masses --      2.8583                 4.2735                 4.7399
 Frc consts  --      0.2959                 0.6592                 0.7975
 IR Inten    --      0.5689                33.9101                59.9037

                     25                     26                     27
                      A                      A                      A
 Frequencies --    580.0345               616.7032               642.4013
 Red. masses --      2.6553                 6.4486                 6.3976
 Frc consts  --      0.5263                 1.4450                 1.5555
 IR Inten    --     49.8486                75.5095                25.6271

                     28                     29                     30
                      A                      A                      A
 Frequencies --    692.2338               712.1611               722.9103
 Red. masses --      2.1892                 2.9832                 1.4376
 Frc consts  --      0.6181                 0.8914                 0.4426
 IR Inten    --     39.2389                83.6094               162.9282

                     31                     32                     33
                      A                      A                      A
 Frequencies --    787.7112               805.7328               834.3835
 Red. masses --      2.9440                 6.0892                 3.6814
 Frc consts  --      1.0763                 2.3291                 1.5101
 IR Inten    --     86.6022                67.3792                88.1784

                     34                     35                     36
                      A                      A                      A
 Frequencies --    869.7495               872.4981               957.7033
 Red. masses --      1.5233                 2.8722                 1.4598
 Frc consts  --      0.6789                 1.2882                 0.7889
 IR Inten    --      1.2251                 4.9072                 0.9347

                     37                     38                     39
                      A                      A                      A
 Frequencies --    990.5857              1012.8321              1025.6240
 Red. masses --      1.0846                 1.3727                 5.3794
 Frc consts  --      0.6271                 0.8296                 3.3340
 IR Inten    --     62.2657                 0.9712                19.8194

                     40                     41                     42
                      A                      A                      A
 Frequencies --   1028.7686              1033.2239              1051.4514
 Red. masses --      1.7226                 1.3275                 4.0159
 Frc consts  --      1.0742                 0.8350                 2.6159
 IR Inten    --    241.0144                 5.7516                49.2323

                     43                     44                     45
                      A                      A                      A
 Frequencies --   1066.6021              1071.5778              1076.6168
 Red. masses --      1.4854                 1.8399                 2.0144
 Frc consts  --      0.9956                 1.2447                 1.3757
 IR Inten    --     10.9164                18.7860               109.8659

                     46                     47                     48
                      A                      A                      A
 Frequencies --   1088.0045              1127.2903              1171.9513
 Red. masses --      2.0243                 1.5953                 3.5525
 Frc consts  --      1.4118                 1.1944                 2.8748
 IR Inten    --     11.8537                 8.1180               283.8758

                     49                     50                     51
                      A                      A                      A
 Frequencies --   1182.1862              1187.0001              1210.2050
 Red. masses --      1.2918                 1.1333                 1.4010
 Frc consts  --      1.0637                 0.9408                 1.2090
 IR Inten    --      5.5969                 0.7948                45.4755

                     52                     53                     54
                      A                      A                      A
 Frequencies --   1222.1851              1223.4401              1247.8546
 Red. masses --      1.6764                 1.1877                 4.0351
 Frc consts  --      1.4754                 1.0475                 3.7020
 IR Inten    --    208.6943                 3.4847               176.3502

                     55                     56                     57
                      A                      A                      A
 Frequencies --   1316.0844              1330.1915              1353.2971
 Red. masses --      5.0192                 5.9586                 1.2929
 Frc consts  --      5.1222                 6.2119                 1.3951
 IR Inten    --    117.2726               547.0818                28.7336

                     58                     59                     60
                      A                      A                      A
 Frequencies --   1367.8608              1417.7715              1456.3902
 Red. masses --      1.4023                 1.2633                 1.5066
 Frc consts  --      1.5459                 1.4961                 1.8828
 IR Inten    --      7.0104                75.2536               194.9335

                     61                     62                     63
                      A                      A                      A
 Frequencies --   1474.4181              1479.3202              1480.2037
 Red. masses --      1.5214                 1.1632                 1.0703
 Frc consts  --      1.9487                 1.4998                 1.3817
 IR Inten    --    156.6740                15.4099                10.6542

                     64                     65                     66
                      A                      A                      A
 Frequencies --   1482.9707              1488.4671              1489.8417
 Red. masses --      1.0932                 1.0417                 2.0359
 Frc consts  --      1.4164                 1.3598                 2.6625
 IR Inten    --     29.2134                16.0172                14.1682

                     67                     68                     69
                      A                      A                      A
 Frequencies --   1495.7044              1507.8041              1511.1161
 Red. masses --      1.0645                 1.0354                 1.4341
 Frc consts  --      1.4032                 1.3869                 1.9294
 IR Inten    --     17.0030                27.4142               301.9402

                     70                     71                     72
                      A                      A                      A
 Frequencies --   1550.7264              1641.8716              1652.5879
 Red. masses --      2.5071                 1.2290                 5.2219
 Frc consts  --      3.5522                 1.9520                 8.4025
 IR Inten    --     31.7421               201.5330                16.6727

                     73                     74                     75
                      A                      A                      A
 Frequencies --   1675.9858              1694.2392              3037.5929
 Red. masses --      5.8614                 5.6215                 1.0466
 Frc consts  --      9.7004                 9.5072                 5.6895
 IR Inten    --      1.3821               364.0132                91.4507

                     76                     77                     78
                      A                      A                      A
 Frequencies --   3059.9026              3062.2310              3105.4057
 Red. masses --      1.0349                 1.0309                 1.0920
 Frc consts  --      5.7090                 5.6957                 6.2045
 IR Inten    --     47.5395                60.9443                36.0616

                     79                     80                     81
                      A                      A                      A
 Frequencies --   3130.4170              3137.7776              3149.0382
 Red. masses --      1.1025                 1.1067                 1.0998
 Frc consts  --      6.3655                 6.4198                 6.4254
 IR Inten    --     12.5635                37.4217                27.6321

                     82                     83                     84
                      A                      A                      A
 Frequencies --   3166.6912              3172.3551              3198.8113
 Red. masses --      1.1043                 1.1053                 1.0862
 Frc consts  --      6.5245                 6.5541                 6.5485
 IR Inten    --     20.7953                26.3796                 0.7067

                     85                     86                     87
                      A                      A                      A
 Frequencies --   3206.6634              3215.2973              3224.3944
 Red. masses --      1.0893                 1.0939                 1.0981
 Frc consts  --      6.5994                 6.6630                 6.7267
 IR Inten    --      4.4541                21.5354                20.6010

                     88                     89                     90
                      A                      A                      A
 Frequencies --   3252.6982              3477.1037              3592.3573
 Red. masses --      1.0917                 1.0574                 1.0914
 Frc consts  --      6.8050                 7.5321                 8.2981
 IR Inten    --     14.1102                60.1658                79.2940

 - Thermochemistry -
 -------------------
 Temperature   298.150 Kelvin.  Pressure   1.00000 Atm.
 Atom     1 has atomic number  6 and mass  12.00000

 Molecular mass:   285.03644 amu.
 Principal axes and moments of inertia in atomic units:
                           1         2         3
     Eigenvalues --  2968.015526173.707636814.27353
           X            0.99996  -0.00852  -0.00092
           Y            0.00857   0.99413   0.10781
           Z           -0.00001  -0.10781   0.99417
 This molecule is an asymmetric top.
 Rotational symmetry number  1.
 Warning -- assumption of classical behavior for rotation
           may cause significant error
 Rotational temperatures (Kelvin)      0.02918     0.01403     0.01271
 Rotational constants (GHZ):           0.60806     0.29233     0.26485
    1 imaginary frequencies ignored.
 Zero-point vibrational energy     690587.7 (Joules/Mol)
                                  165.05442 (Kcal/Mol)
 Warning -- explicit consideration of  25 degrees of freedom as
           vibrations may cause significant error
 Vibrational temperatures:     39.30    85.19   102.95   118.43   168.61
          (Kelvin)            183.36   198.40   204.53   227.39   235.75
                              248.20   267.59   303.72   361.15   393.12
                              409.28   432.07   479.24   515.00   529.76
                              603.12   736.17   768.85   834.54   887.30
                              924.27   995.97  1024.64  1040.11  1133.34
                             1159.27  1200.49  1251.38  1255.33  1377.92
                             1425.23  1457.24  1475.64  1480.17  1486.58
                             1512.80  1534.60  1541.76  1549.01  1565.40
                             1621.92  1686.18  1700.90  1707.83  1741.22
                             1758.45  1760.26  1795.38  1893.55  1913.85
                             1947.09  1968.05  2039.86  2095.42  2121.36
                             2128.41  2129.68  2133.66  2141.57  2143.55
                             2151.99  2169.39  2174.16  2231.15  2362.29
                             2377.71  2411.37  2437.63  4370.42  4402.52
                             4405.87  4467.99  4503.97  4514.56  4530.76
                             4556.16  4564.31  4602.38  4613.67  4626.10
                             4639.18  4679.91  5002.78  5168.60

 Zero-point correction=                           0.263031 (Hartree/Particle)
 Thermal correction to Energy=                    0.280130
 Thermal correction to Enthalpy=                  0.281074
 Thermal correction to Gibbs Free Energy=         0.217226
 Sum of electronic and zero-point Energies=          -3246.057950
 Sum of electronic and thermal Energies=             -3246.040851
 Sum of electronic and thermal Enthalpies=           -3246.039907
 Sum of electronic and thermal Free Energies=        -3246.103756

                     E (Thermal)             CV                S
                      KCal/Mol        Cal/Mol-Kelvin    Cal/Mol-Kelvin
 Total                  175.784             61.753            134.381
 Electronic               0.000              0.000              0.000
 Translational            0.889              2.981             42.840
 Rotational               0.889              2.981             33.190
 Vibrational            174.007             55.791             58.350
 Vibration     1          0.593              1.984              6.016
 Vibration     2          0.597              1.974              4.483
 Vibration     3          0.598              1.968              4.110
 Vibration     4          0.600              1.961              3.835
 Vibration     5          0.608              1.935              3.146
 Vibration     6          0.611              1.926              2.984
 Vibration     7          0.614              1.915              2.833
 Vibration     8          0.616              1.911              2.775
 Vibration     9          0.621              1.894              2.573
 Vibration    10          0.623              1.887              2.505
 Vibration    11          0.626              1.876              2.408
 Vibration    12          0.632              1.859              2.267
 Vibration    13          0.643              1.824              2.034
 Vibration    14          0.663              1.761              1.723
 Vibration    15          0.676              1.723              1.576
 Vibration    16          0.683              1.702              1.507
 Vibration    17          0.693              1.673              1.415
 Vibration    18          0.715              1.609              1.245
 Vibration    19          0.733              1.559              1.131
 Vibration    20          0.741              1.538              1.087
 Vibration    21          0.782              1.429              0.895
 Vibration    22          0.867              1.224              0.630
 Vibration    23          0.889              1.174              0.578
 Vibration    24          0.937              1.074              0.485
 Vibration    25          0.976              0.997              0.422

 Optimization completed.
    -- Stationary point found.
 Normal termination of Gaussian 16 at Sat Mar 27 21:08:48 2021.
