 Gaussian 16, Revision A.03,
 Gaussian 16:  ES64L-G16RevA.03 25-Dec-2016

 ----------------------------------------------------------------------
 # wB97XD def2tzvp, opt=(ts, noeigen, calcfc, maxcycles=70, maxstep=5),
  freq=noraman, scrf=(iefpcm, solvent=water)
 ----------------------------------------------------------------------

 ------------------------
 2_iteration/TS-128-2.out
 ------------------------
 Symbolic Z-matrix:
 Charge =  0 Multiplicity = 1

 SCF Done:  E(RwB97XD) =  -3554.55862814     A.U. after   16 cycles
 SCF Done:  E(RwB97XD) =  -3554.55864766     A.U. after   11 cycles
 SCF Done:  E(RwB97XD) =  -3554.55864806     A.U. after    8 cycles
 Optimization completed.
    -- Stationary point found.
 Normal termination of Gaussian 16 at Sun Apr 18 01:16:43 2021.

 ---------------------------------------------------------------------
 #N Geom=AllCheck Guess=TCheck SCRF=Check GenChk RwB97XD/def2TZVP Freq
 ---------------------------------------------------------------------

 Structure from the checkpoint file:  "/beegfs/scratch/user/q/tla25/Gau-61702.chk"
 ------------------------
 2_iteration/TS-128-2.out
 ------------------------
 Charge =  0 Multiplicity = 1

                         Standard orientation:
 ---------------------------------------------------------------------
 Center     Atomic      Atomic             Coordinates (Angstroms)
 Number     Number       Type             X           Y           Z
 ---------------------------------------------------------------------
      1          6           0       -0.206882   -0.264820    0.069340
      2          6           0       -1.328093   -1.148876    0.282471
      3          8           0       -1.207526   -2.299987    0.717890
      4          6           0        1.089667   -0.777859    0.031762
      5          6           0        0.896393   -1.071787    2.979512
      6          1           0        0.538696   -1.768911    3.738624
      7          1           0        1.690285   -0.462593    3.404035
      8          1           0        0.062799   -0.425609    2.689435
      9          7           0        1.369199   -1.767714    1.796958
     10          1           0        2.329247   -2.079632    1.862889
     11          1           0        0.754574   -2.541415    1.570604
     12          6           0        2.279390    0.127938    0.005300
     13          6           0        3.234164    0.095620   -1.005348
     14          6           0        4.291016    0.994915   -1.011586
     15          6           0        4.419729    1.931288    0.000162
     16          6           0        3.475965    1.968867    1.017984
     17          6           0        2.415764    1.081898    1.015969
     18          1           0        3.151161   -0.626061   -1.804763
     19          1           0        5.015903    0.957003   -1.814522
     20          1           0        5.247552    2.628727   -0.002625
     21          1           0        3.561092    2.697013    1.814305
     22          1           0        1.673636    1.147749    1.797296
     23         35           0        1.372082   -2.419677   -1.024831
     24          6           0       -0.435058    1.206874   -0.005343
     25          6           0        0.000409    1.946623   -1.104701
     26          6           0       -0.222215    3.311839   -1.183351
     27          6           0       -0.899987    3.968217   -0.164924
     28          6           0       -1.348792    3.245088    0.930894
     29          6           0       -1.113246    1.881021    1.008891
     30          1           0        0.518263    1.440125   -1.910070
     31          1           0        0.127379    3.864144   -2.046870
     32          1           0       -1.078169    5.034376   -0.225955
     33          1           0       -1.877981    3.745379    1.732464
     34          1           0       -1.460939    1.328713    1.873911
     35          6           0       -2.718285   -0.661777   -0.012824
     36          6           0       -3.018524    0.005417   -1.196262
     37          6           0       -4.321745    0.387324   -1.473652
     38          6           0       -5.333217    0.123716   -0.559997
     39          6           0       -5.039842   -0.541381    0.622807
     40          6           0       -3.740149   -0.944058    0.887449
     41          1           0       -2.229560    0.222316   -1.905055
     42          1           0       -4.548005    0.895124   -2.402715
     43          1           0       -6.349041    0.433459   -0.770957
     44          1           0       -5.825897   -0.749382    1.337767
     45          1           0       -3.506808   -1.474481    1.802146
 ---------------------------------------------------------------------

 SCF Done:  E(RwB97XD) =  -3554.55864806     A.U. after    1 cycles

 The electronic state is 1-A.
 Alpha  occ. eigenvalues -- -483.12678 -62.67508 -56.46625 -56.46278 -56.46260
 Alpha  occ. eigenvalues --  -19.22263 -14.47044 -10.40141 -10.36573 -10.31518
 Alpha  occ. eigenvalues --  -10.31352 -10.30104 -10.29756 -10.29714 -10.29703
 Alpha  occ. eigenvalues --  -10.29586 -10.29450 -10.29428 -10.29295 -10.29256
 Alpha  occ. eigenvalues --  -10.29218 -10.29117 -10.29105 -10.28823 -10.28793
 Alpha  occ. eigenvalues --  -10.28700 -10.28581 -10.28518 -10.27979  -8.81599
 Alpha  occ. eigenvalues --   -6.63735  -6.62643  -6.62584  -2.74119  -2.73821
 Alpha  occ. eigenvalues --   -2.73775  -2.72891  -2.72890  -1.12977  -1.02837
 Alpha  occ. eigenvalues --   -0.98375  -0.96973  -0.96391  -0.93240  -0.88434
 Alpha  occ. eigenvalues --   -0.86427  -0.85683  -0.85518  -0.85254  -0.84830
 Alpha  occ. eigenvalues --   -0.81782  -0.78347  -0.75701  -0.71961  -0.71070
 Alpha  occ. eigenvalues --   -0.70515  -0.70132  -0.69636  -0.67187  -0.64286
 Alpha  occ. eigenvalues --   -0.62567  -0.61960  -0.60850  -0.58188  -0.56953
 Alpha  occ. eigenvalues --   -0.56754  -0.55884  -0.55352  -0.55032  -0.54586
 Alpha  occ. eigenvalues --   -0.53623  -0.53003  -0.52680  -0.51976  -0.51281
 Alpha  occ. eigenvalues --   -0.51090  -0.50754  -0.50605  -0.48343  -0.48123
 Alpha  occ. eigenvalues --   -0.47620  -0.47331  -0.46322  -0.45461  -0.44653
 Alpha  occ. eigenvalues --   -0.44302  -0.43523  -0.42764  -0.42713  -0.42356
 Alpha  occ. eigenvalues --   -0.42191  -0.37526  -0.36930  -0.35363  -0.34469
 Alpha  occ. eigenvalues --   -0.34200  -0.33986  -0.33426  -0.32909  -0.32134
 Alpha  occ. eigenvalues --   -0.27889
 Alpha virt. eigenvalues --   -0.00741   0.02342   0.04557   0.04900   0.05485
 Alpha virt. eigenvalues --    0.06158   0.06410   0.07747   0.11128   0.12589
 Alpha virt. eigenvalues --    0.13124   0.13350   0.13804   0.14904   0.15400

 Mulliken charges:
               1
     1  C   -0.276756
     2  C    0.337114
     3  O   -0.496593
     4  C    0.287339
     5  C   -0.307567
     6  H    0.157291
     7  H    0.163556
     8  H    0.134700
     9  N   -0.344687
    10  H    0.279104
    11  H    0.277320
    12  C    0.070129
    13  C   -0.236022
    14  C   -0.139742
    15  C   -0.131145
    16  C   -0.172332
    17  C   -0.224298
    18  H    0.147734
    19  H    0.144979
    20  H    0.146721
    21  H    0.143600
    22  H    0.186971
    23  Br  -0.117463
    24  C    0.223125
    25  C   -0.234587
    26  C   -0.161976
    27  C   -0.128348
    28  C   -0.167566
    29  C   -0.251899
    30  H    0.144578
    31  H    0.137323
    32  H    0.140941
    33  H    0.137394
    34  H    0.157879
    35  C    0.130747
    36  C   -0.219133
    37  C   -0.161737
    38  C   -0.122038
    39  C   -0.156151
    40  C   -0.229303
    41  H    0.161010
    42  H    0.141843
    43  H    0.145481
    44  H    0.142190
    45  H    0.140274
 Sum of Mulliken charges =  -0.00000

 Dipole moment (field-independent basis, Debye):
    X=              3.8737    Y=              3.2596    Z=              3.4754  Tot=              6.1407
 Quadrupole moment (field-independent basis, Debye-Ang):
   XX=           -141.4920   YY=           -161.2380   ZZ=           -140.7373
   XY=             -5.4560   XZ=              1.9621   YZ=             -6.0827

  Exact polarizability: 459.748   0.266 404.895 -28.677 -13.695 376.079
 Approx polarizability: 339.383   0.230 329.244 -28.020  -9.580 325.037

 ******    1 imaginary frequencies (negative Signs) ******

                      1                      2                      3
                      A                      A                      A
 Frequencies --   -352.0743                25.9916                33.6592
 Red. masses --      5.8623                 5.6279                 4.9819
 Frc consts  --      0.4281                 0.0022                 0.0033
 IR Inten    --    622.7822                 0.5933                 0.5665

                      4                      5                      6
                      A                      A                      A
 Frequencies --     42.5126                55.8424                64.6729
 Red. masses --      4.5444                 5.0335                 4.0815
 Frc consts  --      0.0048                 0.0092                 0.0101
 IR Inten    --      0.3320                 1.6960                 0.9490

                      7                      8                      9
                      A                      A                      A
 Frequencies --     68.5795                80.3661               101.3406
 Red. masses --      3.7011                 3.9135                 3.5003
 Frc consts  --      0.0103                 0.0149                 0.0212
 IR Inten    --      0.5188                 0.8337                 0.2388

                     10                     11                     12
                      A                      A                      A
 Frequencies --    118.3595               133.3269               148.1250
 Red. masses --      4.9456                 8.4991                 8.2473
 Frc consts  --      0.0408                 0.0890                 0.1066
 IR Inten    --      1.2671                 3.5559                 1.7338

                     13                     14                     15
                      A                      A                      A
 Frequencies --    172.9995               188.7097               203.7080
 Red. masses --      3.5987                 3.4446                 3.8554
 Frc consts  --      0.0635                 0.0723                 0.0943
 IR Inten    --      0.2866                 9.5217                10.4047

                     16                     17                     18
                      A                      A                      A
 Frequencies --    219.1504               226.1111               252.0067
 Red. masses --      1.4481                 5.0563                 5.0568
 Frc consts  --      0.0410                 0.1523                 0.1892
 IR Inten    --      5.4122                 1.2178                 9.4762

                     19                     20                     21
                      A                      A                      A
 Frequencies --    255.3850               270.3921               282.4254
 Red. masses --      3.3372                 5.1141                 3.3693
 Frc consts  --      0.1282                 0.2203                 0.1583
 IR Inten    --      7.6893                 4.8455                 6.6296

                     22                     23                     24
                      A                      A                      A
 Frequencies --    297.7676               364.2934               374.6078
 Red. masses --      3.7890                 7.3849                 5.6521
 Frc consts  --      0.1979                 0.5774                 0.4673
 IR Inten    --     22.8295                 5.9456                76.0482

                     25                     26                     27
                      A                      A                      A
 Frequencies --    413.6310               422.7750               426.8333
 Red. masses --      4.4094                 3.0558                 2.9527
 Frc consts  --      0.4445                 0.3218                 0.3169
 IR Inten    --      1.9473                 1.2291                 2.7204

                     28                     29                     30
                      A                      A                      A
 Frequencies --    428.0325               502.7440               526.8615
 Red. masses --      2.9676                 4.5154                 3.5208
 Frc consts  --      0.3203                 0.6724                 0.5758
 IR Inten    --      2.0664                 8.7449                41.7931

                     31                     32                     33
                      A                      A                      A
 Frequencies --    534.5747               573.3133               600.3960
 Red. masses --      4.1257                 2.8648                 3.1699
 Frc consts  --      0.6947                 0.5548                 0.6732
 IR Inten    --     20.8850                51.4912                63.9051

                     34                     35                     36
                      A                      A                      A
 Frequencies --    629.9862               635.9322               637.8646
 Red. masses --      3.0038                 6.0415                 5.7803
 Frc consts  --      0.7024                 1.4395                 1.3857
 IR Inten    --    112.2197                 4.1735                20.8249

                     37                     38                     39
                      A                      A                      A
 Frequencies --    640.7867               678.4643               682.2409
 Red. masses --      5.3876                 4.9240                 5.8795
 Frc consts  --      1.3034                 1.3354                 1.6124
 IR Inten    --     24.7856                41.3959                33.4607

                     40                     41                     42
                      A                      A                      A
 Frequencies --    725.3580               725.6308               728.2547
 Red. masses --      1.6906                 1.6696                 1.5169
 Frc consts  --      0.5241                 0.5179                 0.4740
 IR Inten    --     30.2094                92.6275               122.3630

                     43                     44                     45
                      A                      A                      A
 Frequencies --    753.3386               758.4465               799.4295
 Red. masses --      3.5629                 2.8777                 2.1182
 Frc consts  --      1.1913                 0.9753                 0.7976
 IR Inten    --    100.0003                78.8336                23.4818

                     46                     47                     48
                      A                      A                      A
 Frequencies --    816.8602               827.8037               847.2348
 Red. masses --      3.3532                 3.2313                 5.2389
 Frc consts  --      1.3183                 1.3046                 2.2156
 IR Inten    --     25.9729               142.6399                42.0386

                     49                     50                     51
                      A                      A                      A
 Frequencies --    876.9186               879.0310               883.0670
 Red. masses --      1.2504                 1.2461                 1.2498
 Frc consts  --      0.5665                 0.5673                 0.5742
 IR Inten    --      1.3580                 1.5614                 0.8636

                     52                     53                     54
                      A                      A                      A
 Frequencies --    956.0193               968.5034               970.0252
 Red. masses --      1.4689                 1.4345                 1.5298
 Frc consts  --      0.7910                 0.7928                 0.8481
 IR Inten    --      3.6273                17.9185                 2.4766

                     55                     56                     57
                      A                      A                      A
 Frequencies --    976.3314               979.4799              1013.3656
 Red. masses --      1.3288                 2.8212                 1.3749
 Frc consts  --      0.7463                 1.5947                 0.8319
 IR Inten    --     97.1599                60.8694                 0.9701

                     58                     59                     60
                      A                      A                      A
 Frequencies --   1018.1606              1020.2227              1026.5522
 Red. masses --      1.3729                 1.4212                 2.1253
 Frc consts  --      0.8385                 0.8715                 1.3196
 IR Inten    --      1.4130                 0.6020                 0.4744

                     61                     62                     63
                      A                      A                      A
 Frequencies --   1026.8244              1027.2285              1027.8660
 Red. masses --      4.5764                 2.4661                 4.6147
 Frc consts  --      2.8429                 1.5332                 2.8725
 IR Inten    --      1.5399                 1.4192                 2.4590

                     64                     65                     66
                      A                      A                      A
 Frequencies --   1032.1632              1036.9139              1051.6906
 Red. masses --      1.3208                 1.3400                 1.4136
 Frc consts  --      0.8291                 0.8489                 0.9212
 IR Inten    --      1.0741                 0.4295                86.1970

                     67                     68                     69
                      A                      A                      A
 Frequencies --   1058.0824              1063.7600              1070.1031
 Red. masses --      2.5788                 2.2009                 2.0470
 Frc consts  --      1.7010                 1.4674                 1.3811
 IR Inten    --     21.1713                12.2035                19.3176

                     70                     71                     72
                      A                      A                      A
 Frequencies --   1098.1763              1109.3154              1113.7212
 Red. masses --      2.6583                 2.0758                 1.5595
 Frc consts  --      1.8888                 1.5050                 1.1397
 IR Inten    --      7.2110                25.6945                21.7814

                     73                     74                     75
                      A                      A                      A
 Frequencies --   1116.9957              1133.7812              1180.7983
 Red. masses --      1.8335                 1.7802                 1.4189
 Frc consts  --      1.3478                 1.3482                 1.1656
 IR Inten    --     12.8957                 9.9390                23.2805

                     76                     77                     78
                      A                      A                      A
 Frequencies --   1181.2557              1183.6318              1187.6079
 Red. masses --      1.1404                 1.1415                 1.1287
 Frc consts  --      0.9376                 0.9422                 0.9380
 IR Inten    --      2.4283                 0.9959                 0.2614

                     79                     80                     81
                      A                      A                      A
 Frequencies --   1197.5294              1207.3904              1212.3568
 Red. masses --      3.7696                 1.1261                 1.1243
 Frc consts  --      3.1851                 0.9672                 0.9737
 IR Inten    --     98.0274                 9.9592                 1.0707

                     82                     83                     84
                      A                      A                      A
 Frequencies --   1225.1732              1284.0628              1308.5561
 Red. masses --      1.1280                 4.5827                 4.4929
 Frc consts  --      0.9976                 4.4518                 4.5328
 IR Inten    --      9.4013               127.8045                81.7428

                     85                     86                     87
                      A                      A                      A
 Frequencies --   1322.4500              1324.1930              1347.7696
 Red. masses --      4.6777                 4.2941                 4.0798
 Frc consts  --      4.8199                 4.4363                 4.3663
 IR Inten    --     33.9819                92.7841               452.8064

                     88                     89                     90
                      A                      A                      A
 Frequencies --   1355.1979              1360.9936              1364.1284
 Red. masses --      1.4014                 1.4332                 1.5874
 Frc consts  --      1.5165                 1.5641                 1.7404
 IR Inten    --      1.8485                 9.8236                40.1689

                     91                     92                     93
                      A                      A                      A
 Frequencies --   1371.2105              1405.8925              1454.7187
 Red. masses --      1.4473                 4.1935                 1.2367
 Frc consts  --      1.6033                 4.8835                 1.5419
 IR Inten    --     57.3984              1027.3230                32.1536

                     94                     95                     96
                      A                      A                      A
 Frequencies --   1488.9338              1491.7826              1492.5047
 Red. masses --      2.2235                 2.2405                 2.2740
 Frc consts  --      2.9042                 2.9377                 2.9845
 IR Inten    --     21.1611                11.3790                66.0585

                     97                     98                     99
                      A                      A                      A
 Frequencies --   1494.0474              1502.9194              1541.6763
 Red. masses --      1.0548                 1.0379                 2.2992
 Frc consts  --      1.3872                 1.3812                 3.2197
 IR Inten    --     10.0731                13.2413                 4.3676

                    100                    101                    102
                      A                      A                      A
 Frequencies --   1543.6664              1547.2801              1615.7500
 Red. masses --      2.3396                 2.2661                 1.6221
 Frc consts  --      3.2848                 3.1965                 2.4951
 IR Inten    --     44.6292                10.2800               383.0926

                    103                    104                    105
                      A                      A                      A
 Frequencies --   1641.2116              1647.3050              1652.0532
 Red. masses --      2.9149                 5.0467                 5.6382
 Frc consts  --      4.6260                 8.0688                 9.0666
 IR Inten    --     89.9808                25.8665                 3.9614

                    106                    107                    108
                      A                      A                      A
 Frequencies --   1661.0653              1673.1456              1674.6618
 Red. masses --      5.4063                 5.8996                 5.7939
 Frc consts  --      8.7886                 9.7306                 9.5737
 IR Inten    --    179.6212                 1.0265                 7.3363

                    109                    110                    111
                      A                      A                      A
 Frequencies --   1674.7953              3048.2980              3113.7089
 Red. masses --      5.9046                 1.0373                 1.1009
 Frc consts  --      9.7581                 5.6789                 6.2883
 IR Inten    --     10.5324                42.0871                19.0186

                    112                    113                    114
                      A                      A                      A
 Frequencies --   3167.9876              3188.4158              3192.3596
 Red. masses --      1.1028                 1.0861                 1.0878
 Frc consts  --      6.5210                 6.5054                 6.5317
 IR Inten    --     17.0141                 8.8234                 0.3119

                    115                    116                    117
                      A                      A                      A
 Frequencies --   3194.8954              3200.0446              3201.8584
 Red. masses --      1.0858                 1.0866                 1.0905
 Frc consts  --      6.5298                 6.5558                 6.5869
 IR Inten    --      0.6434                 0.0767                12.9031

                    118                    119                    120
                      A                      A                      A
 Frequencies --   3202.1755              3208.5212              3209.8554
 Red. masses --      1.0890                 1.0951                 1.0918
 Frc consts  --      6.5794                 6.6424                 6.6278
 IR Inten    --      2.3849                44.4330                13.8453

                    121                    122                    123
                      A                      A                      A
 Frequencies --   3210.1505              3216.5627              3219.6988
 Red. masses --      1.0909                 1.0950                 1.0988
 Frc consts  --      6.6237                 6.6749                 6.7113
 IR Inten    --     15.6443                34.9652                19.1480

                    124                    125                    126
                      A                      A                      A
 Frequencies --   3221.5171              3223.4758              3239.4568
 Red. masses --      1.0962                 1.0987                 1.0927
 Frc consts  --      6.7029                 6.7266                 6.7562
 IR Inten    --     26.0253                16.7001                 4.5509

                    127                    128                    129
                      A                      A                      A
 Frequencies --   3249.0401              3519.5040              3624.6939
 Red. masses --      1.0925                 1.0511                 1.0968
 Frc consts  --      6.7948                 7.6708                 8.4904
 IR Inten    --      4.9751                44.8194               101.8390

 - Thermochemistry -
 -------------------
 Temperature   298.150 Kelvin.  Pressure   1.00000 Atm.
 Atom     1 has atomic number  6 and mass  12.00000

 Molecular mass:   393.07283 amu.
 Principal axes and moments of inertia in atomic units:
                           1         2         3
     Eigenvalues --  6778.39921********************
           X            0.99946   0.03182   0.00817
           Y           -0.03143   0.99856  -0.04343
           Z           -0.00954   0.04315   0.99902
 This molecule is an asymmetric top.
 Rotational symmetry number  1.
 Warning -- assumption of classical behavior for rotation
           may cause significant error
 Rotational temperatures (Kelvin)      0.01278     0.00786     0.00605
 Rotational constants (GHZ):           0.26625     0.16387     0.12613
    1 imaginary frequencies ignored.
 Zero-point vibrational energy     958815.1 (Joules/Mol)
                                  229.16230 (Kcal/Mol)
 Warning -- explicit consideration of  32 degrees of freedom as
           vibrations may cause significant error
 Vibrational temperatures:     37.40    48.43    61.17    80.34    93.05
          (Kelvin)             98.67   115.63   145.81   170.29   191.83
                              213.12   248.91   271.51   293.09   315.31
                              325.32   362.58   367.44   389.03   406.35
                              428.42   524.14   538.98   595.12   608.28
                              614.12   615.84   723.34   758.04   769.13
                              824.87   863.84   906.41   914.96   917.74
                              921.95   976.16   981.59  1043.63  1044.02
                             1047.80  1083.89  1091.24  1150.20  1175.28
                             1191.02  1218.98  1261.69  1264.73  1270.54
                             1375.50  1393.46  1395.65  1404.72  1409.25
                             1458.01  1464.91  1467.87  1476.98  1477.37
                             1477.95  1478.87  1485.05  1491.89  1513.15
                             1522.34  1530.51  1539.64  1580.03  1596.06
                             1602.40  1607.11  1631.26  1698.91  1699.56
                             1702.98  1708.70  1722.98  1737.17  1744.31
                             1762.75  1847.48  1882.72  1902.71  1905.22
                             1939.14  1949.83  1958.17  1962.68  1972.87
                             2022.77  2093.02  2142.24  2146.34  2147.38
                             2149.60  2162.37  2218.13  2220.99  2226.19
                             2324.70  2361.34  2370.10  2376.94  2389.90
                             2407.28  2409.46  2409.66  4385.82  4479.93
                             4558.03  4587.42  4593.09  4596.74  4604.15
                             4606.76  4607.22  4616.35  4618.27  4618.69
                             4627.92  4632.43  4635.04  4637.86  4660.86
                             4674.64  5063.78  5215.13

 Zero-point correction=                           0.365193 (Hartree/Particle)
 Thermal correction to Energy=                    0.387248
 Thermal correction to Enthalpy=                  0.388193
 Thermal correction to Gibbs Free Energy=         0.312411
 Sum of electronic and zero-point Energies=          -3554.193455
 Sum of electronic and thermal Energies=             -3554.171400
 Sum of electronic and thermal Enthalpies=           -3554.170455
 Sum of electronic and thermal Free Energies=        -3554.246237

                     E (Thermal)             CV                S
                      KCal/Mol        Cal/Mol-Kelvin    Cal/Mol-Kelvin
 Total                  243.002             84.931            159.496
 Electronic               0.000              0.000              0.000
 Translational            0.889              2.981             43.798
 Rotational               0.889              2.981             35.323
 Vibrational            241.225             78.969             80.375
 Vibration     1          0.593              1.985              6.114
 Vibration     2          0.594              1.983              5.601
 Vibration     3          0.595              1.980              5.138
 Vibration     4          0.596              1.975              4.599
 Vibration     5          0.597              1.971              4.309
 Vibration     6          0.598              1.969              4.194
 Vibration     7          0.600              1.962              3.882
 Vibration     8          0.604              1.948              3.428
 Vibration     9          0.609              1.934              3.127
 Vibration    10          0.613              1.920              2.897
 Vibration    11          0.617              1.905              2.696
 Vibration    12          0.627              1.876              2.403
 Vibration    13          0.633              1.855              2.240
 Vibration    14          0.639              1.835              2.099
 Vibration    15          0.647              1.812              1.966
 Vibration    16          0.650              1.801              1.910
 Vibration    17          0.664              1.759              1.717
 Vibration    18          0.666              1.754              1.693
 Vibration    19          0.674              1.728              1.594
 Vibration    20          0.681              1.706              1.519
 Vibration    21          0.691              1.678              1.429
 Vibration    22          0.738              1.546              1.104
 Vibration    23          0.746              1.524              1.061
 Vibration    24          0.777              1.441              0.914
 Vibration    25          0.785              1.421              0.883
 Vibration    26          0.788              1.412              0.869
 Vibration    27          0.790              1.409              0.865
 Vibration    28          0.858              1.244              0.651
 Vibration    29          0.882              1.191              0.594
 Vibration    30          0.890              1.174              0.577
 Vibration    31          0.930              1.089              0.498
 Vibration    32          0.959              1.031              0.449

 Optimization completed.
    -- Stationary point found.
 Normal termination of Gaussian 16 at Sun Apr 18 03:43:22 2021.
