 Gaussian 16, Revision A.03,
 Gaussian 16:  ES64L-G16RevA.03 25-Dec-2016

 ----------------------------------------------------------------------
 # wB97XD def2tzvp, opt=(ts, noeigen, calcfc, maxcycles=70, maxstep=1),
  freq=noraman, scrf=(iefpcm, solvent=water)
 ----------------------------------------------------------------------

 ------------------------
 0_iteration/TS-185-0.out
 ------------------------
 Symbolic Z-matrix:
 Charge =  0 Multiplicity = 1

 SCF Done:  E(RwB97XD) =  -3552.05376360     A.U. after   15 cycles
 SCF Done:  E(RwB97XD) =  -3552.05374463     A.U. after   10 cycles
 SCF Done:  E(RwB97XD) =  -3552.05372855     A.U. after   10 cycles
 SCF Done:  E(RwB97XD) =  -3552.05371541     A.U. after   10 cycles
 SCF Done:  E(RwB97XD) =  -3552.05370529     A.U. after   10 cycles
 SCF Done:  E(RwB97XD) =  -3552.05369834     A.U. after   10 cycles
 SCF Done:  E(RwB97XD) =  -3552.05369534     A.U. after   10 cycles
 SCF Done:  E(RwB97XD) =  -3552.05370062     A.U. after   11 cycles
 SCF Done:  E(RwB97XD) =  -3552.05371509     A.U. after   10 cycles
 SCF Done:  E(RwB97XD) =  -3552.05373413     A.U. after   10 cycles
 SCF Done:  E(RwB97XD) =  -3552.05500764     A.U. after   10 cycles
 SCF Done:  E(RwB97XD) =  -3552.05505019     A.U. after   10 cycles
 SCF Done:  E(RwB97XD) =  -3552.05508270     A.U. after   10 cycles
 SCF Done:  E(RwB97XD) =  -3552.05510808     A.U. after   11 cycles
 SCF Done:  E(RwB97XD) =  -3552.05512717     A.U. after   11 cycles
 SCF Done:  E(RwB97XD) =  -3552.05513889     A.U. after   11 cycles
 SCF Done:  E(RwB97XD) =  -3552.05514612     A.U. after   10 cycles
 SCF Done:  E(RwB97XD) =  -3552.05514804     A.U. after   10 cycles
 SCF Done:  E(RwB97XD) =  -3552.05514783     A.U. after    7 cycles
 Optimization completed.
    -- Stationary point found.
 Normal termination of Gaussian 16 at Sat Feb  6 10:01:29 2021.

 ---------------------------------------------------------------------
 #N Geom=AllCheck Guess=TCheck SCRF=Check GenChk RwB97XD/def2TZVP Freq
 ---------------------------------------------------------------------

 Structure from the checkpoint file:  "/beegfs/scratch/user/q/tla25/Gau-109225.chk"
 ------------------------
 0_iteration/TS-185-0.out
 ------------------------
 Charge =  0 Multiplicity = 1

                         Standard orientation:
 ---------------------------------------------------------------------
 Center     Atomic      Atomic             Coordinates (Angstroms)
 Number     Number       Type             X           Y           Z
 ---------------------------------------------------------------------
      1          6           0        1.170330   -0.093587   -0.401947
      2          6           0        2.441931    0.257403   -0.928982
      3          8           0        3.375818   -0.506113   -1.158207
      4          6           0        0.136682    0.799415   -0.083742
      5          6           0        1.772134    1.762852    1.997055
      6          1           0        2.370921    0.874190    1.801702
      7          1           0        2.095893    2.566498    1.338891
      8          1           0        1.914491    2.067276    3.033133
      9          7           0        0.373402    1.451495    1.732695
     10          1           0        0.041743    0.744378    2.376279
     11          1           0       -0.225469    2.263900    1.831189
     12          6           0       -1.301966    0.345413   -0.039420
     13          6           0       -1.824964   -0.393290    1.018362
     14          6           0       -3.137657   -0.836059    0.991747
     15          6           0       -3.947462   -0.561223   -0.098638
     16          6           0       -3.430641    0.156877   -1.165371
     17          6           0       -2.121267    0.608544   -1.134788
     18          1           0       -1.215953   -0.664740    1.868377
     19          1           0       -3.522455   -1.404314    1.828421
     20          1           0       -4.972607   -0.907681   -0.118214
     21          1           0       -4.047243    0.372864   -2.028179
     22          1           0       -1.735917    1.167915   -1.975580
     23         17           0        0.287926    2.403851   -0.849979
     24         35           0        0.962475   -1.933268    0.053170
     25          1           0        2.552140    1.328997   -1.156201
 ---------------------------------------------------------------------

 SCF Done:  E(RwB97XD) =  -3552.05514783     A.U. after    1 cycles

 The electronic state is 1-A.
 Alpha  occ. eigenvalues -- -483.12607-101.71160 -62.67432 -56.46546 -56.46199
 Alpha  occ. eigenvalues --  -56.46189 -19.21833 -14.49752 -10.42595 -10.35687
 Alpha  occ. eigenvalues --  -10.32259 -10.32217 -10.31960 -10.30487 -10.30151
 Alpha  occ. eigenvalues --  -10.29813 -10.29761 -10.29708  -9.59762  -8.81539
 Alpha  occ. eigenvalues --   -7.34423  -7.33531  -7.33497  -6.63679  -6.62568
 Alpha  occ. eigenvalues --   -6.62535  -2.74072  -2.73748  -2.73723  -2.72824
 Alpha  occ. eigenvalues --   -2.72824  -1.12261  -1.05688  -1.00122  -0.96873
 Alpha  occ. eigenvalues --   -0.91779  -0.87414  -0.86177  -0.82404  -0.79814
 Alpha  occ. eigenvalues --   -0.75911  -0.71601  -0.69353  -0.64621  -0.63623
 Alpha  occ. eigenvalues --   -0.61472  -0.58884  -0.58149  -0.57023  -0.56029
 Alpha  occ. eigenvalues --   -0.53672  -0.53351  -0.51905  -0.50796  -0.49145
 Alpha  occ. eigenvalues --   -0.48374  -0.47581  -0.46527  -0.46073  -0.44442
 Alpha  occ. eigenvalues --   -0.43874  -0.41766  -0.40627  -0.39020  -0.37480
 Alpha  occ. eigenvalues --   -0.34536  -0.34281  -0.33046  -0.28817
 Alpha virt. eigenvalues --    0.01175   0.03964   0.04842   0.06108   0.10107
 Alpha virt. eigenvalues --    0.10731   0.13250   0.13549   0.14530   0.14966
 Alpha virt. eigenvalues --    0.16530   0.16967   0.17620   0.18543   0.18931

 Mulliken charges:
               1
     1  C   -0.208315
     2  C    0.064021
     3  O   -0.477825
     4  C    0.197719
     5  C   -0.322649
     6  H    0.169600
     7  H    0.161230
     8  H    0.172315
     9  N   -0.304689
    10  H    0.276721
    11  H    0.298973
    12  C    0.262206
    13  C   -0.256751
    14  C   -0.152322
    15  C   -0.142784
    16  C   -0.134444
    17  C   -0.263200
    18  H    0.159435
    19  H    0.149152
    20  H    0.149323
    21  H    0.148968
    22  H    0.154076
    23  Cl  -0.082615
    24  Br  -0.117198
    25  H    0.099054
 Sum of Mulliken charges =  -0.00000

 Dipole moment (field-independent basis, Debye):
    X=             -7.2195    Y=              6.0301    Z=              7.2757  Tot=             11.8920
 Quadrupole moment (field-independent basis, Debye-Ang):
   XX=           -113.7012   YY=            -99.1366   ZZ=            -89.3053
   XY=             12.5186   XZ=             11.5083   YZ=              2.1597

  Exact polarizability: 265.442   2.265 219.474 -13.154 -10.946 209.904
 Approx polarizability: 206.902   1.376 184.293  -9.267 -12.925 182.609

 ******    1 imaginary frequencies (negative Signs) ******

                      1                      2                      3
                      A                      A                      A
 Frequencies --   -332.7090                36.4946                46.2018
 Red. masses --      5.4957                 7.7859                 4.6231
 Frc consts  --      0.3584                 0.0061                 0.0058
 IR Inten    --    792.6669                 3.1187                 1.7797

                      4                      5                      6
                      A                      A                      A
 Frequencies --     55.8925                77.6577               109.1783
 Red. masses --      2.1061                 5.8854                 4.0470
 Frc consts  --      0.0039                 0.0209                 0.0284
 IR Inten    --      0.1990                 1.7136                 9.3394

                      7                      8                      9
                      A                      A                      A
 Frequencies --    156.7877               183.2299               195.3886
 Red. masses --      2.1329                 2.0097                 9.0953
 Frc consts  --      0.0309                 0.0398                 0.2046
 IR Inten    --      2.5270                 1.0748                 6.2334

                     10                     11                     12
                      A                      A                      A
 Frequencies --    221.1269               232.0623               250.3738
 Red. masses --      8.5642                 5.7750                 4.2738
 Frc consts  --      0.2467                 0.1832                 0.1578
 IR Inten    --     10.6948                 1.1541                 0.9445

                     13                     14                     15
                      A                      A                      A
 Frequencies --    277.0813               307.7257               323.2977
 Red. masses --      3.0819                 4.1146                 5.4333
 Frc consts  --      0.1394                 0.2296                 0.3346
 IR Inten    --     11.8747                22.2895                 1.8274

                     16                     17                     18
                      A                      A                      A
 Frequencies --    372.2928               383.4014               422.6094
 Red. masses --      7.0850                 3.9468                 2.9320
 Frc consts  --      0.5786                 0.3418                 0.3085
 IR Inten    --     24.6527                13.7354                 0.2402

                     19                     20                     21
                      A                      A                      A
 Frequencies --    509.0445               589.9271               603.2810
 Red. masses --      4.4037                 5.1152                 4.9383
 Frc consts  --      0.6723                 1.0488                 1.0589
 IR Inten    --     21.7678               207.8734                87.8855

                     22                     23                     24
                      A                      A                      A
 Frequencies --    638.0923               649.3361               658.5049
 Red. masses --      6.3158                 1.5952                 6.7681
 Frc consts  --      1.5151                 0.3963                 1.7291
 IR Inten    --     12.3710                 8.6001                32.2463

                     25                     26                     27
                      A                      A                      A
 Frequencies --    724.8672               779.1223               824.0823
 Red. masses --      1.6248                 2.3840                 3.5842
 Frc consts  --      0.5030                 0.8527                 1.4341
 IR Inten    --     88.7960               143.0535                79.8831

                     28                     29                     30
                      A                      A                      A
 Frequencies --    872.8776               902.5585               962.8612
 Red. masses --      1.2452                 5.8031                 1.4030
 Frc consts  --      0.5590                 2.7852                 0.7664
 IR Inten    --      0.9441                26.7961                 0.9603

                     31                     32                     33
                      A                      A                      A
 Frequencies --   1005.1367              1013.5268              1017.4275
 Red. masses --      1.1105                 1.3734                 1.6902
 Frc consts  --      0.6610                 0.8312                 1.0308
 IR Inten    --     10.0985                 9.0965                 0.4025

                     34                     35                     36
                      A                      A                      A
 Frequencies --   1026.3000              1035.4461              1042.3239
 Red. masses --      4.9973                 1.3139                 1.2692
 Frc consts  --      3.1013                 0.8300                 0.8124
 IR Inten    --      2.2351                 9.5579               118.8572

                     37                     38                     39
                      A                      A                      A
 Frequencies --   1073.2779              1082.6227              1133.5507
 Red. masses --      2.2019                 3.8308                 1.5924
 Frc consts  --      1.4944                 2.6454                 1.2055
 IR Inten    --     22.0748                13.7997                 7.7906

                     40                     41                     42
                      A                      A                      A
 Frequencies --   1189.9355              1208.4577              1219.3741
 Red. masses --      1.1340                 3.8900                 3.0578
 Frc consts  --      0.9460                 3.3470                 2.6788
 IR Inten    --      0.5172               111.5796               136.7943

                     43                     44                     45
                      A                      A                      A
 Frequencies --   1223.2729              1241.5437              1322.7239
 Red. masses --      1.5175                 1.2755                 4.7200
 Frc consts  --      1.3379                 1.1584                 4.8656
 IR Inten    --     28.5702                11.7827                12.7036

                     46                     47                     48
                      A                      A                      A
 Frequencies --   1347.6153              1379.7633              1382.3856
 Red. masses --      1.3951                 1.4981                 2.2587
 Frc consts  --      1.4928                 1.6804                 2.5431
 IR Inten    --     13.4272               193.7404               713.2670

                     49                     50                     51
                      A                      A                      A
 Frequencies --   1454.8654              1477.0323              1491.6660
 Red. masses --      1.1962                 1.7235                 2.2582
 Frc consts  --      1.4918                 2.2153                 2.9604
 IR Inten    --     13.1087               162.3340                33.3456

                     52                     53                     54
                      A                      A                      A
 Frequencies --   1496.2696              1501.3096              1548.4650
 Red. masses --      1.0418                 1.0316                 2.2144
 Frc consts  --      1.3742                 1.3699                 3.1283
 IR Inten    --     33.4887                19.9641                 5.4489

                     55                     56                     57
                      A                      A                      A
 Frequencies --   1638.0435              1653.8808              1674.0557
 Red. masses --      1.0893                 5.5555                 8.0588
 Frc consts  --      1.7221                 8.9533                13.3064
 IR Inten    --     63.3629                 1.0750              1003.5407

                     58                     59                     60
                      A                      A                      A
 Frequencies --   1675.1590              3005.5903              3076.0573
 Red. masses --      5.9173                 1.0823                 1.0329
 Frc consts  --      9.7833                 5.7605                 5.7583
 IR Inten    --     60.1162                70.5341                19.7320

                     61                     62                     63
                      A                      A                      A
 Frequencies --   3155.8318              3172.4165              3202.8304
 Red. masses --      1.1050                 1.1057                 1.0864
 Frc consts  --      6.4839                 6.5563                 6.5663
 IR Inten    --      5.9171                 7.5507                 0.1687

                     64                     65                     66
                      A                      A                      A
 Frequencies --   3212.0263              3222.2995              3232.7721
 Red. masses --      1.0900                 1.0941                 1.0934
 Frc consts  --      6.6255                 6.6933                 6.7328
 IR Inten    --      8.2023                25.2787                15.0741

                     67                     68                     69
                      A                      A                      A
 Frequencies --   3235.6685              3534.5086              3619.8785
 Red. masses --      1.0959                 1.0517                 1.0942
 Frc consts  --      6.7600                 7.7413                 8.4479
 IR Inten    --      2.5448                77.1902                47.0926

 - Thermochemistry -
 -------------------
 Temperature   298.150 Kelvin.  Pressure   1.00000 Atm.
 Atom     1 has atomic number  6 and mass  12.00000

 Molecular mass:   274.97125 amu.
 Principal axes and moments of inertia in atomic units:
                           1         2         3
     Eigenvalues --  3072.114664543.046685871.37890
           X            0.99620   0.08538   0.01730
           Y           -0.08594   0.99569   0.03494
           Z           -0.01425  -0.03629   0.99924
 This molecule is an asymmetric top.
 Rotational symmetry number  1.
 Warning -- assumption of classical behavior for rotation
           may cause significant error
 Rotational temperatures (Kelvin)      0.02819     0.01907     0.01475
 Rotational constants (GHZ):           0.58746     0.39725     0.30738
    1 imaginary frequencies ignored.
 Zero-point vibrational energy     505964.6 (Joules/Mol)
                                  120.92843 (Kcal/Mol)
 Warning -- explicit consideration of  20 degrees of freedom as
           vibrations may cause significant error
 Vibrational temperatures:     52.51    66.47    80.42   111.73   157.08
          (Kelvin)            225.58   263.63   281.12   318.15   333.89
                              360.23   398.66   442.75   465.15   535.65
                              551.63   608.04   732.40   848.77   867.99
                              918.07   934.25   947.44  1042.92  1120.98
                             1185.67  1255.88  1298.58  1385.34  1446.17
                             1458.24  1463.85  1476.62  1489.78  1499.67
                             1544.21  1557.65  1630.93  1712.05  1738.70
                             1754.41  1760.02  1786.30  1903.10  1938.92
                             1985.17  1988.94  2093.23  2125.12  2146.17
                             2152.80  2160.05  2227.90  2356.78  2379.57
                             2408.59  2410.18  4324.37  4425.76  4540.54
                             4564.40  4608.16  4621.39  4636.17  4651.24
                             4655.41  5085.37  5208.20

 Zero-point correction=                           0.192712 (Hartree/Particle)
 Thermal correction to Energy=                    0.206880
 Thermal correction to Enthalpy=                  0.207824
 Thermal correction to Gibbs Free Energy=         0.149674
 Sum of electronic and zero-point Energies=          -3551.862436
 Sum of electronic and thermal Energies=             -3551.848268
 Sum of electronic and thermal Enthalpies=           -3551.847323
 Sum of electronic and thermal Free Energies=        -3551.905474

                     E (Thermal)             CV                S
                      KCal/Mol        Cal/Mol-Kelvin    Cal/Mol-Kelvin
 Total                  129.819             50.924            122.387
 Electronic               0.000              0.000              0.000
 Translational            0.889              2.981             42.733
 Rotational               0.889              2.981             32.771
 Vibrational            128.042             44.962             46.883
 Vibration     1          0.594              1.982              5.441
 Vibration     2          0.595              1.979              4.974
 Vibration     3          0.596              1.975              4.597
 Vibration     4          0.599              1.964              3.949
 Vibration     5          0.606              1.942              3.283
 Vibration     6          0.620              1.895              2.588
 Vibration     7          0.631              1.863              2.295
 Vibration     8          0.636              1.846              2.176
 Vibration     9          0.648              1.809              1.950
 Vibration    10          0.653              1.792              1.863
 Vibration    11          0.663              1.762              1.728
 Vibration    12          0.678              1.716              1.552
 Vibration    13          0.698              1.659              1.375
 Vibration    14          0.708              1.629              1.293
 Vibration    15          0.744              1.529              1.070
 Vibration    16          0.753              1.506              1.026
 Vibration    17          0.785              1.421              0.883
 Vibration    18          0.864              1.230              0.636
 Vibration    19          0.947              1.053              0.467
 Vibration    20          0.962              1.025              0.444

 Optimization completed.
    -- Stationary point found.
 Normal termination of Gaussian 16 at Sat Feb  6 10:47:48 2021.
