 Gaussian 16, Revision A.03,
 Gaussian 16:  ES64L-G16RevA.03 25-Dec-2016

 ----------------------------------------------------------------------
 # wB97XD def2tzvp, opt=(ts, noeigen, calcfc, maxcycles=70, maxstep=5),
  freq=noraman, scrf=(iefpcm, solvent=water)
 ----------------------------------------------------------------------

 ------------------------
 2_iteration/TS-155-2.out
 ------------------------
 Symbolic Z-matrix:
 Charge =  0 Multiplicity = 1

 SCF Done:  E(RwB97XD) =  -3607.44043470     A.U. after   15 cycles
 SCF Done:  E(RwB97XD) =  -3607.44047233     A.U. after   12 cycles
 SCF Done:  E(RwB97XD) =  -3607.44048655     A.U. after   12 cycles
 SCF Done:  E(RwB97XD) =  -3607.44048796     A.U. after    9 cycles
 SCF Done:  E(RwB97XD) =  -3607.44048798     A.U. after    8 cycles
 SCF Done:  E(RwB97XD) =  -3607.44048801     A.U. after    8 cycles
 Optimization completed.
    -- Stationary point found.
 Normal termination of Gaussian 16 at Sun Feb  7 11:10:45 2021.

 ---------------------------------------------------------------------
 #N Geom=AllCheck Guess=TCheck SCRF=Check GenChk RwB97XD/def2TZVP Freq
 ---------------------------------------------------------------------

 Structure from the checkpoint file:  "/beegfs/scratch/user/q/tla25/Gau-10769.chk"
 ------------------------
 2_iteration/TS-155-2.out
 ------------------------
 Charge =  0 Multiplicity = 1

                         Standard orientation:
 ---------------------------------------------------------------------
 Center     Atomic      Atomic             Coordinates (Angstroms)
 Number     Number       Type             X           Y           Z
 ---------------------------------------------------------------------
      1          6           0       -1.030495    0.810763   -0.292437
      2          6           0       -2.476233    0.643136   -0.289028
      3          8           0       -3.003406   -0.361844    0.206450
      4          6           0       -0.151323   -0.188344    0.075157
      5          6           0       -0.800010    0.445409    2.814374
      6          1           0        0.154155    0.733473    3.248568
      7          1           0       -1.189012    1.282063    2.231190
      8          1           0       -1.505543    0.222861    3.615127
      9          7           0       -0.635389   -0.692550    1.920507
     10          1           0       -0.074864   -1.440657    2.311186
     11          1           0       -1.546652   -1.059344    1.656171
     12          6           0        1.327246    0.045368    0.039333
     13          6           0        1.906554    0.282517   -1.209101
     14          6           0        3.265692    0.501872   -1.327258
     15          6           0        4.076265    0.485006   -0.198805
     16          6           0        3.511253    0.242827    1.040590
     17          6           0        2.144795    0.020858    1.159861
     18          1           0        1.280179    0.294127   -2.091936
     19          1           0        3.694700    0.685506   -2.303899
     20          1           0        5.141133    0.656272   -0.289455
     21          1           0        4.130738    0.222687    1.927861
     22          1           0        1.740055   -0.169327    2.141139
     23         35           0       -0.492683   -2.013166   -0.640099
     24         17           0       -0.413982    2.450998   -0.485346
     25          7           0       -3.234812    1.624429   -0.826350
     26          1           0       -2.833917    2.455392   -1.219183
     27          1           0       -4.233186    1.545929   -0.759251
 ---------------------------------------------------------------------

 SCF Done:  E(RwB97XD) =  -3607.44048801     A.U. after    1 cycles

 The electronic state is 1-A.
 Alpha  occ. eigenvalues -- -483.12719-101.69661 -62.67547 -56.46670 -56.46312
 Alpha  occ. eigenvalues --  -56.46295 -19.21233 -14.48121 -14.44664 -10.40538
 Alpha  occ. eigenvalues --  -10.39332 -10.32120 -10.31848 -10.31695 -10.30064
 Alpha  occ. eigenvalues --  -10.29823 -10.29588 -10.29547 -10.29491  -9.58183
 Alpha  occ. eigenvalues --   -8.81634  -7.32826  -7.31977  -7.31941  -6.63791
 Alpha  occ. eigenvalues --   -6.62665  -6.62608  -2.74167  -2.73864  -2.73818
 Alpha  occ. eigenvalues --   -2.72907  -2.72906  -1.13901  -1.03854  -1.00842
 Alpha  occ. eigenvalues --   -0.98693  -0.96162  -0.91572  -0.86099  -0.85816
 Alpha  occ. eigenvalues --   -0.82173  -0.78789  -0.75331  -0.71369  -0.69924
 Alpha  occ. eigenvalues --   -0.65864  -0.63611  -0.62439  -0.59399  -0.58013
 Alpha  occ. eigenvalues --   -0.57191  -0.55881  -0.55354  -0.53862  -0.52516
 Alpha  occ. eigenvalues --   -0.51781  -0.51401  -0.50223  -0.48751  -0.47963
 Alpha  occ. eigenvalues --   -0.46336  -0.45196  -0.43937  -0.43055  -0.42227
 Alpha  occ. eigenvalues --   -0.41053  -0.38636  -0.36999  -0.35538  -0.34688
 Alpha  occ. eigenvalues --   -0.34406  -0.33045  -0.28029
 Alpha virt. eigenvalues --    0.01308   0.03601   0.04710   0.06917   0.10864
 Alpha virt. eigenvalues --    0.11623   0.13100   0.14087   0.14867   0.15368
 Alpha virt. eigenvalues --    0.16361   0.17350   0.17715   0.18285   0.19103

 Mulliken charges:
               1
     1  C   -0.281620
     2  C    0.350445
     3  O   -0.535655
     4  C    0.262467
     5  C   -0.279255
     6  H    0.148334
     7  H    0.152580
     8  H    0.156536
     9  N   -0.365584
    10  H    0.289711
    11  H    0.282228
    12  C    0.193307
    13  C   -0.314408
    14  C   -0.109784
    15  C   -0.149596
    16  C   -0.162905
    17  C   -0.181830
    18  H    0.160858
    19  H    0.147473
    20  H    0.147552
    21  H    0.145939
    22  H    0.136278
    23  Br  -0.129848
    24  Cl  -0.148725
    25  N   -0.460237
    26  H    0.271650
    27  H    0.274089
 Sum of Mulliken charges =  -0.00000

 Dipole moment (field-independent basis, Debye):
    X=              2.3860    Y=              1.7002    Z=              4.0285  Tot=              4.9812
 Quadrupole moment (field-independent basis, Debye-Ang):
   XX=           -100.2085   YY=           -110.1839   ZZ=            -90.9814
   XY=             -8.6714   XZ=              1.6717   YZ=             -6.5666

  Exact polarizability: 268.909   2.850 223.440  10.150 -14.769 232.259
 Approx polarizability: 208.349   6.842 188.061   6.409 -13.268 198.320

 ******    1 imaginary frequencies (negative Signs) ******

                      1                      2                      3
                      A                      A                      A
 Frequencies --   -356.8414                32.7580                68.4567
 Red. masses --      5.4052                 3.8595                 7.4875
 Frc consts  --      0.4055                 0.0024                 0.0207
 IR Inten    --    521.4495                 0.3629                 2.9259

                      4                      5                      6
                      A                      A                      A
 Frequencies --     76.5979                80.4236               122.1040
 Red. masses --      6.0200                 6.5591                 4.9453
 Frc consts  --      0.0208                 0.0250                 0.0434
 IR Inten    --      0.5455                 7.3945                 3.8587

                      7                      8                      9
                      A                      A                      A
 Frequencies --    134.6999               148.5084               150.5452
 Red. masses --      3.7263                 2.2884                 1.1926
 Frc consts  --      0.0398                 0.0297                 0.0159
 IR Inten    --      2.0202                 2.4668               311.0216

                     10                     11                     12
                      A                      A                      A
 Frequencies --    170.9486               176.3430               220.9558
 Red. masses --      2.0708                 4.6504                 3.0947
 Frc consts  --      0.0357                 0.0852                 0.0890
 IR Inten    --      5.6781                 0.4891                30.8442

                     13                     14                     15
                      A                      A                      A
 Frequencies --    243.9301               255.6020               266.5535
 Red. masses --      6.3920                 7.7172                 4.1371
 Frc consts  --      0.2241                 0.2971                 0.1732
 IR Inten    --      5.7096                 9.4388                 1.2540

                     16                     17                     18
                      A                      A                      A
 Frequencies --    306.7272               319.3910               340.5082
 Red. masses --      3.5217                 5.8666                 4.5041
 Frc consts  --      0.1952                 0.3526                 0.3077
 IR Inten    --     22.0516                 7.3511                14.2170

                     19                     20                     21
                      A                      A                      A
 Frequencies --    420.5810               456.6782               512.1456
 Red. masses --      2.8789                 7.6515                 3.6489
 Frc consts  --      0.3000                 0.9402                 0.5639
 IR Inten    --      0.2784                 7.9127                17.6802

                     22                     23                     24
                      A                      A                      A
 Frequencies --    544.8229               567.6075               575.2916
 Red. masses --      1.7329                 1.7151                 3.9345
 Frc consts  --      0.3031                 0.3256                 0.7672
 IR Inten    --     76.9437                33.0920                91.1577

                     25                     26                     27
                      A                      A                      A
 Frequencies --    637.9993               670.9642               671.6341
 Red. masses --      6.0690                 4.9365                 1.6473
 Frc consts  --      1.4555                 1.3094                 0.4378
 IR Inten    --     11.2713                80.1549                97.7574

                     28                     29                     30
                      A                      A                      A
 Frequencies --    722.5567               737.3790               788.7810
 Red. masses --      1.7779                 3.0243                 7.3198
 Frc consts  --      0.5469                 0.9688                 2.6832
 IR Inten    --     40.0701               298.9263                49.2295

                     31                     32                     33
                      A                      A                      A
 Frequencies --    810.0730               871.5414               889.4956
 Red. masses --      2.6385                 1.2512                 5.0065
 Frc consts  --      1.0201                 0.5599                 2.3339
 IR Inten    --     12.7424                 0.3266                 2.9020

                     34                     35                     36
                      A                      A                      A
 Frequencies --    957.8212               993.0519              1013.4278
 Red. masses --      1.4406                 1.0914                 1.3719
 Frc consts  --      0.7787                 0.6341                 0.8302
 IR Inten    --      0.3300                64.6016                 1.9799

                     37                     38                     39
                      A                      A                      A
 Frequencies --   1026.2468              1033.6117              1051.8262
 Red. masses --      5.7632                 1.3209                 2.8695
 Frc consts  --      3.5762                 0.8315                 1.8705
 IR Inten    --      1.8982                 0.0680                18.2981

                     40                     41                     42
                      A                      A                      A
 Frequencies --   1067.8911              1077.5382              1090.3129
 Red. masses --      2.2124                 3.5313                 1.4307
 Frc consts  --      1.4865                 2.4158                 1.0021
 IR Inten    --     13.1792                76.2777                28.1393

                     43                     44                     45
                      A                      A                      A
 Frequencies --   1101.6819              1128.7673              1187.5447
 Red. masses --      2.2428                 1.6014                 1.1445
 Frc consts  --      1.6038                 1.2021                 0.9510
 IR Inten    --     30.5944                 9.8118                 0.2206

                     46                     47                     48
                      A                      A                      A
 Frequencies --   1212.4619              1217.5794              1228.0562
 Red. masses --      1.8759                 2.0093                 1.2087
 Frc consts  --      1.6248                 1.7550                 1.0740
 IR Inten    --     56.2695                32.6548                 2.1200

                     49                     50                     51
                      A                      A                      A
 Frequencies --   1320.0288              1356.6588              1371.6529
 Red. masses --      4.8515                 1.2887                 1.3889
 Frc consts  --      4.9807                 1.3974                 1.5396
 IR Inten    --      1.6088                 9.4243                 4.3895

                     52                     53                     54
                      A                      A                      A
 Frequencies --   1395.8115              1450.1769              1475.6546
 Red. masses --      4.0936                 2.5752                 1.6002
 Frc consts  --      4.6991                 3.1908                 2.0531
 IR Inten    --    638.7894               530.6484               158.5318

                     55                     56                     57
                      A                      A                      A
 Frequencies --   1488.5355              1490.9254              1509.5035
 Red. masses --      1.0505                 2.1819                 1.0356
 Frc consts  --      1.3714                 2.8576                 1.3903
 IR Inten    --     20.0036                47.4756                11.6970

                     58                     59                     60
                      A                      A                      A
 Frequencies --   1549.6308              1602.5108              1630.9286
 Red. masses --      2.3928                 1.4788                 1.2272
 Frc consts  --      3.3854                 2.2375                 1.9232
 IR Inten    --      9.6325               263.3955               353.8530

                     61                     62                     63
                      A                      A                      A
 Frequencies --   1653.6217              1672.1241              1676.5869
 Red. masses --      5.4682                 3.1974                 5.5952
 Frc consts  --      8.8099                 5.2673                 9.2665
 IR Inten    --     17.7331               307.4359                 9.1562

                     64                     65                     66
                      A                      A                      A
 Frequencies --   3064.4159              3133.6928              3170.6081
 Red. masses --      1.0343                 1.1037                 1.1040
 Frc consts  --      5.7227                 6.3859                 6.5391
 IR Inten    --     40.5994                13.1530                20.1485

                     67                     68                     69
                      A                      A                      A
 Frequencies --   3199.4950              3206.8483              3215.5469
 Red. masses --      1.0863                 1.0895                 1.0941
 Frc consts  --      6.5518                 6.6013                 6.6651
 IR Inten    --      0.5185                 4.6962                21.1200

                     70                     71                     72
                      A                      A                      A
 Frequencies --   3225.0002              3265.4968              3478.1191
 Red. masses --      1.0984                 1.0907                 1.0562
 Frc consts  --      6.7308                 6.8526                 7.5283
 IR Inten    --     18.8031                11.7745                59.6575

                     73                     74                     75
                      A                      A                      A
 Frequencies --   3591.3033              3634.1550              3763.1943
 Red. masses --      1.0922                 1.0452                 1.1059
 Frc consts  --      8.2996                 8.1328                 9.2278
 IR Inten    --     87.8377               115.5160               103.4300

 - Thermochemistry -
 -------------------
 Temperature   298.150 Kelvin.  Pressure   1.00000 Atm.
 Atom     1 has atomic number  6 and mass  12.00000

 Molecular mass:   289.98215 amu.
 Principal axes and moments of inertia in atomic units:
                           1         2         3
     Eigenvalues --  3343.139875104.305376137.35216
           X            0.99956  -0.02847  -0.00817
           Y            0.02803   0.99835  -0.05012
           Z            0.00958   0.04987   0.99871
 This molecule is an asymmetric top.
 Rotational symmetry number  1.
 Warning -- assumption of classical behavior for rotation
           may cause significant error
 Rotational temperatures (Kelvin)      0.02591     0.01697     0.01411
 Rotational constants (GHZ):           0.53983     0.35357     0.29406
    1 imaginary frequencies ignored.
 Zero-point vibrational energy     550118.6 (Joules/Mol)
                                  131.48150 (Kcal/Mol)
 Warning -- explicit consideration of  23 degrees of freedom as
           vibrations may cause significant error
 Vibrational temperatures:     47.13    98.49   110.21   115.71   175.68
          (Kelvin)            193.80   213.67   216.60   245.96   253.72
                              317.91   350.96   367.75   383.51   441.31
                              459.53   489.92   605.12   657.06   736.86
                              783.88   816.66   827.72   917.94   965.37
                              966.33  1039.60  1060.92  1134.88  1165.51
                             1253.95  1279.79  1378.09  1428.78  1458.10
                             1476.54  1487.14  1513.34  1536.46  1550.34
                             1568.72  1585.07  1624.04  1708.61  1744.46
                             1751.83  1766.90  1899.23  1951.93  1973.50
                             2008.26  2086.48  2123.14  2141.67  2145.11
                             2171.84  2229.57  2305.66  2346.54  2379.19
                             2405.81  2412.23  4409.01  4508.68  4561.80
                             4603.36  4613.94  4626.45  4640.06  4698.32
                             5004.24  5167.08  5228.74  5414.40

 Zero-point correction=                           0.209529 (Hartree/Particle)
 Thermal correction to Energy=                    0.225246
 Thermal correction to Enthalpy=                  0.226190
 Thermal correction to Gibbs Free Energy=         0.165353
 Sum of electronic and zero-point Energies=          -3607.230959
 Sum of electronic and thermal Energies=             -3607.215242
 Sum of electronic and thermal Enthalpies=           -3607.214298
 Sum of electronic and thermal Free Energies=        -3607.275135

                     E (Thermal)             CV                S
                      KCal/Mol        Cal/Mol-Kelvin    Cal/Mol-Kelvin
 Total                  141.344             56.748            128.042
 Electronic               0.000              0.000              0.000
 Translational            0.889              2.981             42.892
 Rotational               0.889              2.981             33.015
 Vibrational            139.566             50.786             52.135
 Vibration     1          0.594              1.983              5.655
 Vibration     2          0.598              1.969              4.197
 Vibration     3          0.599              1.965              3.976
 Vibration     4          0.600              1.962              3.881
 Vibration     5          0.610              1.931              3.067
 Vibration     6          0.613              1.919              2.878
 Vibration     7          0.618              1.904              2.691
 Vibration     8          0.618              1.902              2.665
 Vibration     9          0.626              1.878              2.425
 Vibration    10          0.628              1.872              2.367
 Vibration    11          0.648              1.809              1.951
 Vibration    12          0.659              1.773              1.774
 Vibration    13          0.666              1.753              1.692
 Vibration    14          0.672              1.734              1.618
 Vibration    15          0.697              1.661              1.380
 Vibration    16          0.705              1.636              1.313
 Vibration    17          0.720              1.595              1.210
 Vibration    18          0.783              1.426              0.890
 Vibration    19          0.815              1.346              0.776
 Vibration    20          0.867              1.223              0.628
 Vibration    21          0.900              1.151              0.555
 Vibration    22          0.924              1.101              0.509
 Vibration    23          0.932              1.085              0.494

 Optimization completed.
    -- Stationary point found.
 Normal termination of Gaussian 16 at Sun Feb  7 12:09:25 2021.
