 Gaussian 16, Revision A.03,
 Gaussian 16:  ES64L-G16RevA.03 25-Dec-2016

 ----------------------------------------------------------------------
 # wB97XD def2tzvp, opt=(ts, noeigen, calcfc, maxcycles=70, maxstep=8),
  freq=noraman, scrf=(iefpcm, solvent=water)
 ----------------------------------------------------------------------

 ------------------------
 1_iteration/TS-133-1.out
 ------------------------
 Symbolic Z-matrix:
 Charge =  0 Multiplicity = 1

 SCF Done:  E(RwB97XD) =  -3187.13996334     A.U. after   15 cycles
 SCF Done:  E(RwB97XD) =  -3187.13997335     A.U. after   12 cycles
 SCF Done:  E(RwB97XD) =  -3187.13997736     A.U. after   11 cycles
 SCF Done:  E(RwB97XD) =  -3187.13997783     A.U. after    7 cycles
 Optimization completed.
    -- Stationary point found.
 Normal termination of Gaussian 16 at Sun Feb  7 02:18:35 2021.

 ---------------------------------------------------------------------
 #N Geom=AllCheck Guess=TCheck SCRF=Check GenChk RwB97XD/def2TZVP Freq
 ---------------------------------------------------------------------

 Structure from the checkpoint file:  "/beegfs/scratch/user/q/tla25/Gau-1777.chk"
 ------------------------
 1_iteration/TS-133-1.out
 ------------------------
 Charge =  0 Multiplicity = 1

                         Standard orientation:
 ---------------------------------------------------------------------
 Center     Atomic      Atomic             Coordinates (Angstroms)
 Number     Number       Type             X           Y           Z
 ---------------------------------------------------------------------
      1          6           0        0.741861   -0.896395   -0.795755
      2          6           0        2.174829   -1.098297   -0.754747
      3          8           0        2.699699   -2.057761   -1.336423
      4          6           0       -0.062416   -0.022603   -0.097117
      5          6           0        0.068344   -1.606868    2.201100
      6          1           0        0.540041   -1.765949    3.169634
      7          1           0       -0.982210   -1.879038    2.259687
      8          1           0        0.562236   -2.229743    1.452513
      9          7           0        0.191285   -0.217013    1.780919
     10          1           0       -0.461672    0.396036    2.255994
     11          1           0        1.129477    0.128732    1.947507
     12          6           0       -1.551707   -0.178731   -0.210164
     13          6           0       -2.444908    0.889311   -0.210065
     14          6           0       -3.812413    0.675918   -0.303394
     15          6           0       -4.318512   -0.610119   -0.389068
     16          6           0       -3.441911   -1.684957   -0.376237
     17          6           0       -2.077353   -1.473129   -0.283829
     18          1           0       -2.080251    1.903320   -0.143945
     19          1           0       -4.481805    1.526498   -0.309367
     20          1           0       -5.385821   -0.775242   -0.460864
     21          1           0       -3.819605   -2.697749   -0.433286
     22          1           0       -1.415393   -2.326835   -0.259849
     23         35           0        0.505613    1.940818   -0.071657
     24          1           0        0.229687   -1.647201   -1.378863
     25          7           0        2.949353   -0.252622   -0.007730
     26          6           0        4.390501   -0.372600   -0.020994
     27          1           0        2.580995    0.667114    0.168720
     28          1           0        4.804897    0.360608    0.668519
     29          1           0        4.689835   -1.367023    0.307521
     30          1           0        4.813198   -0.201810   -1.015244
 ---------------------------------------------------------------------

 SCF Done:  E(RwB97XD) =  -3187.13997783     A.U. after    1 cycles

 The electronic state is 1-A.
 Alpha  occ. eigenvalues -- -483.12505 -62.67358 -56.46444 -56.46135 -56.46125
 Alpha  occ. eigenvalues --  -19.19692 -14.49737 -14.44314 -10.40336 -10.37398
 Alpha  occ. eigenvalues --  -10.31951 -10.31772 -10.30430 -10.29892 -10.29745
 Alpha  occ. eigenvalues --  -10.29604 -10.29534 -10.29501 -10.25607  -8.81455
 Alpha  occ. eigenvalues --   -6.63499  -6.62531  -6.62502  -2.73890  -2.73630
 Alpha  occ. eigenvalues --   -2.73606  -2.72824  -2.72822  -1.12322  -1.05169
 Alpha  occ. eigenvalues --   -1.00913  -0.97998  -0.92477  -0.86555  -0.85649
 Alpha  occ. eigenvalues --   -0.84111  -0.79455  -0.79190  -0.73301  -0.71065
 Alpha  occ. eigenvalues --   -0.67744  -0.65924  -0.64292  -0.61594  -0.59335
 Alpha  occ. eigenvalues --   -0.58004  -0.56123  -0.55668  -0.55289  -0.53437
 Alpha  occ. eigenvalues --   -0.52513  -0.52008  -0.51151  -0.49089  -0.48629
 Alpha  occ. eigenvalues --   -0.47940  -0.47065  -0.46362  -0.45378  -0.44819
 Alpha  occ. eigenvalues --   -0.43635  -0.42600  -0.37578  -0.37388  -0.34592
 Alpha  occ. eigenvalues --   -0.34357  -0.33916  -0.33076  -0.27796
 Alpha virt. eigenvalues --    0.01549   0.03625   0.04726   0.08683   0.10119
 Alpha virt. eigenvalues --    0.12863   0.13126   0.13908   0.15275   0.15800
 Alpha virt. eigenvalues --    0.16759   0.17077   0.17721   0.18541   0.18818

 Mulliken charges:
               1
     1  C   -0.404986
     2  C    0.324868
     3  O   -0.552754
     4  C    0.232660
     5  C   -0.306294
     6  H    0.166391
     7  H    0.166785
     8  H    0.158952
     9  N   -0.285073
    10  H    0.295334
    11  H    0.279037
    12  C    0.122451
    13  C   -0.235062
    14  C   -0.125278
    15  C   -0.150039
    16  C   -0.128744
    17  C   -0.319957
    18  H    0.152627
    19  H    0.146608
    20  H    0.147546
    21  H    0.146852
    22  H    0.180119
    23  Br  -0.203547
    24  H    0.141938
    25  N   -0.318454
    26  C   -0.262756
    27  H    0.239738
    28  H    0.138259
    29  H    0.130537
    30  H    0.122243
 Sum of Mulliken charges =  -0.00000

 Dipole moment (field-independent basis, Debye):
    X=             -4.8251    Y=              2.6096    Z=              8.5718  Tot=             10.1768
 Quadrupole moment (field-independent basis, Debye-Ang):
   XX=            -96.2241   YY=           -107.9337   ZZ=           -100.4880
   XY=             14.8356   XZ=             11.0296   YZ=             -8.1081

  Exact polarizability: 297.028  -8.222 259.980  -8.504  11.414 187.155
 Approx polarizability: 217.886  -5.990 218.447  -4.275  12.087 160.578

 ******    1 imaginary frequencies (negative Signs) ******

                      1                      2                      3
                      A                      A                      A
 Frequencies --   -419.6107                33.9241                54.5031
 Red. masses --      4.8898                 4.1207                 3.5036
 Frc consts  --      0.5073                 0.0028                 0.0061
 IR Inten    --    450.2405                 0.4450                 1.9144

                      4                      5                      6
                      A                      A                      A
 Frequencies --     75.0605                91.2795                93.3756
 Red. masses --      4.4649                 3.4285                 3.9187
 Frc consts  --      0.0148                 0.0168                 0.0201
 IR Inten    --     11.6188                 4.4255                 4.6662

                      7                      8                      9
                      A                      A                      A
 Frequencies --    127.6491               147.8543               156.8011
 Red. masses --      2.4987                 1.2959                 2.2982
 Frc consts  --      0.0240                 0.0167                 0.0333
 IR Inten    --     10.5100                 4.5914                 2.6911

                     10                     11                     12
                      A                      A                      A
 Frequencies --    164.9165               182.2948               210.9388
 Red. masses --      4.7368                 3.3863                 1.6954
 Frc consts  --      0.0759                 0.0663                 0.0444
 IR Inten    --      1.3719                18.4221                 5.8735

                     13                     14                     15
                      A                      A                      A
 Frequencies --    229.5907               240.5172               289.0511
 Red. masses --      3.3426                 7.4200                 3.2636
 Frc consts  --      0.1038                 0.2529                 0.1607
 IR Inten    --      3.7632                51.5063                10.9440

                     16                     17                     18
                      A                      A                      A
 Frequencies --    300.3185               314.4489               356.0956
 Red. masses --      3.9582                 3.7452                 6.0345
 Frc consts  --      0.2103                 0.2182                 0.4508
 IR Inten    --     11.3960                24.8733                19.8653

                     19                     20                     21
                      A                      A                      A
 Frequencies --    423.6632               457.1101               527.1080
 Red. masses --      2.9102                 4.2623                 1.4833
 Frc consts  --      0.3078                 0.5247                 0.2428
 IR Inten    --      0.6909                19.2340                61.7908

                     22                     23                     24
                      A                      A                      A
 Frequencies --    566.9667               581.3543               608.4505
 Red. masses --      2.5470                 2.2097                 2.7062
 Frc consts  --      0.4824                 0.4400                 0.5903
 IR Inten    --    197.4739               169.0057                 5.6239

                     25                     26                     27
                      A                      A                      A
 Frequencies --    638.2999               698.9176               708.6017
 Red. masses --      5.7892                 1.7222                 2.4750
 Frc consts  --      1.3897                 0.4956                 0.7322
 IR Inten    --      2.2942                68.2116                92.4445

                     28                     29                     30
                      A                      A                      A
 Frequencies --    720.5311               724.1320               800.7525
 Red. masses --      1.9363                 2.6237                 3.6035
 Frc consts  --      0.5923                 0.8106                 1.3614
 IR Inten    --     38.3716                84.6989                84.3188

                     31                     32                     33
                      A                      A                      A
 Frequencies --    807.1065               876.0998               889.1629
 Red. masses --      2.6023                 1.2520                 4.1581
 Frc consts  --      0.9988                 0.5662                 1.9369
 IR Inten    --     31.8360                 0.2547                74.3321

                     34                     35                     36
                      A                      A                      A
 Frequencies --    914.4050               969.0720              1014.1364
 Red. masses --      2.9349                 1.4373                 1.1086
 Frc consts  --      1.4458                 0.7953                 0.6717
 IR Inten    --      6.5366                 1.3675                33.1676

                     37                     38                     39
                      A                      A                      A
 Frequencies --   1019.6080              1025.0313              1036.3731
 Red. masses --      1.3832                 5.3632                 1.3182
 Frc consts  --      0.8472                 3.3201                 0.8342
 IR Inten    --      0.2431                 3.7826                 0.2653

                     40                     41                     42
                      A                      A                      A
 Frequencies --   1060.0077              1068.3359              1079.9888
 Red. masses --      1.1864                 2.0896                 4.5402
 Frc consts  --      0.7854                 1.4051                 3.1200
 IR Inten    --    104.0689                20.8024                28.4457

                     43                     44                     45
                      A                      A                      A
 Frequencies --   1120.5342              1139.7551              1153.8775
 Red. masses --      1.6565                 2.0670                 1.6254
 Frc consts  --      1.2254                 1.5820                 1.2750
 IR Inten    --     48.8307                29.3723                14.5535

                     46                     47                     48
                      A                      A                      A
 Frequencies --   1183.3168              1188.5421              1205.1776
 Red. masses --      1.9826                 1.1369                 2.1332
 Frc consts  --      1.6357                 0.9463                 1.8255
 IR Inten    --     53.7908                 1.4636               150.6762

                     49                     50                     51
                      A                      A                      A
 Frequencies --   1220.7092              1225.3071              1279.0599
 Red. masses --      1.1928                 1.5876                 1.6086
 Frc consts  --      1.0472                 1.4044                 1.5506
 IR Inten    --      7.8460                36.6922               158.0688

                     52                     53                     54
                      A                      A                      A
 Frequencies --   1310.9480              1327.9684              1344.0802
 Red. masses --      2.3072                 3.8436                 1.3161
 Frc consts  --      2.3362                 3.9936                 1.4009
 IR Inten    --    395.8482               153.2379                 7.4107

                     55                     56                     57
                      A                      A                      A
 Frequencies --   1362.3309              1444.2997              1455.3501
 Red. masses --      1.4590                 1.1845                 1.2176
 Frc consts  --      1.5954                 1.4558                 1.5194
 IR Inten    --      6.5678                42.1341                19.7799

                     58                     59                     60
                      A                      A                      A
 Frequencies --   1478.6085              1485.3921              1498.1784
 Red. masses --      1.0661                 2.2640                 1.0419
 Frc consts  --      1.3733                 2.9431                 1.3779
 IR Inten    --     39.4492                84.0316                20.6011

                     61                     62                     63
                      A                      A                      A
 Frequencies --   1498.9269              1502.4039              1508.0151
 Red. masses --      1.1479                 1.1993                 2.0218
 Frc consts  --      1.5195                 1.5950                 2.7089
 IR Inten    --     90.7629                25.8607               378.1952

                     64                     65                     66
                      A                      A                      A
 Frequencies --   1544.7833              1559.0466              1628.2329
 Red. masses --      2.4457                 1.7514                 1.1227
 Frc consts  --      3.4386                 2.5081                 1.7537
 IR Inten    --     26.2400               442.6546               168.1179

                     67                     68                     69
                      A                      A                      A
 Frequencies --   1648.8397              1653.4584              1673.0445
 Red. masses --      5.7087                 5.4604                 5.9143
 Frc consts  --      9.1442                 8.7955                 9.7538
 IR Inten    --    125.3542               915.8561                 3.9027

                     70                     71                     72
                      A                      A                      A
 Frequencies --   3040.7054              3063.1238              3116.7156
 Red. masses --      1.0439                 1.0362                 1.0926
 Frc consts  --      5.6865                 5.7284                 6.2531
 IR Inten    --     95.2703                34.3824                40.5898

                     73                     74                     75
                      A                      A                      A
 Frequencies --   3141.5633              3157.1081              3178.7849
 Red. masses --      1.1019                 1.1041                 1.1049
 Frc consts  --      6.4073                 6.4838                 6.5778
 IR Inten    --      5.7178                23.5114                11.1086

                     76                     77                     78
                      A                      A                      A
 Frequencies --   3200.2163              3209.4153              3220.9469
 Red. masses --      1.0865                 1.0906                 1.0950
 Frc consts  --      6.5560                 6.6186                 6.6931
 IR Inten    --      0.1194                13.6208                24.9700

                     79                     80                     81
                      A                      A                      A
 Frequencies --   3228.0518              3236.7434              3239.8034
 Red. masses --      1.0909                 1.0901                 1.0931
 Frc consts  --      6.6975                 6.7287                 6.7602
 IR Inten    --      3.1148                 6.1921                 2.7518

                     82                     83                     84
                      A                      A                      A
 Frequencies --   3523.6043              3608.2698              3626.8500
 Red. masses --      1.0506                 1.0970                 1.0770
 Frc consts  --      7.6854                 8.4147                 8.3472
 IR Inten    --     40.5616                70.3425               111.7039

 - Thermochemistry -
 -------------------
 Temperature   298.150 Kelvin.  Pressure   1.00000 Atm.
 Atom     1 has atomic number  6 and mass  12.00000

 Molecular mass:   270.03677 amu.
 Principal axes and moments of inertia in atomic units:
                           1         2         3
     Eigenvalues --  2570.672955637.129146903.02860
           X            0.99996  -0.00696   0.00643
           Y            0.00710   0.99974  -0.02186
           Z           -0.00627   0.02190   0.99974
 This molecule is an asymmetric top.
 Rotational symmetry number  1.
 Warning -- assumption of classical behavior for rotation
           may cause significant error
 Rotational temperatures (Kelvin)      0.03369     0.01536     0.01255
 Rotational constants (GHZ):           0.70205     0.32015     0.26144
    1 imaginary frequencies ignored.
 Zero-point vibrational energy     650265.6 (Joules/Mol)
                                  155.41722 (Kcal/Mol)
 Warning -- explicit consideration of  23 degrees of freedom as
           vibrations may cause significant error
 Vibrational temperatures:     48.81    78.42   108.00   131.33   134.35
          (Kelvin)            183.66   212.73   225.60   237.28   262.28
                              303.49   330.33   346.05   415.88   432.09
                              452.42   512.34   609.56   657.68   758.39
                              815.74   836.44   875.42   918.37  1005.59
                             1019.52  1036.68  1041.86  1152.10  1161.25
                             1260.51  1279.31  1315.62  1394.28  1459.12
                             1466.99  1474.79  1491.11  1525.11  1537.10
                             1553.86  1612.20  1639.85  1660.17  1702.53
                             1710.05  1733.98  1756.33  1762.94  1840.28
                             1886.16  1910.65  1933.83  1960.09  2078.03
                             2093.92  2127.39  2137.15  2155.54  2156.62
                             2161.62  2169.70  2222.60  2243.12  2342.66
                             2372.31  2378.96  2407.14  4374.90  4407.15
                             4484.26  4520.01  4542.37  4573.56  4604.40
                             4617.63  4634.22  4644.45  4656.95  4661.35
                             5069.68  5191.50  5218.23

 Zero-point correction=                           0.247673 (Hartree/Particle)
 Thermal correction to Energy=                    0.263486
 Thermal correction to Enthalpy=                  0.264430
 Thermal correction to Gibbs Free Energy=         0.203313
 Sum of electronic and zero-point Energies=          -3186.892305
 Sum of electronic and thermal Energies=             -3186.876492
 Sum of electronic and thermal Enthalpies=           -3186.875548
 Sum of electronic and thermal Free Energies=        -3186.936665

                     E (Thermal)             CV                S
                      KCal/Mol        Cal/Mol-Kelvin    Cal/Mol-Kelvin
 Total                  165.340             57.496            128.633
 Electronic               0.000              0.000              0.000
 Translational            0.889              2.981             42.679
 Rotational               0.889              2.981             32.970
 Vibrational            163.563             51.535             52.984
 Vibration     1          0.594              1.983              5.586
 Vibration     2          0.596              1.976              4.647
 Vibration     3          0.599              1.966              4.016
 Vibration     4          0.602              1.955              3.632
 Vibration     5          0.602              1.954              3.588
 Vibration     6          0.611              1.926              2.981
 Vibration     7          0.617              1.905              2.700
 Vibration     8          0.620              1.895              2.588
 Vibration     9          0.623              1.886              2.493
 Vibration    10          0.630              1.864              2.305
 Vibration    11          0.643              1.824              2.036
 Vibration    12          0.652              1.796              1.882
 Vibration    13          0.658              1.778              1.799
 Vibration    14          0.686              1.694              1.480
 Vibration    15          0.693              1.673              1.415
 Vibration    16          0.702              1.646              1.339
 Vibration    17          0.732              1.563              1.139
 Vibration    18          0.786              1.419              0.880
 Vibration    19          0.815              1.345              0.775
 Vibration    20          0.882              1.190              0.594
 Vibration    21          0.923              1.103              0.510
 Vibration    22          0.938              1.072              0.483
 Vibration    23          0.967              1.014              0.435

 Optimization completed.
    -- Stationary point found.
 Normal termination of Gaussian 16 at Sun Feb  7 03:20:14 2021.
