 Gaussian 16, Revision A.03,
 Gaussian 16:  ES64L-G16RevA.03 25-Dec-2016

 ----------------------------------------------------------------------
 # wB97XD def2tzvp, opt=(ts, noeigen, calcfc, maxcycles=70, maxstep=5),
  freq=noraman, scrf=(iefpcm, solvent=water)
 ----------------------------------------------------------------------

 -----------------------
 2_iteration/TS-12-2.out
 -----------------------
 Symbolic Z-matrix:
 Charge =  0 Multiplicity = 1

 SCF Done:  E(RwB97XD) =  -864.449216378     A.U. after   15 cycles
 Optimization completed.
    -- Stationary point found.
 Normal termination of Gaussian 16 at Sun Jan 31 12:57:08 2021.

 ---------------------------------------------------------------------
 #N Geom=AllCheck Guess=TCheck SCRF=Check GenChk RwB97XD/def2TZVP Freq
 ---------------------------------------------------------------------

 Structure from the checkpoint file:  "/beegfs/scratch/user/q/tla25/Gau-94268.chk"
 -----------------------
 2_iteration/TS-12-2.out
 -----------------------
 Charge =  0 Multiplicity = 1

                         Standard orientation:
 ---------------------------------------------------------------------
 Center     Atomic      Atomic             Coordinates (Angstroms)
 Number     Number       Type             X           Y           Z
 ---------------------------------------------------------------------
      1          6           0        0.738310   -1.120889   -0.610160
      2          6           0        2.113220   -1.148499   -0.310050
      3          8           0        2.691030   -0.489789    0.563470
      4          6           0       -0.138210   -0.207959    0.044380
      5          6           0        0.002220   -1.949939    2.258610
      6          1           0       -1.035391   -2.237259    2.406780
      7          1           0        0.439979   -2.548989    1.457700
      8          1           0        0.561810   -2.123999    3.176920
      9          7           0        0.078020   -0.548219    1.867660
     10          1           0       -0.518540    0.028261    2.445960
     11          1           0        1.039780   -0.218489    1.936580
     12          6           0       -1.606400   -0.467858   -0.214470
     13          6           0       -2.499590    0.557212   -0.518150
     14          6           0       -3.837130    0.288302   -0.773760
     15          6           0       -4.312050   -1.011698   -0.725020
     16          6           0       -3.433230   -2.044528   -0.429890
     17          6           0       -2.097800   -1.775008   -0.184110
     18          1           0       -2.154910    1.579642   -0.573740
     19          1           0       -4.507080    1.103952   -1.014770
     20          1           0       -5.356020   -1.221058   -0.920640
     21          1           0       -3.787291   -3.067058   -0.394190
     22          1           0       -1.428011   -2.596108    0.028520
     23          6           0        0.241700    1.266881    0.050090
     24          6           0        1.034970    1.764891   -0.978870
     25          6           0        1.360241    3.110731   -1.049240
     26          6           0        0.891611    3.994701   -0.089830
     27          6           0        0.083131    3.518851    0.931150
     28          6           0       -0.242089    2.172991    0.993490
     29          1           0        1.399410    1.080831   -1.732850
     30          1           0        1.983211    3.467751   -1.859730
     31          1           0        1.145811    5.045741   -0.141140
     32          1           0       -0.305689    4.196811    1.680260
     33          1           0       -0.910770    1.851531    1.781130
     34          1           0        0.331460   -1.917799   -1.211510
     35          8           0        2.813550   -2.043789   -1.065690
     36          6           0        4.184819   -2.204840   -0.743930
     37          1           0        4.313939   -2.539350    0.286810
     38          1           0        4.564909   -2.963080   -1.425230
     39          1           0        4.738290   -1.275220   -0.884210
 ---------------------------------------------------------------------

 SCF Done:  E(RwB97XD) =  -864.449216378     A.U. after    1 cycles

 The electronic state is 1-A.
 Alpha  occ. eigenvalues --  -19.27116 -19.20401 -14.48886 -10.38209 -10.36013
 Alpha  occ. eigenvalues --  -10.32140 -10.31509 -10.30783 -10.30461 -10.29490
 Alpha  occ. eigenvalues --  -10.29300 -10.29292 -10.29269 -10.29214 -10.29205
 Alpha  occ. eigenvalues --  -10.29169 -10.29122 -10.29027 -10.28862 -10.23938
 Alpha  occ. eigenvalues --   -1.18154  -1.08700  -1.04532  -0.97866  -0.96592
 Alpha  occ. eigenvalues --   -0.91077  -0.85886  -0.85482  -0.85035  -0.84204
 Alpha  occ. eigenvalues --   -0.80331  -0.78889  -0.73924  -0.71183  -0.70600
 Alpha  occ. eigenvalues --   -0.69819  -0.66964  -0.64573  -0.62682  -0.62316
 Alpha  occ. eigenvalues --   -0.60127  -0.58019  -0.57207  -0.56348  -0.55507
 Alpha  occ. eigenvalues --   -0.55423  -0.54852  -0.54223  -0.53741  -0.52360
 Alpha  occ. eigenvalues --   -0.51376  -0.51083  -0.50447  -0.48819  -0.48476
 Alpha  occ. eigenvalues --   -0.47775  -0.46952  -0.46708  -0.46076  -0.44790
 Alpha  occ. eigenvalues --   -0.43878  -0.42832  -0.42343  -0.42263  -0.41653
 Alpha  occ. eigenvalues --   -0.37344  -0.35200  -0.34362  -0.33756  -0.33407
 Alpha  occ. eigenvalues --   -0.32893  -0.26855
 Alpha virt. eigenvalues --    0.01977   0.04375   0.04927   0.06011   0.09791
 Alpha virt. eigenvalues --    0.10689   0.12511   0.13373   0.13674   0.14283
 Alpha virt. eigenvalues --    0.15349   0.15818   0.16379   0.17012   0.17442

 Mulliken charges:
               1
     1  C   -0.613614
     2  C    0.448367
     3  O   -0.564505
     4  C    0.579066
     5  C   -0.330274
     6  H    0.167480
     7  H    0.158072
     8  H    0.162759
     9  N   -0.274473
    10  H    0.270090
    11  H    0.285411
    12  C    0.055132
    13  C   -0.235102
    14  C   -0.140239
    15  C   -0.150208
    16  C   -0.135940
    17  C   -0.325967
    18  H    0.169362
    19  H    0.142318
    20  H    0.144533
    21  H    0.142789
    22  H    0.180550
    23  C    0.089110
    24  C   -0.210991
    25  C   -0.163303
    26  C   -0.138100
    27  C   -0.143553
    28  C   -0.295595
    29  H    0.153976
    30  H    0.141191
    31  H    0.144486
    32  H    0.143211
    33  H    0.147800
    34  H    0.132894
    35  O   -0.321186
    36  C   -0.187839
    37  H    0.118975
    38  H    0.133951
    39  H    0.119369
 Sum of Mulliken charges =  -0.00000

 Dipole moment (field-independent basis, Debye):
    X=             -4.6619    Y=              0.0884    Z=              4.4726  Tot=              6.4611
 Quadrupole moment (field-independent basis, Debye-Ang):
   XX=           -115.8909   YY=           -104.6175   ZZ=           -110.4587
   XY=              0.9709   XZ=             -4.6956   YZ=             -4.6995

  Exact polarizability: 328.077   4.650 318.601 -15.185   1.702 245.448
 Approx polarizability: 249.739   3.474 257.078 -11.261   4.488 213.568

 ******    1 imaginary frequencies (negative Signs) ******

                      1                      2                      3
                      A                      A                      A
 Frequencies --   -354.8611                33.5460                55.7451
 Red. masses --      5.1316                 3.9028                 3.9087
 Frc consts  --      0.3807                 0.0026                 0.0072
 IR Inten    --    472.7022                 1.1278                 0.1189

                      4                      5                      6
                      A                      A                      A
 Frequencies --     58.2825                77.6508                82.2004
 Red. masses --      3.9177                 3.6971                 4.4995
 Frc consts  --      0.0078                 0.0131                 0.0179
 IR Inten    --      1.6301                 1.4586                 1.2733

                      7                      8                      9
                      A                      A                      A
 Frequencies --    107.0751               116.0304               135.3144
 Red. masses --      3.6279                 2.7702                 4.1530
 Frc consts  --      0.0245                 0.0220                 0.0448
 IR Inten    --      3.7458                 0.6392                 8.8728

                     10                     11                     12
                      A                      A                      A
 Frequencies --    158.9844               173.5983               183.1306
 Red. masses --      3.1981                 1.3461                 2.7854
 Frc consts  --      0.0476                 0.0239                 0.0550
 IR Inten    --     42.6820                 5.8104                 8.1763

                     13                     14                     15
                      A                      A                      A
 Frequencies --    226.0297               265.7959               272.1626
 Red. masses --      3.0742                 3.6465                 1.3944
 Frc consts  --      0.0925                 0.1518                 0.0609
 IR Inten    --      9.0539                 1.7444                 0.8519

                     16                     17                     18
                      A                      A                      A
 Frequencies --    276.6186               295.0290               309.8880
 Red. masses --      5.0599                 3.6404                 4.4608
 Frc consts  --      0.2281                 0.1867                 0.2524
 IR Inten    --      2.6419                 8.9293                10.2129

                     19                     20                     21
                      A                      A                      A
 Frequencies --    325.1193               359.3894               384.9963
 Red. masses --      3.0333                 5.1281                 5.1114
 Frc consts  --      0.1889                 0.3902                 0.4464
 IR Inten    --      2.7845                24.9749                42.7375

                     22                     23                     24
                      A                      A                      A
 Frequencies --    427.4582               434.2705               470.3498
 Red. masses --      2.9360                 2.9810                 3.7452
 Frc consts  --      0.3161                 0.3312                 0.4882
 IR Inten    --      0.5957                 1.3675                15.4273

                     25                     26                     27
                      A                      A                      A
 Frequencies --    522.4682               587.9505               625.8532
 Red. masses --      3.6154                 2.9225                 2.6460
 Frc consts  --      0.5815                 0.5952                 0.6106
 IR Inten    --      1.5627                75.6631                 6.0061

                     28                     29                     30
                      A                      A                      A
 Frequencies --    632.6426               639.4944               640.2239
 Red. masses --      3.2106                 4.0800                 5.1346
 Frc consts  --      0.7571                 0.9831                 1.2400
 IR Inten    --     33.4437                23.3368                 5.9094

                     31                     32                     33
                      A                      A                      A
 Frequencies --    666.1537               705.2336               724.2419
 Red. masses --      2.1412                 2.0691                 4.2348
 Frc consts  --      0.5598                 0.6063                 1.3087
 IR Inten    --    185.8810                77.2651                16.2330

                     34                     35                     36
                      A                      A                      A
 Frequencies --    729.8336               733.5340               783.5523
 Red. masses --      1.6758                 1.6537                 2.3686
 Frc consts  --      0.5259                 0.5243                 0.8568
 IR Inten    --    105.5000                55.3594                92.7481

                     37                     38                     39
                      A                      A                      A
 Frequencies --    797.6085               805.0730               822.7252
 Red. masses --      3.5188                 3.0900                 3.3954
 Frc consts  --      1.3189                 1.1800                 1.3541
 IR Inten    --     13.1252                43.5787                35.5217

                     40                     41                     42
                      A                      A                      A
 Frequencies --    881.6541               886.9785               904.3073
 Red. masses --      1.2506                 1.2444                 4.8238
 Frc consts  --      0.5728                 0.5768                 2.3242
 IR Inten    --      0.4631                 0.8171                55.6652

                     43                     44                     45
                      A                      A                      A
 Frequencies --    965.4717               975.5657              1005.1219
 Red. masses --      1.4821                 1.4299                 3.5457
 Frc consts  --      0.8140                 0.8018                 2.1106
 IR Inten    --     11.0361                 2.5500                31.5704

                     46                     47                     48
                      A                      A                      A
 Frequencies --   1016.3244              1022.8368              1025.8849
 Red. masses --      1.3327                 1.6832                 1.5243
 Frc consts  --      0.8110                 1.0376                 0.9452
 IR Inten    --     43.8701                21.4680                 2.5782

                     49                     50                     51
                      A                      A                      A
 Frequencies --   1026.7354              1027.9678              1034.7219
 Red. masses --      4.1678                 2.4335                 1.3202
 Frc consts  --      2.5886                 1.5151                 0.8328
 IR Inten    --      3.5829                22.4342                 2.2781

                     52                     53                     54
                      A                      A                      A
 Frequencies --   1039.6836              1062.0240              1069.3729
 Red. masses --      1.3184                 3.1936                 2.0578
 Frc consts  --      0.8397                 2.1223                 1.3865
 IR Inten    --      0.8878                59.6933                10.7689

                     55                     56                     57
                      A                      A                      A
 Frequencies --   1083.7419              1099.1844              1108.0629
 Red. masses --      3.2459                 3.4977                 1.3472
 Frc consts  --      2.2462                 2.4899                 0.9746
 IR Inten    --     72.7043                63.5734                62.7463

                     58                     59                     60
                      A                      A                      A
 Frequencies --   1122.6865              1127.3402              1161.6638
 Red. masses --      1.5693                 1.6358                 2.3104
 Frc consts  --      1.1654                 1.2249                 1.8369
 IR Inten    --      6.3864                16.1736                22.5047

                     61                     62                     63
                      A                      A                      A
 Frequencies --   1181.0537              1185.5114              1186.8466
 Red. masses --      1.2801                 1.1255                 1.1275
 Frc consts  --      1.0520                 0.9320                 0.9357
 IR Inten    --      1.6947                 0.7884                 0.8461

                     64                     65                     66
                      A                      A                      A
 Frequencies --   1205.1200              1215.2031              1220.1490
 Red. masses --      2.4800                 1.4744                 1.1593
 Frc consts  --      2.1221                 1.2828                 1.0169
 IR Inten    --    686.0938                36.4717                18.3800

                     67                     68                     69
                      A                      A                      A
 Frequencies --   1223.1571              1244.2715              1278.5888
 Red. masses --      1.1920                 1.3890                 3.8753
 Frc consts  --      1.0508                 1.2670                 3.7326
 IR Inten    --     17.6094                59.0794               189.7301

                     70                     71                     72
                      A                      A                      A
 Frequencies --   1299.3447              1321.3011              1343.1140
 Red. masses --      3.4161                 4.9132                 4.7638
 Frc consts  --      3.3981                 5.0538                 5.0632
 IR Inten    --      1.0826                 5.3721                 4.2996

                     73                     74                     75
                      A                      A                      A
 Frequencies --   1362.4883              1368.8883              1379.4981
 Red. masses --      1.3671                 1.4083                 1.3182
 Frc consts  --      1.4953                 1.5548                 1.4781
 IR Inten    --     17.5782                 4.2948                 3.5957

                     76                     77                     78
                      A                      A                      A
 Frequencies --   1446.0936              1455.6303              1481.3171
 Red. masses --      1.3573                 1.5057                 1.0472
 Frc consts  --      1.6723                 1.8797                 1.3538
 IR Inten    --    274.5566               224.8105                10.7742

                     79                     80                     81
                      A                      A                      A
 Frequencies --   1486.7662              1489.8456              1496.2620
 Red. masses --      1.4718                 1.9533                 1.9370
 Frc consts  --      1.9168                 2.5544                 2.5550
 IR Inten    --    237.4272               121.6028                92.8330

                     82                     83                     84
                      A                      A                      A
 Frequencies --   1502.6832              1503.6901              1508.2299
 Red. masses --      1.1767                 1.1695                 1.0478
 Frc consts  --      1.5655                 1.5579                 1.4044
 IR Inten    --    120.0333                68.7267                32.4063

                     85                     86                     87
                      A                      A                      A
 Frequencies --   1545.5311              1546.8401              1608.4256
 Red. masses --      2.2180                 2.1977                 1.4536
 Frc consts  --      3.1215                 3.0982                 2.2157
 IR Inten    --      3.9760                18.7402               408.3259

                     88                     89                     90
                      A                      A                      A
 Frequencies --   1649.9504              1650.9402              1660.3879
 Red. masses --      4.2875                 4.5276                 4.4298
 Frc consts  --      6.8770                 7.2708                 7.1953
 IR Inten    --     86.4924                76.2398               300.6298

                     91                     92                     93
                      A                      A                      A
 Frequencies --   1674.6617              1677.2184              3052.4637
 Red. masses --      5.8241                 5.8258                 1.0313
 Frc consts  --      9.6235                 9.6557                 5.6616
 IR Inten    --      1.1189                 8.5495                75.6280

                     94                     95                     96
                      A                      A                      A
 Frequencies --   3062.6246              3123.0909              3137.7042
 Red. masses --      1.0356                 1.1061                 1.1019
 Frc consts  --      5.7229                 6.3566                 6.3915
 IR Inten    --     40.4125                48.8755                 9.6246

                     97                     98                     99
                      A                      A                      A
 Frequencies --   3159.9312              3176.1251              3195.6569
 Red. masses --      1.1044                 1.1049                 1.0858
 Frc consts  --      6.4971                 6.5671                 6.5328
 IR Inten    --     33.8736                14.6427                 2.1236

                    100                    101                    102
                      A                      A                      A
 Frequencies --   3196.7529              3203.1990              3206.0751
 Red. masses --      1.0863                 1.0886                 1.0905
 Frc consts  --      6.5404                 6.5807                 6.6039
 IR Inten    --      0.0523                 5.9086                14.8098

                    103                    104                    105
                      A                      A                      A
 Frequencies --   3212.6078              3218.2472              3221.5175
 Red. masses --      1.0924                 1.0953                 1.0948
 Frc consts  --      6.6426                 6.6837                 6.6946
 IR Inten    --     38.2115                27.2488                23.3514

                    106                    107                    108
                      A                      A                      A
 Frequencies --   3226.6169              3232.8946              3234.2206
 Red. masses --      1.0965                 1.0922                 1.0943
 Frc consts  --      6.7261                 6.7259                 6.7439
 IR Inten    --      8.9402                14.3460                 2.0554

                    109                    110                    111
                      A                      A                      A
 Frequencies --   3245.2690              3465.3560              3611.1098
 Red. masses --      1.0894                 1.0601                 1.0872
 Frc consts  --      6.7598                 7.5003                 8.3529
 IR Inten    --      7.6583                70.9846                74.9842

 - Thermochemistry -
 -------------------
 Temperature   298.150 Kelvin.  Pressure   1.00000 Atm.
 Atom     1 has atomic number  6 and mass  12.00000

 Molecular mass:   269.14158 amu.
 Principal axes and moments of inertia in atomic units:
                           1         2         3
     Eigenvalues --  4519.127665939.274498603.71811
           X            0.99984  -0.01700  -0.00462
           Y            0.01695   0.99980  -0.01030
           Z            0.00479   0.01022   0.99994
 This molecule is an asymmetric top.
 Rotational symmetry number  1.
 Warning -- assumption of classical behavior for rotation
           may cause significant error
 Rotational temperatures (Kelvin)      0.01917     0.01458     0.01007
 Rotational constants (GHZ):           0.39936     0.30387     0.20976
    1 imaginary frequencies ignored.
 Zero-point vibrational energy     860552.0 (Joules/Mol)
                                  205.67686 (Kcal/Mol)
 Warning -- explicit consideration of  25 degrees of freedom as
           vibrations may cause significant error
 Vibrational temperatures:     48.27    80.20    83.86   111.72   118.27
          (Kelvin)            154.06   166.94   194.69   228.74   249.77
                              263.48   325.21   382.42   391.58   397.99
                              424.48   445.86   467.77   517.08   553.92
                              615.02   624.82   676.73   751.72   845.93
                              900.46   910.23   920.09   921.14   958.45
                             1014.67  1042.02  1050.07  1055.39  1127.36
                             1147.58  1158.32  1183.72  1268.50  1276.16
                             1301.10  1389.10  1403.62  1446.15  1462.26
                             1471.63  1476.02  1477.24  1479.02  1488.73
                             1495.87  1528.02  1538.59  1559.26  1581.48
                             1594.26  1615.30  1621.99  1671.38  1699.27
                             1705.69  1707.61  1733.90  1748.41  1755.52
                             1759.85  1790.23  1839.60  1869.47  1901.06
                             1932.44  1960.32  1969.52  1984.79  2080.61
                             2094.33  2131.28  2139.13  2143.56  2152.79
                             2162.03  2163.47  2170.01  2223.67  2225.56
                             2314.17  2373.91  2375.33  2388.93  2409.46
                             2413.14  4391.81  4406.43  4493.43  4514.46
                             4546.44  4569.74  4597.84  4599.41  4608.69
                             4612.83  4622.23  4630.34  4635.05  4642.38
                             4651.41  4653.32  4669.22  4985.87  5195.58

 Zero-point correction=                           0.327767 (Hartree/Particle)
 Thermal correction to Energy=                    0.345951
 Thermal correction to Enthalpy=                  0.346896
 Thermal correction to Gibbs Free Energy=         0.281155
 Sum of electronic and zero-point Energies=           -864.121449
 Sum of electronic and thermal Energies=              -864.103265
 Sum of electronic and thermal Enthalpies=            -864.102321
 Sum of electronic and thermal Free Energies=         -864.168062

                     E (Thermal)             CV                S
                      KCal/Mol        Cal/Mol-Kelvin    Cal/Mol-Kelvin
 Total                  217.088             70.105            138.364
 Electronic               0.000              0.000              0.000
 Translational            0.889              2.981             42.669
 Rotational               0.889              2.981             33.801
 Vibrational            215.310             64.143             61.894
 Vibration     1          0.594              1.983              5.608
 Vibration     2          0.596              1.975              4.602
 Vibration     3          0.596              1.974              4.515
 Vibration     4          0.599              1.964              3.949
 Vibration     5          0.600              1.961              3.838
 Vibration     6          0.606              1.944              3.321
 Vibration     7          0.608              1.936              3.165
 Vibration     8          0.613              1.918              2.869
 Vibration     9          0.621              1.893              2.562
 Vibration    10          0.627              1.875              2.396
 Vibration    11          0.631              1.863              2.296
 Vibration    12          0.650              1.801              1.910
 Vibration    13          0.672              1.736              1.623
 Vibration    14          0.675              1.725              1.582
 Vibration    15          0.678              1.717              1.554
 Vibration    16          0.689              1.683              1.445
 Vibration    17          0.699              1.655              1.363
 Vibration    18          0.709              1.625              1.284
 Vibration    19          0.734              1.556              1.125
 Vibration    20          0.754              1.502              1.019
 Vibration    21          0.789              1.410              0.867
 Vibration    22          0.795              1.396              0.845
 Vibration    23          0.827              1.316              0.737
 Vibration    24          0.877              1.200              0.604
 Vibration    25          0.945              1.057              0.471

 Optimization completed.
    -- Stationary point found.
 Normal termination of Gaussian 16 at Sun Jan 31 15:30:11 2021.
