 Gaussian 16, Revision C.01,
 Gaussian 16:  ES64L-G16RevC.01  3-Jul-2019

 ----------------------------------------------------------------------
 # opt=(calcfc,ts,noeigen,maxcycles=100,maxstep=10) freq=noraman wb97xd
  scrf=(iefpcm,solvent=water) def2tzvp
 ----------------------------------------------------------------------

 ---------
 TS-15.out
 ---------
 Symbolic Z-matrix:
 Charge =  0 Multiplicity = 1

 SCF Done:  E(RwB97XD) =  -1036.31753685     A.U. after   14 cycles
 SCF Done:  E(RwB97XD) =  -1036.31753683     A.U. after    6 cycles
 Optimization completed.
    -- Stationary point found.
 Normal termination of Gaussian 16 at Mon Jun  6 14:07:45 2022.

 ---------------------------------------------------------------------
 #N Geom=AllCheck Guess=TCheck SCRF=Check GenChk RwB97XD/def2TZVP Freq
 ---------------------------------------------------------------------

 Structure from the checkpoint file:  "/local/jobs/107529/Gau-963034.chk"
 ---------
 TS-15.out
 ---------
 Charge =  0 Multiplicity = 1

                         Standard orientation:
 ---------------------------------------------------------------------
 Center     Atomic      Atomic             Coordinates (Angstroms)
 Number     Number       Type             X           Y           Z
 ---------------------------------------------------------------------
      1          6           0       -0.493682   -1.427240   -0.446577
      2          6           0        0.914886   -1.614364   -0.499095
      3          8           0        1.431478   -2.633460   -0.991053
      4          6           0       -1.256367   -0.390120    0.177660
      5          6           0       -1.867257   -2.057901    2.196216
      6          1           0       -1.705700   -2.319933    3.239375
      7          1           0       -2.932462   -2.048804    1.978859
      8          1           0       -1.365910   -2.777811    1.552449
      9          7           0       -1.309290   -0.730171    1.918876
     10          1           0       -1.815935   -0.024560    2.444956
     11          1           0       -0.337487   -0.702248    2.213132
     12          6           0       -2.749850   -0.363413   -0.144547
     13          6           0       -3.333536   -1.228623   -1.061934
     14          6           0       -4.695808   -1.173081   -1.325790
     15          6           0       -5.499708   -0.249671   -0.678745
     16          6           0       -4.927151    0.630731    0.228653
     17          6           0       -3.568100    0.576185    0.483873
     18          1           0       -2.729084   -1.946638   -1.595580
     19          1           0       -5.125399   -1.857383   -2.046376
     20          1           0       -6.561452   -0.208036   -0.885230
     21          1           0       -5.537851    1.368169    0.733606
     22          1           0       -3.141809    1.293770    1.175129
     23          6           0       -0.696483    1.028912    0.085032
     24          6           0       -0.317612    1.834878    1.152932
     25          6           0        0.205542    3.106113    0.936000
     26          6           0        0.347279    3.595374   -0.348700
     27          6           0       -0.043694    2.805467   -1.423630
     28          6           0       -0.557728    1.541504   -1.207084
     29          1           0       -0.391923    1.501657    2.178139
     30          1           0        0.504543    3.706449    1.785377
     31          1           0        0.758780    4.582193   -0.515866
     32          1           0        0.059280    3.174889   -2.435866
     33          1           0       -0.845538    0.922775   -2.047160
     34          1           0       -1.022567   -2.310464   -0.768984
     35          7           0        1.740751   -0.619025    0.033419
     36          6           0        3.127244   -0.502163   -0.032142
     37          6           0        4.000900   -1.581170   -0.187314
     38          6           0        5.371617   -1.364665   -0.201841
     39          6           0        5.903004   -0.092007   -0.054721
     40          6           0        5.036282    0.981057    0.108216
     41          6           0        3.667709    0.781367    0.115334
     42          1           0        1.283400    0.247873    0.256730
     43          1           0        3.597237   -2.574105   -0.299410
     44          1           0        6.033297   -2.213741   -0.325331
     45          1           0        6.974104    0.062674   -0.065278
     46          1           0        5.426933    1.984529    0.224852
     47          1           0        2.998573    1.627794    0.234059
 ---------------------------------------------------------------------

 SCF Done:  E(RwB97XD) =  -1036.31753683     A.U. after    1 cycles

 The electronic state is 1-A.
 Alpha  occ. eigenvalues --  -19.18451 -14.51503 -14.44731 -10.36858 -10.36733
 Alpha  occ. eigenvalues --  -10.33159 -10.32335 -10.31659 -10.31071 -10.30384
 Alpha  occ. eigenvalues --  -10.29880 -10.29765 -10.29677 -10.29671 -10.29625
 Alpha  occ. eigenvalues --  -10.29482 -10.29449 -10.29390 -10.29334 -10.28735
 Alpha  occ. eigenvalues --  -10.28580 -10.28366 -10.27880 -10.27723 -10.23623
 Alpha  occ. eigenvalues --   -1.11212  -1.07024  -1.02503  -0.98489  -0.97097
 Alpha  occ. eigenvalues --   -0.94837  -0.91399  -0.86309  -0.85845  -0.85702
 Alpha  occ. eigenvalues --   -0.84761  -0.84670  -0.82017  -0.80248  -0.75694
 Alpha  occ. eigenvalues --   -0.72039  -0.71362  -0.71103  -0.70495  -0.69886
 Alpha  occ. eigenvalues --   -0.67205  -0.65731  -0.64436  -0.63057  -0.61745
 Alpha  occ. eigenvalues --   -0.61248  -0.58613  -0.58012  -0.57286  -0.56712
 Alpha  occ. eigenvalues --   -0.55390  -0.54552  -0.53637  -0.53194  -0.52907
 Alpha  occ. eigenvalues --   -0.52011  -0.51633  -0.51554  -0.51306  -0.50739
 Alpha  occ. eigenvalues --   -0.50333  -0.49206  -0.48593  -0.47739  -0.46976
 Alpha  occ. eigenvalues --   -0.46599  -0.45996  -0.45342  -0.44347  -0.44067
 Alpha  occ. eigenvalues --   -0.43368  -0.43053  -0.42327  -0.41695  -0.38457
 Alpha  occ. eigenvalues --   -0.35217  -0.34837  -0.34338  -0.33566  -0.32993
 Alpha  occ. eigenvalues --   -0.32333  -0.29611  -0.25719
 Alpha virt. eigenvalues --    0.02660   0.03835   0.04193   0.05295   0.05696
 Alpha virt. eigenvalues --    0.06193   0.09297   0.11232   0.12724   0.13022
 Alpha virt. eigenvalues --    0.13179   0.13548   0.14263   0.15030   0.15489

 Mulliken charges:
               1
     1  C   -0.611540
     2  C    0.314857
     3  O   -0.574115
     4  C    0.552160
     5  C   -0.307856
     6  H    0.168096
     7  H    0.168543
     8  H    0.164741
     9  N   -0.213914
    10  H    0.286095
    11  H    0.292779
    12  C   -0.041398
    13  C   -0.150188
    14  C   -0.145013
    15  C   -0.132118
    16  C   -0.168633
    17  C   -0.279523
    18  H    0.141112
    19  H    0.143645
    20  H    0.146167
    21  H    0.144467
    22  H    0.175606
    23  C   -0.055143
    24  C   -0.100582
    25  C   -0.193834
    26  C   -0.106188
    27  C   -0.144265
    28  C   -0.233553
    29  H    0.142716
    30  H    0.146377
    31  H    0.147814
    32  H    0.145914
    33  H    0.147480
    34  H    0.106906
    35  N   -0.225814
    36  C    0.256933
    37  C   -0.306808
    38  C   -0.101569
    39  C   -0.194289
    40  C   -0.137581
    41  C   -0.278635
    42  H    0.186690
    43  H    0.141938
    44  H    0.138162
    45  H    0.137290
    46  H    0.136914
    47  H    0.169154
 Sum of Mulliken charges =  -0.00000

 Dipole moment (field-independent basis, Debye):
    X=             -8.4361    Y=              6.5597    Z=              8.5710  Tot=             13.6988
 Quadrupole moment (field-independent basis, Debye-Ang):
   XX=           -140.1452   YY=           -149.2705   ZZ=           -134.2883
   XY=             15.7598   XZ=             -2.4839   YZ=             -7.9940

  Exact polarizability:     470.992      11.321     384.238      -2.757      35.126     311.263
 Approx polarizability:     340.413       6.274     318.823      -0.114      32.069     273.763

 ******    1 imaginary frequencies (negative Signs) ******

                      1                      2                      3
                      A                      A                      A
 Frequencies --   -308.9727                13.6907                21.2554
 Red. masses --      5.3916                 5.1111                 3.9264
 Frc consts  --      0.3033                 0.0006                 0.0010
 IR Inten    --    802.4200                 1.4927                 0.4836

                      4                      5                      6
                      A                      A                      A
 Frequencies --     35.4079                37.3236                52.0510
 Red. masses --      3.8737                 4.4425                 4.2518
 Frc consts  --      0.0029                 0.0036                 0.0068
 IR Inten    --      1.8809                 1.9161                 0.3053

                      7                      8                      9
                      A                      A                      A
 Frequencies --     63.1272                71.3842                78.0815
 Red. masses --      4.8508                 5.0706                 7.0676
 Frc consts  --      0.0114                 0.0152                 0.0254
 IR Inten    --      0.6911                 0.9932                 7.5080

                     10                     11                     12
                      A                      A                      A
 Frequencies --     96.6912               122.6113               147.4504
 Red. masses --      3.0098                 5.0792                 1.6117
 Frc consts  --      0.0166                 0.0450                 0.0206
 IR Inten    --      2.6904                 9.7981                 9.4983

                     13                     14                     15
                      A                      A                      A
 Frequencies --    181.8683               195.0250               228.2129
 Red. masses --      4.3557                 3.7141                 1.9498
 Frc consts  --      0.0849                 0.0832                 0.0598
 IR Inten    --      4.2028                14.7836                 3.6871

                     16                     17                     18
                      A                      A                      A
 Frequencies --    245.6690               264.1599               279.7748
 Red. masses --      4.5692                 4.0298                 2.6379
 Frc consts  --      0.1625                 0.1657                 0.1217
 IR Inten    --      1.1007                 1.3138                14.3605

                     19                     20                     21
                      A                      A                      A
 Frequencies --    302.4970               340.9198               349.4927
 Red. masses --      4.4810                 5.1684                 5.5081
 Frc consts  --      0.2416                 0.3539                 0.3964
 IR Inten    --      6.2399                41.0997                 2.3423

                     22                     23                     24
                      A                      A                      A
 Frequencies --    353.8984               382.9526               415.5670
 Red. masses --      4.0158                 5.1529                 2.8224
 Frc consts  --      0.2963                 0.4452                 0.2872
 IR Inten    --     16.5317                 5.0558                 0.1955

                     25                     26                     27
                      A                      A                      A
 Frequencies --    420.5769               425.7666               495.4587
 Red. masses --      2.8892                 2.9720                 3.3196
 Frc consts  --      0.3011                 0.3174                 0.4801
 IR Inten    --      0.8435                 0.3167                 3.5083

                     28                     29                     30
                      A                      A                      A
 Frequencies --    502.3703               525.2227               533.1022
 Red. masses --      6.1754                 2.5306                 3.6594
 Frc consts  --      0.9183                 0.4113                 0.6127
 IR Inten    --     18.6855                39.9056                 9.5865

                     31                     32                     33
                      A                      A                      A
 Frequencies --    556.2276               609.4786               632.9964
 Red. masses --      1.3331                 3.8453                 4.3647
 Frc consts  --      0.2430                 0.8416                 1.0304
 IR Inten    --     56.9789               167.2112                22.5867

                     34                     35                     36
                      A                      A                      A
 Frequencies --    635.1587               638.9051               641.5708
 Red. masses --      5.8651                 6.2386                 3.7695
 Frc consts  --      1.3941                 1.5004                 0.9142
 IR Inten    --      0.6531                 1.2581                30.1864

                     37                     38                     39
                      A                      A                      A
 Frequencies --    661.4689               674.9919               716.6903
 Red. masses --      3.1091                 1.6541                 3.4143
 Frc consts  --      0.8015                 0.4440                 1.0333
 IR Inten    --    111.4669                93.7348                 6.6653

                     40                     41                     42
                      A                      A                      A
 Frequencies --    718.3786               724.3314               726.3103
 Red. masses --      2.0466                 1.6018                 1.7885
 Frc consts  --      0.6223                 0.4952                 0.5559
 IR Inten    --     76.5740                77.8391               105.8148

                     43                     44                     45
                      A                      A                      A
 Frequencies --    738.9866               775.9926               783.1058
 Red. masses --      2.0791                 3.6367                 2.1352
 Frc consts  --      0.6689                 1.2903                 0.7715
 IR Inten    --     58.6619                 7.8660               138.3137

                     46                     47                     48
                      A                      A                      A
 Frequencies --    789.9142               803.4163               842.1871
 Red. masses --      2.2198                 2.3233                 2.7858
 Frc consts  --      0.8161                 0.8836                 1.1642
 IR Inten    --      3.8665               145.5606                33.6424

                     49                     50                     51
                      A                      A                      A
 Frequencies --    858.7196               872.4226               876.5251
 Red. masses --      1.2614                 1.2812                 1.5448
 Frc consts  --      0.5480                 0.5746                 0.6993
 IR Inten    --      0.9320                 1.0336                 3.3454

                     52                     53                     54
                      A                      A                      A
 Frequencies --    879.3021               926.9255               934.8221
 Red. masses --      2.6700                 1.5503                 1.8358
 Frc consts  --      1.2163                 0.7848                 0.9452
 IR Inten    --      1.9208                13.2092                37.5012

                     55                     56                     57
                      A                      A                      A
 Frequencies --    964.4995               973.9258               991.3349
 Red. masses --      1.5190                 2.3419                 4.1296
 Frc consts  --      0.8326                 1.3088                 2.3911
 IR Inten    --      8.7511                12.7381                46.4542

                     58                     59                     60
                      A                      A                      A
 Frequencies --    998.0124              1011.2641              1015.0472
 Red. masses --      1.3475                 1.2796                 1.3782
 Frc consts  --      0.7908                 0.7710                 0.8367
 IR Inten    --      0.3722                 0.9355                 2.6925

                     61                     62                     63
                      A                      A                      A
 Frequencies --   1016.9778              1019.4224              1024.5422
 Red. masses --      1.3924                 5.7270                 5.8285
 Frc consts  --      0.8484                 3.5066                 3.6047
 IR Inten    --      0.3893                21.2568                 3.8165

                     64                     65                     66
                      A                      A                      A
 Frequencies --   1027.5271              1034.0352              1036.6977
 Red. masses --      5.3236                 1.3349                 1.3260
 Frc consts  --      3.3116                 0.8410                 0.8396
 IR Inten    --      8.4942                 1.4149                 0.0183

                     67                     68                     69
                      A                      A                      A
 Frequencies --   1053.9912              1059.5759              1062.1657
 Red. masses --      1.6412                 1.9036                 1.8803
 Frc consts  --      1.0742                 1.2592                 1.2498
 IR Inten    --     43.2506                14.3837                25.6750

                     70                     71                     72
                      A                      A                      A
 Frequencies --   1070.3714              1072.8381              1098.0968
 Red. masses --      2.9487                 1.8762                 1.3921
 Frc consts  --      1.9904                 1.2723                 0.9890
 IR Inten    --     25.9476                 5.2260                74.8393

                     73                     74                     75
                      A                      A                      A
 Frequencies --   1115.2020              1120.2013              1125.2720
 Red. masses --      1.5336                 1.6857                 1.5402
 Frc consts  --      1.1238                 1.2463                 1.1491
 IR Inten    --      5.8422                47.6638                16.4813

                     76                     77                     78
                      A                      A                      A
 Frequencies --   1154.5195              1180.0119              1186.7130
 Red. masses --      2.3375                 1.1200                 1.1355
 Frc consts  --      1.8357                 0.9188                 0.9422
 IR Inten    --     28.4075                 4.1868                 2.2160

                     79                     80                     81
                      A                      A                      A
 Frequencies --   1187.9167              1204.3428              1218.0360
 Red. masses --      1.1241                 1.1417                 1.1326
 Frc consts  --      0.9346                 0.9756                 0.9901
 IR Inten    --      0.8646                23.8453                 3.7295

                     82                     83                     84
                      A                      A                      A
 Frequencies --   1222.7591              1230.4281              1272.4747
 Red. masses --      1.1825                 3.0564                 2.3336
 Frc consts  --      1.0417                 2.7263                 2.2263
 IR Inten    --      0.3571                 9.8931               663.9071

                     85                     86                     87
                      A                      A                      A
 Frequencies --   1282.5110              1295.3996              1309.3250
 Red. masses --      2.4248                 1.9042                 2.4469
 Frc consts  --      2.3499                 1.8827                 2.4715
 IR Inten    --     62.6767                84.3830               234.8480

                     88                     89                     90
                      A                      A                      A
 Frequencies --   1326.1322              1337.9534              1349.7795
 Red. masses --      4.1916                 3.5458                 3.0454
 Frc consts  --      4.3431                 3.7398                 3.2691
 IR Inten    --     10.2043               273.5107               301.1504

                     91                     92                     93
                      A                      A                      A
 Frequencies --   1360.1256              1363.9902              1364.9114
 Red. masses --      2.0159                 1.5032                 1.3407
 Frc consts  --      2.1972                 1.6477                 1.4716
 IR Inten    --     48.0262                20.9162                28.8403

                     94                     95                     96
                      A                      A                      A
 Frequencies --   1374.9813              1427.9535              1459.6755
 Red. masses --      1.3410                 2.6469                 1.2023
 Frc consts  --      1.4938                 3.1799                 1.5093
 IR Inten    --     39.0600               476.2047                14.2291

                     97                     98                     99
                      A                      A                      A
 Frequencies --   1472.0402              1488.7198              1494.0102
 Red. masses --      2.0477                 2.1901                 1.9767
 Frc consts  --      2.6143                 2.8598                 2.5995
 IR Inten    --    185.3743                15.9275                56.8188

                    100                    101                    102
                      A                      A                      A
 Frequencies --   1495.2204              1505.9653              1540.3377
 Red. masses --      1.1223                 1.0340                 2.2408
 Frc consts  --      1.4783                 1.3816                 3.1325
 IR Inten    --      7.3217                 7.9433                92.7878

                    103                    104                    105
                      A                      A                      A
 Frequencies --   1542.5741              1547.7281              1557.2061
 Red. masses --      2.5306                 2.2096                 2.1875
 Frc consts  --      3.5479                 3.1186                 3.1253
 IR Inten    --    270.2967                21.4436               152.3342

                    106                    107                    108
                      A                      A                      A
 Frequencies --   1637.1707              1640.5973              1655.2915
 Red. masses --      4.0246                 1.6003                 4.0516
 Frc consts  --      6.3556                 2.5378                 6.5407
 IR Inten    --   1133.6587                97.9392                11.7846

                    109                    110                    111
                      A                      A                      A
 Frequencies --   1656.4043              1663.8074              1673.5922
 Red. masses --      2.9630                 3.4186                 5.7044
 Frc consts  --      4.7897                 5.5758                 9.4137
 IR Inten    --      1.8441               347.6384                46.4605

                    112                    113                    114
                      A                      A                      A
 Frequencies --   1673.6932              1676.8385              3086.9531
 Red. masses --      5.7914                 5.7836                 1.0320
 Frc consts  --      9.5584                 9.5815                 5.7944
 IR Inten    --    168.6985                11.1847                32.1824

                    115                    116                    117
                      A                      A                      A
 Frequencies --   3172.4891              3175.4353              3185.0962
 Red. masses --      1.0897                 1.1059                 1.1065
 Frc consts  --      6.4617                 6.5703                 6.6137
 IR Inten    --      9.6149                 3.1424                 6.7545

                    118                    119                    120
                      A                      A                      A
 Frequencies --   3190.5428              3193.1873              3200.9192
 Red. masses --      1.0877                 1.0874                 1.0879
 Frc consts  --      6.5233                 6.5328                 6.5671
 IR Inten    --      7.4759                 4.0719                 0.8444

                    121                    122                    123
                      A                      A                      A
 Frequencies --   3201.1515              3201.9350              3208.6930
 Red. masses --      1.0863                 1.0925                 1.0887
 Frc consts  --      6.5585                 6.5994                 6.6043
 IR Inten    --      0.9102                30.1287                 2.2317

                    124                    125                    126
                      A                      A                      A
 Frequencies --   3210.9207              3217.1669              3219.0546
 Red. masses --      1.0927                 1.0926                 1.0976
 Frc consts  --      6.6378                 6.6630                 6.7010
 IR Inten    --     25.2776                14.0020                29.1452

                    127                    128                    129
                      A                      A                      A
 Frequencies --   3222.5974              3224.0777              3227.2821
 Red. masses --      1.0967                 1.0953                 1.0901
 Frc consts  --      6.7104                 6.7079                 6.6895
 IR Inten    --     24.8909                28.6630                 5.5024

                    130                    131                    132
                      A                      A                      A
 Frequencies --   3231.7512              3246.9724              3265.4995
 Red. masses --      1.0967                 1.0894                 1.0924
 Frc consts  --      6.7483                 6.7668                 6.8635
 IR Inten    --     10.5637                13.0511                 2.9287

                    133                    134                    135
                      A                      A                      A
 Frequencies --   3497.9501              3580.3762              3636.3803
 Red. masses --      1.0509                 1.0963                 1.0754
 Frc consts  --      7.5756                 8.2801                 8.3787
 IR Inten    --     24.3143                60.2397               236.1489

 - Thermochemistry -
 -------------------
 Temperature   298.150 Kelvin.  Pressure   1.00000 Atm.
 Atom     1 has atomic number  6 and mass  12.00000

 Molecular mass:   330.17321 amu.
 Principal axes and moments of inertia in atomic units:
                           1         2         3
     Eigenvalues --  4293.80852********************
           X            0.99997   0.00779  -0.00172
           Y           -0.00780   0.99992  -0.00965
           Z            0.00164   0.00967   0.99995
 This molecule is an asymmetric top.
 Rotational symmetry number  1.
 Warning -- assumption of classical behavior for rotation
           may cause significant error
 Rotational temperatures (Kelvin)      0.02017     0.00674     0.00578
 Rotational constants (GHZ):           0.42031     0.14036     0.12038
    1 imaginary frequencies ignored.
 Zero-point vibrational energy    1033089.1 (Joules/Mol)
                                  246.91422 (Kcal/Mol)
 Warning -- explicit consideration of  31 degrees of freedom as
           vibrations may cause significant error
 Vibrational temperatures:     19.70    30.58    50.94    53.70    74.89
          (Kelvin)             90.83   102.71   112.34   139.12   176.41
                              212.15   261.67   280.60   328.35   353.46
                              380.07   402.53   435.23   490.51   502.84
                              509.18   550.98   597.91   605.12   612.58
                              712.85   722.80   755.68   767.02   800.29
                              876.90   910.74   913.85   919.24   923.08
                              951.71   971.16  1031.16  1033.59  1042.15
                             1045.00  1063.24  1116.48  1126.71  1136.51
                             1155.94  1211.72  1235.51  1255.22  1261.12
                             1265.12  1333.64  1345.00  1387.70  1401.26
                             1426.31  1435.92  1454.98  1460.43  1463.20
                             1466.72  1474.09  1478.38  1487.75  1491.58
                             1516.46  1524.49  1528.22  1540.03  1543.57
                             1579.92  1604.53  1611.72  1619.02  1661.10
                             1697.77  1707.42  1709.15  1732.78  1752.48
                             1759.28  1770.31  1830.81  1845.25  1863.79
                             1883.83  1908.01  1925.02  1942.03  1956.92
                             1962.48  1963.80  1978.29  2054.51  2100.15
                             2117.94  2141.94  2149.55  2151.29  2166.75
                             2216.20  2219.42  2226.84  2240.47  2355.52
                             2360.45  2381.60  2383.20  2393.85  2407.93
                             2408.07  2412.60  4441.44  4564.50  4568.74
                             4582.64  4590.48  4594.28  4605.41  4605.74
                             4606.87  4616.59  4619.80  4628.79  4631.50
                             4636.60  4638.73  4643.34  4649.77  4671.67
                             4698.33  5032.77  5151.36  5231.94

 Zero-point correction=                           0.393483 (Hartree/Particle)
 Thermal correction to Energy=                    0.415169
 Thermal correction to Enthalpy=                  0.416113
 Thermal correction to Gibbs Free Energy=         0.339617
 Sum of electronic and zero-point Energies=          -1035.924054
 Sum of electronic and thermal Energies=             -1035.902368
 Sum of electronic and thermal Enthalpies=           -1035.901423
 Sum of electronic and thermal Free Energies=        -1035.977920

                     E (Thermal)             CV                S
                      KCal/Mol        Cal/Mol-Kelvin    Cal/Mol-Kelvin
 Total                  260.523             84.693            161.000
 Electronic               0.000              0.000              0.000
 Translational            0.889              2.981             43.278
 Rotational               0.889              2.981             35.069
 Vibrational            258.745             78.732             82.652
 Vibration     1          0.593              1.986              7.387
 Vibration     2          0.593              1.985              6.513
 Vibration     3          0.594              1.982              5.501
 Vibration     4          0.594              1.982              5.396
 Vibration     5          0.596              1.977              4.738
 Vibration     6          0.597              1.972              4.357
 Vibration     7          0.598              1.968              4.115
 Vibration     8          0.599              1.964              3.939
 Vibration     9          0.603              1.952              3.520
 Vibration    10          0.610              1.930              3.059
 Vibration    11          0.617              1.905              2.705
 Vibration    12          0.630              1.864              2.309
 Vibration    13          0.636              1.847              2.180
 Vibration    14          0.651              1.798              1.893
 Vibration    15          0.660              1.770              1.761
 Vibration    16          0.671              1.739              1.634
 Vibration    17          0.680              1.711              1.535
 Vibration    18          0.694              1.669              1.403
 Vibration    19          0.720              1.594              1.208
 Vibration    20          0.727              1.576              1.168
 Vibration    21          0.730              1.567              1.149
 Vibration    22          0.752              1.507              1.027
 Vibration    23          0.779              1.436              0.907
 Vibration    24          0.783              1.426              0.890
 Vibration    25          0.788              1.414              0.873
 Vibration    26          0.851              1.260              0.670
 Vibration    27          0.858              1.245              0.652
 Vibration    28          0.880              1.194              0.598
 Vibration    29          0.888              1.177              0.580
 Vibration    30          0.912              1.126              0.531
 Vibration    31          0.968              1.012              0.434

 Optimization completed.
    -- Stationary point found.
 Normal termination of Gaussian 16 at Mon Jun  6 17:06:41 2022.
