 Gaussian 16, Revision A.03,
 Gaussian 16:  ES64L-G16RevA.03 25-Dec-2016

 ----------------------------------------------------------------------
 # wB97XD def2tzvp, opt=(ts, noeigen, calcfc, maxcycles=70, maxstep=3),
  freq=noraman, scrf=(iefpcm, solvent=water)
 ----------------------------------------------------------------------

 -----------------------
 0_iteration/TS-10-0.out
 -----------------------
 Symbolic Z-matrix:
 Charge =  0 Multiplicity = 1

 SCF Done:  E(RwB97XD) =  -789.205165035     A.U. after   15 cycles
 Optimization completed.
    -- Stationary point found.
 Normal termination of Gaussian 16 at Sat Apr 10 10:11:57 2021.

 ---------------------------------------------------------------------
 #N Geom=AllCheck Guess=TCheck SCRF=Check GenChk RwB97XD/def2TZVP Freq
 ---------------------------------------------------------------------

 Structure from the checkpoint file:  "/beegfs/scratch/user/q/tla25/Gau-169790.chk"
 -----------------------
 0_iteration/TS-10-0.out
 -----------------------
 Charge =  0 Multiplicity = 1

                         Standard orientation:
 ---------------------------------------------------------------------
 Center     Atomic      Atomic             Coordinates (Angstroms)
 Number     Number       Type             X           Y           Z
 ---------------------------------------------------------------------
      1          6           0       -0.223219    1.613791   -0.661403
      2          6           0       -1.442718    2.307372   -0.756003
      3          8           0       -1.577127    3.312773   -1.490803
      4          6           0        0.084000    0.430091    0.089297
      5          6           0        0.948782    2.122800    2.075997
      6          1           0        0.630273    2.839800    1.319197
      7          1           0        0.719072    2.506000    3.067897
      8          1           0        2.017782    1.950208    1.992897
      9          7           0        0.231690    0.868490    1.840297
     10          1           0        0.671099    0.108900    2.349797
     11          1           0       -0.723710    0.952382    2.171997
     12          6           0        1.481399   -0.124091   -0.164203
     13          6           0        1.728518   -1.495391   -0.163803
     14          6           0        3.005917   -1.994383   -0.377803
     15          6           0        4.067808   -1.131574   -0.590203
     16          6           0        3.839100    0.237026   -0.587803
     17          6           0        2.563290    0.732918   -0.378603
     18          1           0        0.918117   -2.192900   -0.005403
     19          1           0        3.165326   -3.065183   -0.379203
     20          1           0        5.064418   -1.519465   -0.757403
     21          1           0        4.658090    0.926135   -0.750303
     22          1           0        2.417381    1.803718   -0.382403
     23          6           0       -0.975691   -0.666718    0.105897
     24          6           0       -1.330792   -1.427418    1.216497
     25          6           0       -2.272074   -2.443627    1.117497
     26          6           0       -2.863274   -2.735936   -0.099503
     27          6           0       -2.500783   -2.002336   -1.220103
     28          6           0       -1.571292   -0.982027   -1.115003
     29          1           0       -0.887592   -1.262218    2.187997
     30          1           0       -2.535674   -3.009436    2.001797
     31          1           0       -3.595965   -3.528945   -0.176003
     32          1           0       -2.946983   -2.221036   -2.181903
     33          1           0       -1.299301   -0.408318   -1.990403
     34          1           0        0.585582    2.076900   -1.208803
     35          6           0       -2.677418    1.898264    0.033997
     36          1           0       -2.498609    1.199664    0.848497
     37          1           0       -3.140527    2.801164    0.432497
     38          1           0       -3.392909    1.428455   -0.644903
 ---------------------------------------------------------------------

 SCF Done:  E(RwB97XD) =  -789.205165035     A.U. after    1 cycles

 The electronic state is 1-A.
 Alpha  occ. eigenvalues --  -19.18019 -14.51011 -10.36576 -10.33394 -10.32095
 Alpha  occ. eigenvalues --  -10.31018 -10.30986 -10.29815 -10.29481 -10.29443
 Alpha  occ. eigenvalues --  -10.29373 -10.29348 -10.29341 -10.29294 -10.29280
 Alpha  occ. eigenvalues --  -10.29249 -10.29118 -10.26556 -10.23557  -1.08393
 Alpha  occ. eigenvalues --   -1.06422  -0.98153  -0.96812  -0.91258  -0.86019
 Alpha  occ. eigenvalues --   -0.85670  -0.85335  -0.83622  -0.80552  -0.79973
 Alpha  occ. eigenvalues --   -0.74314  -0.71348  -0.70799  -0.70075  -0.66994
 Alpha  occ. eigenvalues --   -0.65320  -0.62790  -0.61127  -0.59660  -0.57928
 Alpha  occ. eigenvalues --   -0.56770  -0.55596  -0.55022  -0.54239  -0.53671
 Alpha  occ. eigenvalues --   -0.52785  -0.51594  -0.51337  -0.50829  -0.50300
 Alpha  occ. eigenvalues --   -0.49484  -0.48828  -0.47965  -0.47150  -0.46208
 Alpha  occ. eigenvalues --   -0.45163  -0.44246  -0.43834  -0.42996  -0.42627
 Alpha  occ. eigenvalues --   -0.41342  -0.41078  -0.34660  -0.34077  -0.33909
 Alpha  occ. eigenvalues --   -0.33396  -0.30543  -0.26430
 Alpha virt. eigenvalues --    0.02310   0.04045   0.04634   0.05705   0.08993
 Alpha virt. eigenvalues --    0.09751   0.12500   0.13037   0.13231   0.13777
 Alpha virt. eigenvalues --    0.14705   0.15976   0.16479   0.16828   0.17515

 Mulliken charges:
               1
     1  C   -0.467523
     2  C    0.219962
     3  O   -0.579231
     4  C    0.509013
     5  C   -0.321485
     6  H    0.167112
     7  H    0.168268
     8  H    0.170409
     9  N   -0.237067
    10  H    0.298124
    11  H    0.284765
    12  C    0.018743
    13  C   -0.232568
    14  C   -0.147812
    15  C   -0.148365
    16  C   -0.135899
    17  C   -0.320070
    18  H    0.170097
    19  H    0.143013
    20  H    0.145190
    21  H    0.144023
    22  H    0.180449
    23  C    0.020645
    24  C   -0.183443
    25  C   -0.151834
    26  C   -0.123239
    27  C   -0.146254
    28  C   -0.264901
    29  H    0.129279
    30  H    0.144587
    31  H    0.145910
    32  H    0.142832
    33  H    0.154751
    34  H    0.095659
    35  C   -0.345532
    36  H    0.090594
    37  H    0.130932
    38  H    0.130866
 Sum of Mulliken charges =   0.00000

 Dipole moment (field-independent basis, Debye):
    X=              4.1247    Y=             -7.3129    Z=              9.9662  Tot=             13.0313
 Quadrupole moment (field-independent basis, Debye-Ang):
   XX=           -105.7638   YY=           -131.7205   ZZ=           -105.9932
   XY=             18.1179   XZ=             -5.1452   YZ=             19.5681

  Exact polarizability: 320.139   2.196 309.903   9.542 -21.649 253.172
 Approx polarizability: 243.240   6.829 249.539   5.780 -17.438 219.423

 ******    1 imaginary frequencies (negative Signs) ******

                      1                      2                      3
                      A                      A                      A
 Frequencies --   -307.3258                23.6753                56.4318
 Red. masses --      5.4767                 3.1765                 3.0089
 Frc consts  --      0.3048                 0.0010                 0.0056
 IR Inten    --    672.2163                 2.3330                 0.7268

                      4                      5                      6
                      A                      A                      A
 Frequencies --     66.0730                78.6851                88.0927
 Red. masses --      4.8380                 2.6753                 4.3850
 Frc consts  --      0.0124                 0.0098                 0.0200
 IR Inten    --      1.7134                 5.5290                 2.3392

                      7                      8                      9
                      A                      A                      A
 Frequencies --     94.5888                96.0333               145.2267
 Red. masses --      3.3253                 3.0996                 1.7992
 Frc consts  --      0.0175                 0.0168                 0.0224
 IR Inten    --      4.1168                 7.2795                 5.4817

                     10                     11                     12
                      A                      A                      A
 Frequencies --    152.3724               196.9931               223.7481
 Red. masses --      1.7802                 3.0611                 1.3932
 Frc consts  --      0.0244                 0.0700                 0.0411
 IR Inten    --     10.8114                 3.4504                 1.7072

                     13                     14                     15
                      A                      A                      A
 Frequencies --    267.9694               274.3717               277.2334
 Red. masses --      3.4135                 3.8973                 3.8769
 Frc consts  --      0.1444                 0.1729                 0.1756
 IR Inten    --      3.7109                 2.6690                 2.0734

                     16                     17                     18
                      A                      A                      A
 Frequencies --    309.3224               319.0193               351.6704
 Red. masses --      4.4542                 3.5798                 4.8943
 Frc consts  --      0.2511                 0.2147                 0.3566
 IR Inten    --      3.1888                13.5552                35.9967

                     19                     20                     21
                      A                      A                      A
 Frequencies --    382.8308               422.4590               428.3371
 Red. masses --      4.6858                 2.8636                 2.9143
 Frc consts  --      0.4046                 0.3011                 0.3150
 IR Inten    --     12.0038                 0.3086                 0.6757

                     22                     23                     24
                      A                      A                      A
 Frequencies --    492.7389               520.5881               527.3016
 Red. masses --      3.5873                 3.4959                 3.5102
 Frc consts  --      0.5132                 0.5582                 0.5750
 IR Inten    --     30.7388                18.9293                 5.0043

                     25                     26                     27
                      A                      A                      A
 Frequencies --    583.4082               609.5829               636.2639
 Red. masses --      1.8500                 3.5086                 5.6915
 Frc consts  --      0.3710                 0.7682                 1.3575
 IR Inten    --     31.3459               115.4948                 5.1187

                     28                     29                     30
                      A                      A                      A
 Frequencies --    638.9546               646.8231               659.6537
 Red. masses --      6.1814                 4.7512                 3.3488
 Frc consts  --      1.4869                 1.1712                 0.8586
 IR Inten    --      0.7076                46.2896                35.1748

                     31                     32                     33
                      A                      A                      A
 Frequencies --    722.3752               728.5139               729.6098
 Red. masses --      2.0192                 1.5313                 1.6176
 Frc consts  --      0.6208                 0.4788                 0.5073
 IR Inten    --     86.8959                34.6352                65.9904

                     34                     35                     36
                      A                      A                      A
 Frequencies --    747.1771               780.5024               791.8231
 Red. masses --      1.5267                 2.6109                 2.3512
 Frc consts  --      0.5022                 0.9371                 0.8685
 IR Inten    --    120.4665               101.1945                53.5341

                     37                     38                     39
                      A                      A                      A
 Frequencies --    822.7433               871.8999               876.6250
 Red. masses --      2.6225                 2.8871                 1.2627
 Frc consts  --      1.0459                 1.2931                 0.5717
 IR Inten    --     20.2627                16.4958                 1.7409

                     40                     41                     42
                      A                      A                      A
 Frequencies --    883.6206               930.5841               971.3151
 Red. masses --      1.3251                 2.1732                 1.5645
 Frc consts  --      0.6096                 1.1088                 0.8697
 IR Inten    --      2.2942                13.6676                 3.1886

                     43                     44                     45
                      A                      A                      A
 Frequencies --    974.0046              1016.4214              1022.7877
 Red. masses --      1.6539                 1.3745                 1.3868
 Frc consts  --      0.9245                 0.8366                 0.8547
 IR Inten    --      2.4991                 0.7636                 2.6988

                     46                     47                     48
                      A                      A                      A
 Frequencies --   1025.1924              1025.5828              1028.6495
 Red. masses --      5.6554                 3.6772                 1.7821
 Frc consts  --      3.5021                 2.2788                 1.1110
 IR Inten    --      3.9671                22.2389                35.2531

                     49                     50                     51
                      A                      A                      A
 Frequencies --   1034.8289              1036.8884              1043.9654
 Red. masses --      1.3333                 1.3214                 1.7588
 Frc consts  --      0.8412                 0.8371                 1.1294
 IR Inten    --      1.7707                 0.8631                25.4155

                     52                     53                     54
                      A                      A                      A
 Frequencies --   1051.6638              1062.4803              1069.3995
 Red. masses --      1.2658                 2.5483                 2.0896
 Frc consts  --      0.8249                 1.6949                 1.4080
 IR Inten    --     35.2627                20.0786                25.2357

                     55                     56                     57
                      A                      A                      A
 Frequencies --   1074.7118              1087.3157              1119.6771
 Red. masses --      3.4865                 1.2268                 1.7134
 Frc consts  --      2.3726                 0.8546                 1.2656
 IR Inten    --     45.7930                71.4041                40.2570

                     58                     59                     60
                      A                      A                      A
 Frequencies --   1125.4690              1153.6088              1185.4573
 Red. masses --      1.5674                 2.3954                 1.1250
 Frc consts  --      1.1698                 1.8782                 0.9315
 IR Inten    --     11.9393                40.8350                 0.3867

                     61                     62                     63
                      A                      A                      A
 Frequencies --   1187.6771              1222.5384              1224.1584
 Red. masses --      1.1273                 1.1653                 1.1555
 Frc consts  --      0.9369                 1.0261                 1.0202
 IR Inten    --      0.1611                 5.2566                 1.5265

                     64                     65                     66
                      A                      A                      A
 Frequencies --   1232.7839              1266.5224              1289.4079
 Red. masses --      2.8680                 1.4795                 3.1754
 Frc consts  --      2.5681                 1.3982                 3.1105
 IR Inten    --     65.8451                50.8351                66.3829

                     67                     68                     69
                      A                      A                      A
 Frequencies --   1319.8054              1328.7320              1344.0069
 Red. masses --      4.6943                 1.8213                 4.6386
 Frc consts  --      4.8177                 1.8946                 4.9367
 IR Inten    --      4.1482               193.9306                45.0475

                     70                     71                     72
                      A                      A                      A
 Frequencies --   1360.8157              1368.9423              1374.3615
 Red. masses --      1.3160                 1.3707                 1.4027
 Frc consts  --      1.4358                 1.5135                 1.5610
 IR Inten    --      2.8179                 8.3017                12.9421

                     73                     74                     75
                      A                      A                      A
 Frequencies --   1390.7203              1441.2171              1451.1539
 Red. masses --      1.3000                 2.0613                 1.2633
 Frc consts  --      1.4814                 2.5226                 1.5674
 IR Inten    --     50.8147               446.5142                81.0404

                     76                     77                     78
                      A                      A                      A
 Frequencies --   1471.3754              1485.3065              1489.7833
 Red. masses --      1.1580                 1.3027                 2.1940
 Frc consts  --      1.4771                 1.6932                 2.8690
 IR Inten    --     32.8331                52.4950                33.5151

                     79                     80                     81
                      A                      A                      A
 Frequencies --   1494.6625              1496.2839              1504.5139
 Red. masses --      1.6818                 1.2598                 1.0449
 Frc consts  --      2.2137                 1.6617                 1.3935
 IR Inten    --     53.4443                15.6253                26.9421

                     82                     83                     84
                      A                      A                      A
 Frequencies --   1543.9204              1545.0689              1579.1650
 Red. masses --      2.2372                 2.1981                 5.8577
 Frc consts  --      3.1420                 3.0917                 8.6067
 IR Inten    --     22.9872                35.5659              1443.2812

                     85                     86                     87
                      A                      A                      A
 Frequencies --   1646.5800              1652.1096              1660.7351
 Red. masses --      2.1673                 5.5495                 1.6391
 Frc consts  --      3.4620                 8.9244                 2.6636
 IR Inten    --     34.4831                 3.5437                32.5388

                     88                     89                     90
                      A                      A                      A
 Frequencies --   1673.7121              1676.8846              3061.1029
 Red. masses --      5.7385                 5.2094                 1.0393
 Frc consts  --      9.4712                 8.6307                 5.7378
 IR Inten    --      3.6571                 1.2796                23.1800

                     91                     92                     93
                      A                      A                      A
 Frequencies --   3077.6187              3130.7359              3160.7099
 Red. masses --      1.0344                 1.0985                 1.1034
 Frc consts  --      5.7728                 6.3436                 6.4945
 IR Inten    --     34.4718                23.6972                 2.0061

                     94                     95                     96
                      A                      A                      A
 Frequencies --   3162.5643              3188.1546              3197.9894
 Red. masses --      1.1005                 1.1056                 1.0862
 Frc consts  --      6.4853                 6.6213                 6.5453
 IR Inten    --     50.0797                 9.8351                 0.3943

                     97                     98                     99
                      A                      A                      A
 Frequencies --   3198.6744              3205.8759              3207.5672
 Red. masses --      1.0862                 1.0888                 1.0897
 Frc consts  --      6.5477                 6.5932                 6.6057
 IR Inten    --      0.5832                26.7305                 8.5972

                    100                    101                    102
                      A                      A                      A
 Frequencies --   3208.7060              3218.5876              3219.0603
 Red. masses --      1.0885                 1.0935                 1.0943
 Frc consts  --      6.6032                 6.6742                 6.6811
 IR Inten    --      4.3405                24.8735                19.6643

                    103                    104                    105
                      A                      A                      A
 Frequencies --   3226.0821              3229.0981              3233.9857
 Red. masses --      1.0954                 1.0936                 1.0932
 Frc consts  --      6.7169                 6.7187                 6.7367
 IR Inten    --     20.3602                15.9556                12.8505

                    106                    107                    108
                      A                      A                      A
 Frequencies --   3235.3290              3508.2429              3590.9459
 Red. masses --      1.0934                 1.0509                 1.0964
 Frc consts  --      6.7434                 7.6203                 8.3302
 IR Inten    --     14.8985                32.6575                62.8462

 - Thermochemistry -
 -------------------
 Temperature   298.150 Kelvin.  Pressure   1.00000 Atm.
 Atom     1 has atomic number  6 and mass  12.00000

 Molecular mass:   253.14666 amu.
 Principal axes and moments of inertia in atomic units:
                           1         2         3
     Eigenvalues --  3875.550545311.015387244.37125
           X            0.99974   0.02292  -0.00158
           Y           -0.02287   0.99937   0.02727
           Z            0.00221  -0.02722   0.99963
 This molecule is an asymmetric top.
 Rotational symmetry number  1.
 Warning -- assumption of classical behavior for rotation
           may cause significant error
 Rotational temperatures (Kelvin)      0.02235     0.01631     0.01196
 Rotational constants (GHZ):           0.46567     0.33981     0.24912
    1 imaginary frequencies ignored.
 Zero-point vibrational energy     846652.9 (Joules/Mol)
                                  202.35491 (Kcal/Mol)
 Warning -- explicit consideration of  25 degrees of freedom as
           vibrations may cause significant error
 Vibrational temperatures:     34.06    81.19    95.06   113.21   126.75
          (Kelvin)            136.09   138.17   208.95   219.23   283.43
                              321.92   385.55   394.76   398.88   445.05
                              459.00   505.98   550.81   607.82   616.28
                              708.94   749.01   758.67   839.39   877.05
                              915.44   919.31   930.63   949.09  1039.34
                             1048.17  1049.75  1075.02  1122.97  1139.26
                             1183.74  1254.47  1261.27  1271.33  1338.90
                             1397.51  1401.38  1462.40  1471.56  1475.02
                             1475.58  1480.00  1488.89  1491.85  1502.03
                             1513.11  1528.67  1538.63  1546.27  1564.40
                             1610.97  1619.30  1659.79  1705.61  1708.80
                             1758.96  1761.29  1773.70  1822.24  1855.17
                             1898.91  1911.75  1933.73  1957.91  1969.60
                             1977.40  2000.94  2073.59  2087.89  2116.98
                             2137.02  2143.47  2150.49  2152.82  2164.66
                             2221.36  2223.01  2272.07  2369.06  2377.02
                             2389.43  2408.10  2412.66  4404.24  4428.01
                             4504.43  4547.56  4550.22  4587.04  4601.19
                             4602.18  4612.54  4614.97  4616.61  4630.83
                             4631.51  4641.61  4645.95  4652.98  4654.92
                             5047.58  5166.57

 Zero-point correction=                           0.322473 (Hartree/Particle)
 Thermal correction to Energy=                    0.339814
 Thermal correction to Enthalpy=                  0.340758
 Thermal correction to Gibbs Free Energy=         0.276574
 Sum of electronic and zero-point Energies=           -788.882692
 Sum of electronic and thermal Energies=              -788.865351
 Sum of electronic and thermal Enthalpies=            -788.864407
 Sum of electronic and thermal Free Energies=         -788.928591

                     E (Thermal)             CV                S
                      KCal/Mol        Cal/Mol-Kelvin    Cal/Mol-Kelvin
 Total                  213.236             67.230            135.087
 Electronic               0.000              0.000              0.000
 Translational            0.889              2.981             42.487
 Rotational               0.889              2.981             33.366
 Vibrational            211.459             61.268             59.234
 Vibration     1          0.593              1.985              6.299
 Vibration     2          0.596              1.975              4.578
 Vibration     3          0.597              1.970              4.267
 Vibration     4          0.600              1.963              3.923
 Vibration     5          0.601              1.958              3.702
 Vibration     6          0.603              1.953              3.563
 Vibration     7          0.603              1.952              3.533
 Vibration     8          0.617              1.908              2.734
 Vibration     9          0.619              1.900              2.642
 Vibration    10          0.636              1.844              2.161
 Vibration    11          0.649              1.805              1.929
 Vibration    12          0.673              1.732              1.609
 Vibration    13          0.677              1.721              1.569
 Vibration    14          0.678              1.716              1.551
 Vibration    15          0.699              1.656              1.366
 Vibration    16          0.705              1.637              1.315
 Vibration    17          0.728              1.572              1.159
 Vibration    18          0.752              1.507              1.028
 Vibration    19          0.785              1.421              0.884
 Vibration    20          0.790              1.409              0.864
 Vibration    21          0.848              1.266              0.677
 Vibration    22          0.876              1.204              0.609
 Vibration    23          0.882              1.190              0.593
 Vibration    24          0.940              1.067              0.479
 Vibration    25          0.969              1.012              0.433

 Optimization completed.
    -- Stationary point found.
 Normal termination of Gaussian 16 at Sat Apr 10 11:15:19 2021.
