 Gaussian 16, Revision A.03,
 Gaussian 16:  ES64L-G16RevA.03 25-Dec-2016

 ----------------------------------------------------------------------
 # wB97XD def2tzvp, opt=(ts, noeigen, calcfc, maxcycles=70, maxstep=3),
  freq=noraman, scrf=(iefpcm, solvent=water)
 ----------------------------------------------------------------------

 ------------------------
 0_iteration/TS-166-0.out
 ------------------------
 Symbolic Z-matrix:
 Charge =  0 Multiplicity = 1

 SCF Done:  E(RwB97XD) =  -1343.49574121     A.U. after   16 cycles
 Optimization completed.
    -- Stationary point found.
 Normal termination of Gaussian 16 at Mon Apr 12 23:03:50 2021.

 ---------------------------------------------------------------------
 #N Geom=AllCheck Guess=TCheck SCRF=Check GenChk RwB97XD/def2TZVP Freq
 ---------------------------------------------------------------------

 Structure from the checkpoint file:  "/beegfs/scratch/user/q/tla25/Gau-118669.chk"
 ------------------------
 0_iteration/TS-166-0.out
 ------------------------
 Charge =  0 Multiplicity = 1

                         Standard orientation:
 ---------------------------------------------------------------------
 Center     Atomic      Atomic             Coordinates (Angstroms)
 Number     Number       Type             X           Y           Z
 ---------------------------------------------------------------------
      1          6           0       -0.691200   -0.301020   -0.089504
      2          6           0       -2.000590   -0.942929    0.068496
      3          8           0       -2.144481   -2.014529    0.690396
      4          6           0        0.442010   -1.114110   -0.133604
      5          6           0        0.466410   -1.516010    2.700296
      6          1           0        0.057719   -2.149610    3.488296
      7          1           0        1.470810   -1.205700    2.976296
      8          1           0       -0.173500   -0.637210    2.595496
      9          7           0        0.481319   -2.216610    1.426296
     10          1           0        1.221229   -2.903600    1.352496
     11          1           0       -0.436881   -2.630820    1.254996
     12          6           0        1.825800   -0.532391   -0.155404
     13          6           0        2.193090    0.385009    0.831696
     14          6           0        3.455190    0.950019    0.844896
     15          6           0        4.380190    0.619429   -0.135904
     16          6           0        4.026200   -0.283971   -1.123504
     17          6           0        2.763010   -0.859281   -1.129704
     18          1           0        1.478490    0.683700    1.583496
     19          1           0        3.713380    1.658329    1.621696
     20          1           0        5.366790    1.064938   -0.129304
     21          1           0        4.734200   -0.549271   -1.898304
     22          1           0        2.508310   -1.561591   -1.909204
     23         17           0        0.302719   -2.577610   -1.241204
     24          6           0       -0.600710    1.178580   -0.014904
     25          6           0        0.110281    1.930990   -0.953504
     26          6           0        0.177771    3.312090   -0.869604
     27          6           0       -0.487139    3.986280    0.145896
     28          6           0       -1.217829    3.258880    1.074696
     29          6           0       -1.267019    1.875380    0.995796
     30          1           0        0.615480    1.420500   -1.764204
     31          1           0        0.742161    3.866500   -1.609704
     32          1           0       -0.441149    5.066180    0.208696
     33          1           0       -1.744239    3.769470    1.871896
     34          1           0       -1.831020    1.319471    1.736096
     35          7           0       -3.100400   -0.327539   -0.445704
     36          6           0       -3.067910    0.618361   -1.540904
     37          6           0       -4.416500   -0.788149   -0.061204
     38          1           0       -2.100210    0.596871   -2.033004
     39          1           0       -3.829410    0.336751   -2.271504
     40          1           0       -3.268920    1.639861   -1.204904
     41          1           0       -4.379790   -1.229649    0.930796
     42          1           0       -5.100500    0.062241   -0.050904
     43          1           0       -4.806090   -1.535659   -0.760204
 ---------------------------------------------------------------------

 SCF Done:  E(RwB97XD) =  -1343.49574121     A.U. after    1 cycles

 The electronic state is 1-A.
 Alpha  occ. eigenvalues -- -101.68450 -19.20411 -14.47563 -14.45422 -10.40115
 Alpha  occ. eigenvalues --  -10.37670 -10.31347 -10.31216 -10.30511 -10.30277
 Alpha  occ. eigenvalues --  -10.29737 -10.29484 -10.29394 -10.29356 -10.29237
 Alpha  occ. eigenvalues --  -10.29221 -10.28522 -10.28470 -10.28285 -10.28101
 Alpha  occ. eigenvalues --  -10.28030 -10.26409  -9.57075  -7.31671  -7.30874
 Alpha  occ. eigenvalues --   -7.30849  -1.13041  -1.03866  -1.02680  -0.98194
 Alpha  occ. eigenvalues --   -0.96124  -0.94720  -0.88746  -0.86266  -0.85449
 Alpha  occ. eigenvalues --   -0.84436  -0.82135  -0.81170  -0.79120  -0.78136
 Alpha  occ. eigenvalues --   -0.73224  -0.70837  -0.69794  -0.69360  -0.66636
 Alpha  occ. eigenvalues --   -0.64047  -0.62146  -0.61557  -0.60006  -0.57791
 Alpha  occ. eigenvalues --   -0.57302  -0.56342  -0.55901  -0.55314  -0.54849
 Alpha  occ. eigenvalues --   -0.54510  -0.53202  -0.52345  -0.52023  -0.51257
 Alpha  occ. eigenvalues --   -0.50265  -0.49587  -0.48548  -0.48361  -0.48279
 Alpha  occ. eigenvalues --   -0.47666  -0.47370  -0.46786  -0.45740  -0.45078
 Alpha  occ. eigenvalues --   -0.44808  -0.43454  -0.42789  -0.42536  -0.42057
 Alpha  occ. eigenvalues --   -0.39168  -0.38486  -0.35509  -0.34273  -0.33865
 Alpha  occ. eigenvalues --   -0.33168  -0.32344  -0.31648  -0.25994
 Alpha virt. eigenvalues --    0.01892   0.04497   0.05229   0.06307   0.07794
 Alpha virt. eigenvalues --    0.08753   0.10889   0.12452   0.13090   0.13609
 Alpha virt. eigenvalues --    0.13961   0.14860   0.15694   0.16172   0.16913

 Mulliken charges:
               1
     1  C   -0.331120
     2  C    0.299010
     3  O   -0.579025
     4  C    0.268342
     5  C   -0.326980
     6  H    0.158920
     7  H    0.161383
     8  H    0.150991
     9  N   -0.268852
    10  H    0.274223
    11  H    0.275845
    12  C    0.109714
    13  C   -0.272294
    14  C   -0.173091
    15  C   -0.140329
    16  C   -0.133335
    17  C   -0.250199
    18  H    0.195954
    19  H    0.142455
    20  H    0.144899
    21  H    0.143403
    22  H    0.138342
    23  Cl  -0.169078
    24  C    0.211462
    25  C   -0.169417
    26  C   -0.192734
    27  C   -0.118696
    28  C   -0.183106
    29  C   -0.229202
    30  H    0.148884
    31  H    0.134229
    32  H    0.138744
    33  H    0.134775
    34  H    0.146134
    35  N   -0.091089
    36  C   -0.297697
    37  C   -0.299360
    38  H    0.155665
    39  H    0.147645
    40  H    0.133322
    41  H    0.138728
    42  H    0.139093
    43  H    0.133442
 Sum of Mulliken charges =  -0.00000

 Dipole moment (field-independent basis, Debye):
    X=              2.5837    Y=              1.5291    Z=              2.4745  Tot=              3.8906
 Quadrupole moment (field-independent basis, Debye-Ang):
   XX=           -123.5052   YY=           -138.0674   ZZ=           -127.0637
   XY=             -7.8422   XZ=              2.9007   YZ=             -4.3080

  Exact polarizability: 371.349   1.752 368.431 -19.492   9.917 306.155
 Approx polarizability: 281.529   4.991 293.437 -20.359  10.537 264.264

 ******    1 imaginary frequencies (negative Signs) ******

                      1                      2                      3
                      A                      A                      A
 Frequencies --   -391.2150                38.9716                42.8961
 Red. masses --      6.0932                 4.8565                 5.0597
 Frc consts  --      0.5494                 0.0043                 0.0055
 IR Inten    --    681.0589                 0.4460                 2.0321

                      4                      5                      6
                      A                      A                      A
 Frequencies --     59.1431                68.4213                74.4409
 Red. masses --      4.3145                 3.7227                 3.3809
 Frc consts  --      0.0089                 0.0103                 0.0110
 IR Inten    --      5.4079                 0.7393                 1.4693

                      7                      8                      9
                      A                      A                      A
 Frequencies --     86.7162                94.0396               112.1467
 Red. masses --      3.5448                 3.2394                 3.3770
 Frc consts  --      0.0157                 0.0169                 0.0250
 IR Inten    --      0.2374                 1.6169                 1.3140

                     10                     11                     12
                      A                      A                      A
 Frequencies --    133.3231               151.3457               174.9966
 Red. masses --      1.3531                 5.6739                 2.2797
 Frc consts  --      0.0142                 0.0766                 0.0411
 IR Inten    --      0.7062                 4.9897                 2.9091

                     13                     14                     15
                      A                      A                      A
 Frequencies --    187.2459               196.8364               198.3007
 Red. masses --      6.5352                 1.3584                 2.3639
 Frc consts  --      0.1350                 0.0310                 0.0548
 IR Inten    --      4.7466                 3.6762                30.9041

                     16                     17                     18
                      A                      A                      A
 Frequencies --    228.8264               249.5257               260.8418
 Red. masses --      3.1415                 4.4537                 2.1026
 Frc consts  --      0.0969                 0.1634                 0.0843
 IR Inten    --      8.2090                12.1650                 6.4508

                     19                     20                     21
                      A                      A                      A
 Frequencies --    267.0076               273.4020               286.3635
 Red. masses --      2.7285                 3.3400                 2.6264
 Frc consts  --      0.1146                 0.1471                 0.1269
 IR Inten    --      2.3821                 4.5782                 1.8885

                     22                     23                     24
                      A                      A                      A
 Frequencies --    314.8938               330.8461               352.4300
 Red. masses --      2.9968                 3.9397                 7.0842
 Frc consts  --      0.1751                 0.2541                 0.5184
 IR Inten    --     41.0688                12.2023                27.6817

                     25                     26                     27
                      A                      A                      A
 Frequencies --    380.1200               419.7654               427.2963
 Red. masses --      4.8094                 3.3741                 2.9030
 Frc consts  --      0.4094                 0.3503                 0.3123
 IR Inten    --     59.9681                28.0647                 2.0135

                     28                     29                     30
                      A                      A                      A
 Frequencies --    433.6252               482.4764               499.8792
 Red. masses --      2.9838                 3.4965                 5.0634
 Frc consts  --      0.3306                 0.4796                 0.7455
 IR Inten    --      2.1197                16.6532                30.6849

                     31                     32                     33
                      A                      A                      A
 Frequencies --    533.3730               581.8294               617.8663
 Red. masses --      3.6952                 4.6181                 3.5681
 Frc consts  --      0.6194                 0.9211                 0.8026
 IR Inten    --     36.4895               104.3923                15.5778

                     34                     35                     36
                      A                      A                      A
 Frequencies --    633.6679               638.3039               654.9079
 Red. masses --      5.7684                 6.3643                 4.1864
 Frc consts  --      1.3647                 1.5278                 1.0579
 IR Inten    --     19.8384                 1.7696                94.0701

                     37                     38                     39
                      A                      A                      A
 Frequencies --    688.2070               714.8226               727.7487
 Red. masses --      3.3784                 2.8470                 1.5429
 Frc consts  --      0.9427                 0.8571                 0.4814
 IR Inten    --     35.2529                67.1240                73.4376

                     40                     41                     42
                      A                      A                      A
 Frequencies --    731.5939               765.7328               785.9815
 Red. masses --      1.6611                 2.6441                 6.1910
 Frc consts  --      0.5238                 0.9135                 2.2534
 IR Inten    --     97.8642               165.1497               100.6685

                     43                     44                     45
                      A                      A                      A
 Frequencies --    802.5636               826.3043               847.6238
 Red. masses --      2.2806                 3.0453                 6.0271
 Frc consts  --      0.8655                 1.2251                 2.5513
 IR Inten    --     14.8713               120.9097                48.7561

                     46                     47                     48
                      A                      A                      A
 Frequencies --    875.6008               884.3392               950.7442
 Red. masses --      1.2551                 1.2517                 1.4918
 Frc consts  --      0.5669                 0.5768                 0.7945
 IR Inten    --      2.7395                 1.2019                 3.8997

                     49                     50                     51
                      A                      A                      A
 Frequencies --    971.5753               974.1713              1010.8178
 Red. masses --      3.0916                 1.5313                 1.2487
 Frc consts  --      1.7194                 0.8562                 0.7517
 IR Inten    --     13.6046                 4.2618                27.8261

                     52                     53                     54
                      A                      A                      A
 Frequencies --   1011.5503              1022.3392              1023.2698
 Red. masses --      1.2376                 1.3320                 1.4637
 Frc consts  --      0.7461                 0.8202                 0.9030
 IR Inten    --     36.1661                 0.6934                 0.2820

                     55                     56                     57
                      A                      A                      A
 Frequencies --   1024.4266              1027.3063              1040.1919
 Red. masses --      5.1411                 4.3576                 1.4800
 Frc consts  --      3.1788                 2.7095                 0.9435
 IR Inten    --      1.5814                 1.0010                10.1788

                     58                     59                     60
                      A                      A                      A
 Frequencies --   1044.3103              1067.5654              1070.2041
 Red. masses --      2.5342                 2.2176                 1.9186
 Frc consts  --      1.6284                 1.4891                 1.2947
 IR Inten    --     37.0525                 9.2531                54.8271

                     61                     62                     63
                      A                      A                      A
 Frequencies --   1091.2374              1092.5652              1110.5524
 Red. masses --      3.4539                 1.5411                 1.2345
 Frc consts  --      2.4232                 1.0838                 0.8971
 IR Inten    --     38.8296                32.4822                76.0295

                     64                     65                     66
                      A                      A                      A
 Frequencies --   1111.8020              1127.2717              1133.2268
 Red. masses --      1.5684                 1.5746                 1.2311
 Frc consts  --      1.1422                 1.1789                 0.9315
 IR Inten    --      3.7364                 3.0789                 0.9648

                     67                     68                     69
                      A                      A                      A
 Frequencies --   1166.4207              1174.4915              1180.6652
 Red. masses --      1.5324                 2.2912                 1.1288
 Frc consts  --      1.2284                 1.8621                 0.9271
 IR Inten    --     14.7455                62.0552                 1.6240

                     70                     71                     72
                      A                      A                      A
 Frequencies --   1187.0782              1210.9462              1216.2803
 Red. masses --      1.1237                 1.1253                 1.7097
 Frc consts  --      0.9329                 0.9722                 1.4902
 IR Inten    --      0.0804                 2.3976               208.6276

                     73                     74                     75
                      A                      A                      A
 Frequencies --   1223.1058              1228.6919              1299.7280
 Red. masses --      1.1585                 2.2554                 4.3459
 Frc consts  --      1.0211                 2.0062                 4.3255
 IR Inten    --     18.5635               178.4948                54.8260

                     76                     77                     78
                      A                      A                      A
 Frequencies --   1311.7447              1321.5831              1327.2962
 Red. masses --      5.0656                 4.5460                 5.3806
 Frc consts  --      5.1355                 4.6781                 5.5849
 IR Inten    --     11.8059                15.2556               132.8366

                     79                     80                     81
                      A                      A                      A
 Frequencies --   1360.4020              1368.1755              1371.4302
 Red. masses --      1.4946                 1.4344                 1.3004
 Frc consts  --      1.6297                 1.5820                 1.4411
 IR Inten    --     10.2193                 7.2278                22.9746

                     82                     83                     84
                      A                      A                      A
 Frequencies --   1417.5922              1436.8424              1449.0579
 Red. masses --      2.9420                 2.0096                 1.2052
 Frc consts  --      3.4833                 2.4445                 1.4910
 IR Inten    --   1052.3573                29.4431                18.2942

                     85                     86                     87
                      A                      A                      A
 Frequencies --   1457.5223              1476.7207              1485.1607
 Red. masses --      1.3576                 1.1769                 1.1069
 Frc consts  --      1.6992                 1.5121                 1.4385
 IR Inten    --     28.6412                47.3609                 5.4570

                     88                     89                     90
                      A                      A                      A
 Frequencies --   1488.8046              1491.6769              1492.9514
 Red. masses --      1.7857                 1.4089                 1.7543
 Frc consts  --      2.3321                 1.8471                 2.3039
 IR Inten    --      2.6606                53.0258                63.2048

                     91                     92                     93
                      A                      A                      A
 Frequencies --   1499.5629              1501.9510              1506.7245
 Red. masses --      1.0492                 1.0517                 1.0447
 Frc consts  --      1.3901                 1.3978                 1.3974
 IR Inten    --     25.4512                15.0356                 1.3835

                     94                     95                     96
                      A                      A                      A
 Frequencies --   1532.0350              1540.7161              1547.9357
 Red. masses --      1.5875                 2.3106                 2.2959
 Frc consts  --      2.1954                 3.2317                 3.2412
 IR Inten    --    221.1769               101.6540                25.3143

                     97                     98                     99
                      A                      A                      A
 Frequencies --   1583.0734              1629.3912              1641.3566
 Red. masses --      1.6422                 2.1847                 5.3968
 Frc consts  --      2.4248                 3.4174                 8.5663
 IR Inten    --    636.0610               313.4073                29.4253

                    100                    101                    102
                      A                      A                      A
 Frequencies --   1652.1805              1668.7029              1676.1565
 Red. masses --      5.7122                 5.8730                 5.8691
 Frc consts  --      9.1869                 9.6354                 9.7152
 IR Inten    --     20.0616                28.0168                 0.1679

                    103                    104                    105
                      A                      A                      A
 Frequencies --   3030.0574              3037.6205              3058.8431
 Red. masses --      1.0437                 1.0412                 1.0349
 Frc consts  --      5.6456                 5.6605                 5.7051
 IR Inten    --     90.1009               119.1544                41.9909

                    106                    107                    108
                      A                      A                      A
 Frequencies --   3093.6326              3101.6105              3127.1718
 Red. masses --      1.0999                 1.0982                 1.1037
 Frc consts  --      6.2022                 6.2247                 6.3591
 IR Inten    --     80.2598                17.6160                14.2729

                    109                    110                    111
                      A                      A                      A
 Frequencies --   3172.1868              3172.9489              3179.0015
 Red. masses --      1.0994                 1.1035                 1.0974
 Frc consts  --      6.5179                 6.5456                 6.5343
 IR Inten    --     12.3419                19.9130                13.2559

                    112                    113                    114
                      A                      A                      A
 Frequencies --   3183.5121              3188.8420              3198.5947
 Red. masses --      1.0867                 1.0871                 1.0865
 Frc consts  --      6.4891                 6.5131                 6.5492
 IR Inten    --     13.1828                 1.0983                 0.2295

                    115                    116                    117
                      A                      A                      A
 Frequencies --   3199.5478              3205.5924              3208.3650
 Red. masses --      1.0912                 1.0947                 1.0911
 Frc consts  --      6.5817                 6.6279                 6.6171
 IR Inten    --     15.1156                47.4923                17.3324

                    118                    119                    120
                      A                      A                      A
 Frequencies --   3217.8497              3220.7445              3245.7903
 Red. masses --      1.0986                 1.0967                 1.0920
 Frc consts  --      6.7022                 6.7026                 6.7783
 IR Inten    --     22.9491                26.1576                 5.0523

                    121                    122                    123
                      A                      A                      A
 Frequencies --   3251.0005              3392.4939              3594.3051
 Red. masses --      1.0923                 1.0637                 1.0865
 Frc consts  --      6.8016                 7.2131                 8.2699
 IR Inten    --      4.8806               213.0125               112.2800

 - Thermochemistry -
 -------------------
 Temperature   298.150 Kelvin.  Pressure   1.00000 Atm.
 Atom     1 has atomic number  6 and mass  12.00000

 Molecular mass:   316.13424 amu.
 Principal axes and moments of inertia in atomic units:
                           1         2         3
     Eigenvalues --  5299.514167062.445549712.51368
           X            0.99998   0.00001   0.00583
           Y            0.00013   0.99973  -0.02338
           Z           -0.00583   0.02338   0.99971
 This molecule is an asymmetric top.
 Rotational symmetry number  1.
 Warning -- assumption of classical behavior for rotation
           may cause significant error
 Rotational temperatures (Kelvin)      0.01634     0.01226     0.00892
 Rotational constants (GHZ):           0.34055     0.25554     0.18582
    1 imaginary frequencies ignored.
 Zero-point vibrational energy     940537.5 (Joules/Mol)
                                  224.79385 (Kcal/Mol)
 Warning -- explicit consideration of  32 degrees of freedom as
           vibrations may cause significant error
 Vibrational temperatures:     56.07    61.72    85.09    98.44   107.10
          (Kelvin)            124.77   135.30   161.35   191.82   217.75
                              251.78   269.41   283.20   285.31   329.23
                              359.01   375.29   384.16   393.36   412.01
                              453.06   476.01   507.07   546.91   603.95
                              614.78   623.89   694.18   719.21   767.40
                              837.12   888.97   911.71   918.38   942.27
                              990.18  1028.47  1047.07  1052.60  1101.72
                             1130.85  1154.71  1188.87  1219.54  1259.79
                             1272.37  1367.91  1397.88  1401.62  1454.34
                             1455.40  1470.92  1472.26  1473.92  1478.06
                             1496.60  1502.53  1535.99  1539.79  1570.05
                             1571.96  1597.84  1599.64  1621.89  1630.46
                             1678.22  1689.83  1698.71  1707.94  1742.28
                             1749.96  1759.78  1767.81  1870.02  1887.31
                             1901.46  1909.68  1957.32  1968.50  1973.18
                             2039.60  2067.30  2084.87  2097.05  2124.67
                             2136.82  2142.06  2146.19  2148.02  2157.54
                             2160.97  2167.84  2204.26  2216.75  2227.13
                             2277.69  2344.33  2361.55  2377.12  2400.89
                             2411.62  4359.58  4370.46  4400.99  4451.05
                             4462.53  4499.30  4564.07  4565.17  4573.87
                             4580.36  4588.03  4602.06  4603.44  4612.13
                             4616.12  4629.77  4633.93  4669.97  4677.46
                             4881.04  5171.40

 Zero-point correction=                           0.358232 (Hartree/Particle)
 Thermal correction to Energy=                    0.379386
 Thermal correction to Enthalpy=                  0.380330
 Thermal correction to Gibbs Free Energy=         0.308283
 Sum of electronic and zero-point Energies=          -1343.137509
 Sum of electronic and thermal Energies=             -1343.116355
 Sum of electronic and thermal Enthalpies=           -1343.115411
 Sum of electronic and thermal Free Energies=        -1343.187458

                     E (Thermal)             CV                S
                      KCal/Mol        Cal/Mol-Kelvin    Cal/Mol-Kelvin
 Total                  238.068             80.356            151.637
 Electronic               0.000              0.000              0.000
 Translational            0.889              2.981             43.149
 Rotational               0.889              2.981             34.252
 Vibrational            236.291             74.394             74.236
 Vibration     1          0.594              1.981              5.311
 Vibration     2          0.595              1.980              5.121
 Vibration     3          0.597              1.974              4.486
 Vibration     4          0.598              1.969              4.198
 Vibration     5          0.599              1.966              4.032
 Vibration     6          0.601              1.958              3.733
 Vibration     7          0.603              1.953              3.574
 Vibration     8          0.607              1.939              3.231
 Vibration     9          0.613              1.920              2.898
 Vibration    10          0.619              1.901              2.655
 Vibration    11          0.627              1.873              2.381
 Vibration    12          0.632              1.857              2.255
 Vibration    13          0.636              1.844              2.162
 Vibration    14          0.637              1.842              2.149
 Vibration    15          0.651              1.797              1.888
 Vibration    16          0.662              1.764              1.734
 Vibration    17          0.669              1.744              1.656
 Vibration    18          0.672              1.734              1.616
 Vibration    19          0.676              1.722              1.575
 Vibration    20          0.684              1.699              1.495
 Vibration    21          0.702              1.645              1.336
 Vibration    22          0.713              1.614              1.256
 Vibration    23          0.729              1.570              1.155
 Vibration    24          0.750              1.513              1.039
 Vibration    25          0.782              1.427              0.893
 Vibration    26          0.789              1.411              0.868
 Vibration    27          0.794              1.397              0.847
 Vibration    28          0.839              1.289              0.703
 Vibration    29          0.855              1.250              0.658
 Vibration    30          0.888              1.176              0.580
 Vibration    31          0.939              1.071              0.482
 Vibration    32          0.978              0.994              0.420

 Optimization completed.
    -- Stationary point found.
 Normal termination of Gaussian 16 at Tue Apr 13 00:46:20 2021.
