 Gaussian 16, Revision A.03,
 Gaussian 16:  ES64L-G16RevA.03 25-Dec-2016

 ----------------------------------------------------------------------
 # wB97XD def2tzvp, opt=(ts, noeigen, calcfc, maxcycles=70, maxstep=5),
  freq=noraman, scrf=(iefpcm, solvent=water)
 ----------------------------------------------------------------------

 ------------------------
 2_iteration/TS-114-2.out
 ------------------------
 Symbolic Z-matrix:
 Charge =  0 Multiplicity = 1

 SCF Done:  E(RwB97XD) =  -1057.08310131     A.U. after   15 cycles
 SCF Done:  E(RwB97XD) =  -1057.08310134     A.U. after    7 cycles
 Optimization completed.
    -- Stationary point found.
 Normal termination of Gaussian 16 at Sun Feb  7 09:23:07 2021.

 ---------------------------------------------------------------------
 #N Geom=AllCheck Guess=TCheck SCRF=Check GenChk RwB97XD/def2TZVP Freq
 ---------------------------------------------------------------------

 Structure from the checkpoint file:  "/beegfs/scratch/user/q/tla25/Gau-29165.chk"
 ------------------------
 2_iteration/TS-114-2.out
 ------------------------
 Charge =  0 Multiplicity = 1

                         Standard orientation:
 ---------------------------------------------------------------------
 Center     Atomic      Atomic             Coordinates (Angstroms)
 Number     Number       Type             X           Y           Z
 ---------------------------------------------------------------------
      1          6           0        1.128331   -0.400577   -0.191522
      2          6           0        2.453896   -0.373136   -0.711117
      3          8           0        2.943658    0.607003   -1.297031
      4          6           0        0.169259    0.648170   -0.248040
      5          6           0        1.720450    1.716478    1.801649
      6          1           0        1.816649    2.351210    2.681566
      7          1           0        1.996488    0.695665    2.057080
      8          1           0        2.386348    2.070669    1.018169
      9          7           0        0.346329    1.720806    1.304912
     10          1           0       -0.293911    1.415941    2.026809
     11          1           0        0.056557    2.652600    1.030004
     12          6           0       -1.296292    0.259062   -0.172939
     13          6           0       -1.941773   -0.135836    0.996502
     14          6           0       -3.279583   -0.498805    0.990350
     15          6           0       -4.002165   -0.492109   -0.192485
     16          6           0       -3.369851   -0.119685   -1.367977
     17          6           0       -2.035154    0.255651   -1.355368
     18          1           0       -1.405233   -0.195815    1.933348
     19          1           0       -3.753917   -0.795036    1.917259
     20          1           0       -5.046285   -0.777516   -0.197911
     21          1           0       -3.915426   -0.115063   -2.303088
     22          1           0       -1.567631    0.541369   -2.287572
     23          6           0        0.422253    1.760561   -1.255072
     24          1           0        0.532628    1.344840   -2.255151
     25          1           0       -0.414805    2.458814   -1.254754
     26          1           0        1.347105    2.283858   -1.039520
     27         17           0        0.699971   -1.832623    0.767620
     28          6           0        3.323023   -1.609471   -0.558285
     29          1           0        3.565316   -1.784809    0.491887
     30          1           0        2.824403   -2.507201   -0.925472
     31          1           0        4.244281   -1.448410   -1.114501
 ---------------------------------------------------------------------

 SCF Done:  E(RwB97XD) =  -1057.08310134     A.U. after    1 cycles

 The electronic state is 1-A.
 Alpha  occ. eigenvalues -- -101.67969 -19.19627 -14.49248 -10.36553 -10.35048
 Alpha  occ. eigenvalues --  -10.31719 -10.30993 -10.30198 -10.29593 -10.29401
 Alpha  occ. eigenvalues --  -10.29282 -10.29240 -10.29155 -10.27945 -10.26715
 Alpha  occ. eigenvalues --   -9.56528  -7.31130  -7.30327  -7.30318  -1.10439
 Alpha  occ. eigenvalues --   -1.04849  -0.97859  -0.95266  -0.90073  -0.85619
 Alpha  occ. eigenvalues --   -0.84097  -0.82615  -0.79286  -0.77502  -0.72795
 Alpha  occ. eigenvalues --   -0.70766  -0.67497  -0.64054  -0.62057  -0.58935
 Alpha  occ. eigenvalues --   -0.57780  -0.56214  -0.55259  -0.54766  -0.53959
 Alpha  occ. eigenvalues --   -0.52405  -0.51382  -0.50798  -0.49890  -0.49371
 Alpha  occ. eigenvalues --   -0.48175  -0.47766  -0.46394  -0.46199  -0.45028
 Alpha  occ. eigenvalues --   -0.44036  -0.43422  -0.42652  -0.41997  -0.40349
 Alpha  occ. eigenvalues --   -0.39038  -0.34008  -0.33518  -0.31323  -0.26781
 Alpha virt. eigenvalues --    0.03266   0.04979   0.06970   0.10238   0.11322
 Alpha virt. eigenvalues --    0.12758   0.13328   0.13866   0.14637   0.15775
 Alpha virt. eigenvalues --    0.16958   0.17309   0.17816   0.18461   0.18750

 Mulliken charges:
               1
     1  C   -0.247881
     2  C    0.248170
     3  O   -0.540119
     4  C    0.203738
     5  C   -0.291009
     6  H    0.165664
     7  H    0.153415
     8  H    0.155720
     9  N   -0.302280
    10  H    0.268623
    11  H    0.290461
    12  C    0.257830
    13  C   -0.290385
    14  C   -0.144258
    15  C   -0.155004
    16  C   -0.137760
    17  C   -0.278827
    18  H    0.156490
    19  H    0.144630
    20  H    0.145218
    21  H    0.144016
    22  H    0.155119
    23  C   -0.388793
    24  H    0.147137
    25  H    0.157374
    26  H    0.154160
    27  Cl  -0.186096
    28  C   -0.367859
    29  H    0.132145
    30  H    0.132704
    31  H    0.117659
 Sum of Mulliken charges =  -0.00000

 Dipole moment (field-independent basis, Debye):
    X=             -5.0591    Y=              4.8466    Z=              5.1428  Tot=              8.6909
 Quadrupole moment (field-independent basis, Debye-Ang):
   XX=           -104.2334   YY=            -92.4384   ZZ=            -89.0921
   XY=             -0.9360   XZ=             10.1262   YZ=              8.2226

  Exact polarizability: 273.421   4.262 199.251 -13.496  -6.638 221.285
 Approx polarizability: 207.140   8.633 168.035  -9.919  -8.794 191.620

 ******    1 imaginary frequencies (negative Signs) ******

                      1                      2                      3
                      A                      A                      A
 Frequencies --   -343.9896                46.1539                56.0025
 Red. masses --      5.3544                 4.9615                 5.0239
 Frc consts  --      0.3733                 0.0062                 0.0093
 IR Inten    --    702.2395                 2.5374                 1.9613

                      4                      5                      6
                      A                      A                      A
 Frequencies --     71.4318                77.0365                93.6762
 Red. masses --      3.3161                 2.1315                 4.5802
 Frc consts  --      0.0100                 0.0075                 0.0237
 IR Inten    --      6.9881                 2.5783                 2.5694

                      7                      8                      9
                      A                      A                      A
 Frequencies --    125.9384               144.3598               176.9907
 Red. masses --      1.6446                 1.8914                 1.5367
 Frc consts  --      0.0154                 0.0232                 0.0284
 IR Inten    --      5.6605                 9.0652                 3.9053

                     10                     11                     12
                      A                      A                      A
 Frequencies --    200.6972               237.9875               258.8019
 Red. masses --      2.4290                 4.8400                 3.7754
 Frc consts  --      0.0576                 0.1615                 0.1490
 IR Inten    --      6.6777                10.2050                 1.9015

                     13                     14                     15
                      A                      A                      A
 Frequencies --    284.3489               305.9261               321.8161
 Red. masses --      3.6928                 2.0746                 2.4353
 Frc consts  --      0.1759                 0.1144                 0.1486
 IR Inten    --      1.1730                 8.3386                 9.5702

                     16                     17                     18
                      A                      A                      A
 Frequencies --    336.4660               354.7289               392.1276
 Red. masses --      4.3258                 2.5625                 1.9821
 Frc consts  --      0.2885                 0.1900                 0.1796
 IR Inten    --     23.2582                11.3729                 8.1093

                     19                     20                     21
                      A                      A                      A
 Frequencies --    424.6909               445.4757               467.7271
 Red. masses --      2.9327                 3.7836                 6.0431
 Frc consts  --      0.3117                 0.4424                 0.7789
 IR Inten    --      0.0733                 2.7525                 9.8192

                     22                     23                     24
                      A                      A                      A
 Frequencies --    506.5427               575.7308               580.3356
 Red. masses --      3.5690                 3.4479                 3.1109
 Frc consts  --      0.5396                 0.6734                 0.6173
 IR Inten    --     40.3999                16.6962                63.0502

                     25                     26                     27
                      A                      A                      A
 Frequencies --    636.9068               641.2149               674.5194
 Red. masses --      4.0599                 4.1969                 4.6007
 Frc consts  --      0.9703                 1.0167                 1.2333
 IR Inten    --     45.1556                55.0986                 8.9234

                     28                     29                     30
                      A                      A                      A
 Frequencies --    692.0950               729.9969               796.5697
 Red. masses --      1.3787                 1.5245                 2.4562
 Frc consts  --      0.3891                 0.4787                 0.9182
 IR Inten    --     39.5568                89.6408                16.1745

                     31                     32                     33
                      A                      A                      A
 Frequencies --    815.1384               875.9298               955.6379
 Red. masses --      3.2405                 1.2446                 2.0776
 Frc consts  --      1.2686                 0.5626                 1.1179
 IR Inten    --      4.0108                 1.2945                43.3266

                     34                     35                     36
                      A                      A                      A
 Frequencies --    962.8146               978.3123              1006.5381
 Red. masses --      2.1992                 2.0525                 1.1808
 Frc consts  --      1.2012                 1.1574                 0.7049
 IR Inten    --     41.9520                24.7162                 0.3614

                     37                     38                     39
                      A                      A                      A
 Frequencies --   1014.3444              1026.8674              1030.5797
 Red. masses --      1.3111                 4.4784                 1.3431
 Frc consts  --      0.7948                 2.7823                 0.8405
 IR Inten    --      3.2058                 0.7328                 1.0638

                     40                     41                     42
                      A                      A                      A
 Frequencies --   1037.6776              1044.3720              1057.0240
 Red. masses --      1.6722                 1.5937                 1.4801
 Frc consts  --      1.0609                 1.0241                 0.9743
 IR Inten    --     23.2090                30.0056               156.3631

                     43                     44                     45
                      A                      A                      A
 Frequencies --   1062.3701              1067.0275              1081.4692
 Red. masses --      1.6261                 2.2085                 3.7465
 Frc consts  --      1.0813                 1.4815                 2.5817
 IR Inten    --     30.9141                43.8280                 4.9879

                     46                     47                     48
                      A                      A                      A
 Frequencies --   1117.2276              1133.9354              1187.7999
 Red. masses --      2.0413                 1.6593                 1.1298
 Frc consts  --      1.5012                 1.2570                 0.9392
 IR Inten    --      4.7491                12.9397                 0.0064

                     49                     50                     51
                      A                      A                      A
 Frequencies --   1228.2499              1246.3078              1255.8987
 Red. masses --      1.1679                 2.3410                 1.8214
 Frc consts  --      1.0381                 2.1424                 1.6926
 IR Inten    --      4.8694               105.9795                28.7846

                     52                     53                     54
                      A                      A                      A
 Frequencies --   1304.3421              1325.2971              1347.9453
 Red. masses --      3.9755                 5.3856                 1.3390
 Frc consts  --      3.9850                 5.5733                 1.4335
 IR Inten    --     19.1056                 6.9155                 4.3323

                     55                     56                     57
                      A                      A                      A
 Frequencies --   1375.2780              1377.1253              1409.3839
 Red. masses --      1.5267                 1.3576                 2.9890
 Frc consts  --      1.7013                 1.5169                 3.4981
 IR Inten    --    173.8163                31.1768              1032.1994

                     58                     59                     60
                      A                      A                      A
 Frequencies --   1426.3809              1454.7507              1465.7389
 Red. masses --      1.2617                 1.0977                 1.0910
 Frc consts  --      1.5125                 1.3687                 1.3809
 IR Inten    --     36.6819                42.0769                 6.7281

                     61                     62                     63
                      A                      A                      A
 Frequencies --   1467.2347              1480.3503              1490.7595
 Red. masses --      1.1449                 1.0803                 1.9214
 Frc consts  --      1.4522                 1.3949                 2.5159
 IR Inten    --     20.1308                12.4641                17.0801

                     64                     65                     66
                      A                      A                      A
 Frequencies --   1494.7415              1500.3800              1508.7999
 Red. masses --      1.0611                 1.0957                 1.0659
 Frc consts  --      1.3968                 1.4533                 1.4297
 IR Inten    --     27.6099                28.4198                21.9669

                     67                     68                     69
                      A                      A                      A
 Frequencies --   1549.5037              1624.8435              1648.7656
 Red. masses --      2.2138                 7.6165                 1.3194
 Frc consts  --      3.1316                11.8476                 2.1132
 IR Inten    --      7.1318               539.9971                48.5556

                     70                     71                     72
                      A                      A                      A
 Frequencies --   1654.1239              1677.1630              3059.9708
 Red. masses --      2.9624                 5.7050                 1.0366
 Frc consts  --      4.7757                 9.4549                 5.7185
 IR Inten    --     13.7471                 2.0200                14.0067

                     73                     74                     75
                      A                      A                      A
 Frequencies --   3077.4862              3082.2506              3130.6576
 Red. masses --      1.0406                 1.0335                 1.0996
 Frc consts  --      5.8064                 5.7852                 6.3499
 IR Inten    --     27.5775                27.8243                16.4384

                     76                     77                     78
                      A                      A                      A
 Frequencies --   3154.2247              3160.5699              3165.6979
 Red. masses --      1.1019                 1.1042                 1.1047
 Frc consts  --      6.4592                 6.4988                 6.5230
 IR Inten    --     17.8704                32.5579                 8.7507

                     79                     80                     81
                      A                      A                      A
 Frequencies --   3181.1411              3195.5573              3197.9328
 Red. masses --      1.1058                 1.0986                 1.0860
 Frc consts  --      6.5932                 6.6098                 6.5435
 IR Inten    --      7.6684                 9.3584                 0.5080

                     82                     83                     84
                      A                      A                      A
 Frequencies --   3206.1926              3216.4646              3224.4824
 Red. masses --      1.0892                 1.0928                 1.0947
 Frc consts  --      6.5969                 6.6609                 6.7060
 IR Inten    --      7.0664                31.7952                23.6746

                     85                     86                     87
                      A                      A                      A
 Frequencies --   3229.9452              3537.1906              3616.2489
 Red. masses --      1.0961                 1.0522                 1.0938
 Frc consts  --      6.7373                 7.7563                 8.4273
 IR Inten    --      6.2677                54.8447                49.7806

 - Thermochemistry -
 -------------------
 Temperature   298.150 Kelvin.  Pressure   1.00000 Atm.
 Atom     1 has atomic number  6 and mass  12.00000

 Molecular mass:   225.09204 amu.
 Principal axes and moments of inertia in atomic units:
                           1         2         3
     Eigenvalues --  2091.297304844.574815120.25618
           X            0.99997   0.00117   0.00762
           Y           -0.00202   0.99362   0.11272
           Z           -0.00744  -0.11273   0.99360
 This molecule is an asymmetric top.
 Rotational symmetry number  1.
 Warning -- assumption of classical behavior for rotation
           may cause significant error
 Rotational temperatures (Kelvin)      0.04142     0.01788     0.01692
 Rotational constants (GHZ):           0.86298     0.37253     0.35247
    1 imaginary frequencies ignored.
 Zero-point vibrational energy     681038.5 (Joules/Mol)
                                  162.77210 (Kcal/Mol)
 Warning -- explicit consideration of  23 degrees of freedom as
           vibrations may cause significant error
 Vibrational temperatures:     66.41    80.58   102.77   110.84   134.78
          (Kelvin)            181.20   207.70   254.65   288.76   342.41
                              372.36   409.11   440.16   463.02   484.10
                              510.38   564.18   611.04   640.94   672.95
                              728.80   828.35   834.97   916.37   922.57
                              970.48   995.77  1050.30  1146.09  1172.80
                             1260.27  1374.95  1385.28  1407.57  1448.18
                             1459.42  1477.43  1482.77  1492.99  1502.62
                             1520.82  1528.51  1535.21  1555.99  1607.44
                             1631.48  1708.98  1767.18  1793.16  1806.96
                             1876.66  1906.81  1939.39  1978.72  1981.38
                             2027.79  2052.24  2093.06  2108.87  2111.02
                             2129.89  2144.87  2150.60  2158.71  2170.83
                             2229.39  2337.79  2372.21  2379.92  2413.06
                             4402.62  4427.82  4434.67  4504.32  4538.23
                             4547.36  4554.73  4576.95  4597.69  4601.11
                             4613.00  4627.78  4639.31  4647.17  5089.23
                             5202.98

 Zero-point correction=                           0.259394 (Hartree/Particle)
 Thermal correction to Energy=                    0.274841
 Thermal correction to Enthalpy=                  0.275785
 Thermal correction to Gibbs Free Energy=         0.216426
 Sum of electronic and zero-point Energies=          -1056.823707
 Sum of electronic and thermal Energies=             -1056.808261
 Sum of electronic and thermal Enthalpies=           -1056.807316
 Sum of electronic and thermal Free Energies=        -1056.866676

                     E (Thermal)             CV                S
                      KCal/Mol        Cal/Mol-Kelvin    Cal/Mol-Kelvin
 Total                  172.465             57.806            124.932
 Electronic               0.000              0.000              0.000
 Translational            0.889              2.981             42.136
 Rotational               0.889              2.981             32.317
 Vibrational            170.688             51.845             50.478
 Vibration     1          0.595              1.979              4.976
 Vibration     2          0.596              1.975              4.593
 Vibration     3          0.598              1.968              4.114
 Vibration     4          0.599              1.964              3.965
 Vibration     5          0.603              1.954              3.582
 Vibration     6          0.611              1.927              3.007
 Vibration     7          0.616              1.909              2.745
 Vibration     8          0.628              1.871              2.360
 Vibration     9          0.638              1.839              2.127
 Vibration    10          0.656              1.782              1.818
 Vibration    11          0.668              1.748              1.670
 Vibration    12          0.683              1.703              1.507
 Vibration    13          0.696              1.662              1.384
 Vibration    14          0.707              1.632              1.301
 Vibration    15          0.717              1.603              1.229
 Vibration    16          0.731              1.566              1.145
 Vibration    17          0.760              1.487              0.992
 Vibration    18          0.787              1.417              0.876
 Vibration    19          0.805              1.371              0.810
 Vibration    20          0.825              1.322              0.744
 Vibration    21          0.862              1.236              0.642
 Vibration    22          0.932              1.084              0.493
 Vibration    23          0.937              1.074              0.485

 Optimization completed.
    -- Stationary point found.
 Normal termination of Gaussian 16 at Sun Feb  7 10:23:21 2021.
