 Gaussian 16, Revision A.03,
 Gaussian 16:  ES64L-G16RevA.03 25-Dec-2016

 ----------------------------------------------------------------------
 # wB97XD def2tzvp, opt=(ts, noeigen, calcfc, maxcycles=70, maxstep=3),
  freq=noraman, scrf=(iefpcm, solvent=water)
 ----------------------------------------------------------------------

 ------------------------
 3_iteration/TS-142-3.out
 ------------------------
 Symbolic Z-matrix:
 Charge =  0 Multiplicity = 1

 SCF Done:  E(RwB97XD) =  -3265.75763046     A.U. after   15 cycles
 SCF Done:  E(RwB97XD) =  -3265.75763040     A.U. after    7 cycles
 Optimization completed.
    -- Stationary point found.
 Normal termination of Gaussian 16 at Sun Feb  7 21:09:24 2021.

 ---------------------------------------------------------------------
 #N Geom=AllCheck Guess=TCheck SCRF=Check GenChk RwB97XD/def2TZVP Freq
 ---------------------------------------------------------------------

 Structure from the checkpoint file:  "/beegfs/scratch/user/q/tla25/Gau-21566.chk"
 ------------------------
 3_iteration/TS-142-3.out
 ------------------------
 Charge =  0 Multiplicity = 1

                         Standard orientation:
 ---------------------------------------------------------------------
 Center     Atomic      Atomic             Coordinates (Angstroms)
 Number     Number       Type             X           Y           Z
 ---------------------------------------------------------------------
      1          6           0       -0.784451    0.638950    0.333927
      2          6           0       -2.145074    0.110275    0.294092
      3          8           0       -2.405828   -1.076444    0.578035
      4          6           0        0.272103   -0.225289    0.128550
      5          6           0        0.171532   -1.066216    2.813069
      6          1           0       -0.303062   -1.761158    3.506248
      7          1           0        1.182856   -0.854911    3.152450
      8          1           0       -0.401737   -0.137999    2.802137
      9          7           0        0.181210   -1.597075    1.456802
     10          1           0        0.815292   -2.376206    1.326103
     11          1           0       -0.770665   -1.863237    1.189757
     12          6           0        1.679348    0.280981    0.089342
     13          6           0        2.729586   -0.268201    0.815294
     14          6           0        4.012898    0.250710    0.708519
     15          6           0        4.269663    1.318957   -0.134109
     16          6           0        3.231934    1.862959   -0.879246
     17          6           0        1.953454    1.346878   -0.770138
     18          1           0        2.573148   -1.111503    1.470332
     19          1           0        4.813454   -0.189986    1.288736
     20          1           0        5.271112    1.721434   -0.216521
     21          1           0        3.419125    2.690839   -1.551201
     22          1           0        1.151034    1.766781   -1.362509
     23         35           0        0.098759   -1.552781   -1.412175
     24          6           0       -0.542182    2.021320    0.917166
     25          1           0        0.333749    2.027021    1.566791
     26          1           0       -0.390756    2.807742    0.171825
     27          1           0       -1.395406    2.320397    1.528698
     28          7           0       -3.165526    0.962022   -0.004893
     29          6           0       -4.532386    0.529413    0.187427
     30          6           0       -2.995421    2.152418   -0.811877
     31          1           0       -4.587225   -0.169006    1.018023
     32          1           0       -5.151780    1.399810    0.409090
     33          1           0       -4.933434    0.038737   -0.706012
     34          1           0       -1.998888    2.174937   -1.244259
     35          1           0       -3.718594    2.135758   -1.630888
     36          1           0       -3.153979    3.065889   -0.232409
 ---------------------------------------------------------------------

 SCF Done:  E(RwB97XD) =  -3265.75763040     A.U. after    1 cycles

 The electronic state is 1-A.
 Alpha  occ. eigenvalues -- -483.11303 -62.66138 -56.45234 -56.44914 -56.44903
 Alpha  occ. eigenvalues --  -19.20374 -14.47537 -14.45344 -10.38975 -10.37348
 Alpha  occ. eigenvalues --  -10.31314 -10.31279 -10.30658 -10.30267 -10.29778
 Alpha  occ. eigenvalues --  -10.29499 -10.29424 -10.29375 -10.29323 -10.27348
 Alpha  occ. eigenvalues --  -10.26027  -8.80222  -6.62291  -6.61289  -6.61253
 Alpha  occ. eigenvalues --   -2.72677  -2.72410  -2.72380  -2.71569  -2.71569
 Alpha  occ. eigenvalues --   -1.12890  -1.03550  -1.02602  -0.97759  -0.92385
 Alpha  occ. eigenvalues --   -0.86178  -0.85563  -0.85243  -0.81344  -0.78938
 Alpha  occ. eigenvalues --   -0.78388  -0.76912  -0.72084  -0.71067  -0.66761
 Alpha  occ. eigenvalues --   -0.64306  -0.61500  -0.59968  -0.57809  -0.56971
 Alpha  occ. eigenvalues --   -0.56253  -0.55613  -0.55085  -0.54417  -0.52829
 Alpha  occ. eigenvalues --   -0.51595  -0.51208  -0.50910  -0.49143  -0.48494
 Alpha  occ. eigenvalues --   -0.48335  -0.47569  -0.46673  -0.46366  -0.45650
 Alpha  occ. eigenvalues --   -0.44979  -0.44288  -0.44058  -0.42723  -0.42201
 Alpha  occ. eigenvalues --   -0.37207  -0.36311  -0.34171  -0.34113  -0.32848
 Alpha  occ. eigenvalues --   -0.31667  -0.26280
 Alpha virt. eigenvalues --    0.01851   0.04847   0.05559   0.07947   0.10305
 Alpha virt. eigenvalues --    0.12100   0.13179   0.13647   0.14661   0.15097
 Alpha virt. eigenvalues --    0.15847   0.16486   0.16888   0.17577   0.18129

 Mulliken charges:
               1
     1  C   -0.415784
     2  C    0.358752
     3  O   -0.579981
     4  C    0.288034
     5  C   -0.295501
     6  H    0.155175
     7  H    0.145817
     8  H    0.156101
     9  N   -0.313204
    10  H    0.277966
    11  H    0.278997
    12  C    0.154035
    13  C   -0.198176
    14  C   -0.164579
    15  C   -0.143153
    16  C   -0.134371
    17  C   -0.288677
    18  H    0.147351
    19  H    0.144074
    20  H    0.145865
    21  H    0.143996
    22  H    0.176008
    23  Br  -0.218975
    24  C   -0.382115
    25  H    0.149320
    26  H    0.126199
    27  H    0.144123
    28  N   -0.109922
    29  C   -0.295945
    30  C   -0.299904
    31  H    0.138073
    32  H    0.139327
    33  H    0.132611
    34  H    0.156088
    35  H    0.144407
    36  H    0.137967
 Sum of Mulliken charges =   0.00000

 Dipole moment (field-independent basis, Debye):
    X=              2.3360    Y=              2.5575    Z=              3.7479  Tot=              5.1033
 Quadrupole moment (field-independent basis, Debye-Ang):
   XX=           -103.5140   YY=           -109.8574   ZZ=           -110.1155
   XY=             -9.6600   XZ=              6.0147   YZ=            -11.7475

  Exact polarizability: 321.623  -7.067 273.538  14.836 -18.966 243.284
 Approx polarizability: 239.572  -3.160 227.557  11.078 -17.913 203.222

 ******    1 imaginary frequencies (negative Signs) ******

                      1                      2                      3
                      A                      A                      A
 Frequencies --   -415.5414                42.5077                57.6061
 Red. masses --      5.4253                 3.6226                 4.6028
 Frc consts  --      0.5520                 0.0039                 0.0090
 IR Inten    --    582.5308                 0.2919                 2.5909

                      4                      5                      6
                      A                      A                      A
 Frequencies --     70.1506                72.7989                98.9223
 Red. masses --      3.8147                 4.3979                 4.2142
 Frc consts  --      0.0111                 0.0137                 0.0243
 IR Inten    --      1.5151                 4.4318                 0.4029

                      7                      8                      9
                      A                      A                      A
 Frequencies --    128.5854               134.8497               144.5350
 Red. masses --      1.9212                 1.4355                 5.2002
 Frc consts  --      0.0187                 0.0154                 0.0640
 IR Inten    --      3.2099                 6.8526                12.7347

                     10                     11                     12
                      A                      A                      A
 Frequencies --    160.0926               162.0737               176.1666
 Red. masses --      1.8358                 1.9007                 1.2453
 Frc consts  --      0.0277                 0.0294                 0.0228
 IR Inten    --      0.0992                 2.1400                 1.3631

                     13                     14                     15
                      A                      A                      A
 Frequencies --    195.8114               215.7842               227.0321
 Red. masses --      2.7510                 2.3586                 1.7482
 Frc consts  --      0.0621                 0.0647                 0.0531
 IR Inten    --      1.7757                 9.4304                 7.4277

                     16                     17                     18
                      A                      A                      A
 Frequencies --    241.3001               250.4025               274.6564
 Red. masses --      5.7989                 2.7305                 4.0789
 Frc consts  --      0.1989                 0.1009                 0.1813
 IR Inten    --     25.8671                21.1285                 2.3152

                     19                     20                     21
                      A                      A                      A
 Frequencies --    292.9928               305.5236               326.7772
 Red. masses --      1.7711                 3.2266                 2.9143
 Frc consts  --      0.0896                 0.1775                 0.1834
 IR Inten    --     10.5276                23.7229                21.0241

                     22                     23                     24
                      A                      A                      A
 Frequencies --    345.9295               396.1835               426.6663
 Red. masses --      4.4084                 3.9582                 2.9037
 Frc consts  --      0.3108                 0.3661                 0.3114
 IR Inten    --     49.6712                47.9522                 1.5147

                     25                     26                     27
                      A                      A                      A
 Frequencies --    434.2850               517.8543               528.1245
 Red. masses --      2.6449                 3.7749                 4.8770
 Frc consts  --      0.2939                 0.5964                 0.8015
 IR Inten    --      1.5537                 3.1767                66.3999

                     28                     29                     30
                      A                      A                      A
 Frequencies --    602.3524               613.7295               640.6521
 Red. masses --      3.5529                 4.8368                 6.2716
 Frc consts  --      0.7595                 1.0734                 1.5166
 IR Inten    --      4.3886               139.3351                21.8936

                     31                     32                     33
                      A                      A                      A
 Frequencies --    673.7736               726.4080               739.8943
 Red. masses --      4.5228                 1.7682                 1.7565
 Frc consts  --      1.2097                 0.5497                 0.5665
 IR Inten    --    143.4719                40.8884               109.0679

                     34                     35                     36
                      A                      A                      A
 Frequencies --    751.8334               796.8705               810.1116
 Red. masses --      2.9504                 4.9841                 2.5020
 Frc consts  --      0.9826                 1.8647                 0.9675
 IR Inten    --    149.6734                43.7418                 6.1707

                     37                     38                     39
                      A                      A                      A
 Frequencies --    840.3201               877.9006               964.8581
 Red. masses --      4.6771                 1.2429                 1.4284
 Frc consts  --      1.9459                 0.5644                 0.7835
 IR Inten    --     97.0959                 0.4628                 2.6519

                     40                     41                     42
                      A                      A                      A
 Frequencies --    985.5115               996.5335              1016.9030
 Red. masses --      1.6785                 1.5046                 1.3652
 Frc consts  --      0.9605                 0.8804                 0.8318
 IR Inten    --     44.5453                27.4295                 4.7145

                     43                     44                     45
                      A                      A                      A
 Frequencies --   1025.8145              1030.7046              1034.4927
 Red. masses --      5.6462                 1.6619                 1.3669
 Frc consts  --      3.5006                 1.0402                 0.8619
 IR Inten    --      8.5798               191.1634                29.1136

                     46                     47                     48
                      A                      A                      A
 Frequencies --   1069.2424              1070.1249              1082.3990
 Red. masses --      1.7926                 1.5241                 4.3374
 Frc consts  --      1.2075                 1.0283                 2.9940
 IR Inten    --      2.7906                27.2865                49.6696

                     49                     50                     51
                      A                      A                      A
 Frequencies --   1091.2648              1113.9029              1128.2682
 Red. masses --      1.3690                 1.2842                 1.5733
 Frc consts  --      0.9605                 0.9388                 1.1800
 IR Inten    --     22.2479               138.7085                17.3452

                     52                     53                     54
                      A                      A                      A
 Frequencies --   1133.6070              1140.4186              1169.0127
 Red. masses --      1.2515                 2.0160                 1.4016
 Frc consts  --      0.9475                 1.5448                 1.1285
 IR Inten    --      7.1872               105.1685                21.2677

                     55                     56                     57
                      A                      A                      A
 Frequencies --   1186.5874              1223.8629              1226.9287
 Red. masses --      1.1299                 1.1425                 1.7157
 Frc consts  --      0.9373                 1.0083                 1.5217
 IR Inten    --      0.1696                 3.2583               140.5846

                     58                     59                     60
                      A                      A                      A
 Frequencies --   1245.8224              1264.3513              1317.8644
 Red. masses --      2.3509                 5.0820                 5.0087
 Frc consts  --      2.1498                 4.7866                 5.1252
 IR Inten    --     67.0029                73.8304                14.5237

                     61                     62                     63
                      A                      A                      A
 Frequencies --   1322.6065              1368.3633              1369.1431
 Red. masses --      4.8940                 1.3451                 1.3015
 Frc consts  --      5.0440                 1.4839                 1.4375
 IR Inten    --     36.9752                 4.0615                40.8581

                     64                     65                     66
                      A                      A                      A
 Frequencies --   1415.8860              1430.8719              1449.4644
 Red. masses --      1.3586                 2.0910                 1.1938
 Frc consts  --      1.6048                 2.5224                 1.4777
 IR Inten    --     16.2014               759.6305                20.0727

                     67                     68                     69
                      A                      A                      A
 Frequencies --   1451.2778              1471.9150              1480.4393
 Red. masses --      1.2199                 1.6401                 1.3729
 Frc consts  --      1.5138                 2.0935                 1.7728
 IR Inten    --     12.9613               207.7104                 3.2415

                     70                     71                     72
                      A                      A                      A
 Frequencies --   1483.2748              1484.9369              1489.3241
 Red. masses --      1.0861                 1.0735                 1.0897
 Frc consts  --      1.4078                 1.3947                 1.4241
 IR Inten    --      2.7255                14.6137                23.5778

                     73                     74                     75
                      A                      A                      A
 Frequencies --   1492.0642              1496.3026              1503.2225
 Red. masses --      1.8233                 1.1141                 1.0772
 Frc consts  --      2.3916                 1.4696                 1.4341
 IR Inten    --     13.8140               123.3063                34.4810

                     76                     77                     78
                      A                      A                      A
 Frequencies --   1505.5440              1516.4879              1537.5372
 Red. masses --      1.0453                 1.1460                 1.5937
 Frc consts  --      1.3960                 1.5528                 2.2197
 IR Inten    --     25.8576               156.1920               148.3804

                     79                     80                     81
                      A                      A                      A
 Frequencies --   1552.1332              1601.0501              1643.8476
 Red. masses --      2.4312                 2.5754                 1.6610
 Frc consts  --      3.4509                 3.8896                 2.6445
 IR Inten    --      4.3239               719.9300                63.9136

                     82                     83                     84
                      A                      A                      A
 Frequencies --   1654.1644              1675.9889              3028.0233
 Red. masses --      4.1315                 5.8239                 1.0460
 Frc consts  --      6.6606                 9.6385                 5.6506
 IR Inten    --     14.1211                 1.5163                97.8258

                     85                     86                     87
                      A                      A                      A
 Frequencies --   3031.1997              3039.1447              3064.8169
 Red. masses --      1.0423                 1.0391                 1.0339
 Frc consts  --      5.6427                 5.6546                 5.7218
 IR Inten    --     88.1047               142.5806                55.6810

                     88                     89                     90
                      A                      A                      A
 Frequencies --   3091.8480              3093.6801              3103.4680
 Red. masses --      1.0950                 1.1013                 1.0954
 Frc consts  --      6.1676                 6.2100                 6.2158
 IR Inten    --     25.4182                83.5054                24.8719

                     91                     92                     93
                      A                      A                      A
 Frequencies --   3123.4327              3136.1434              3167.4510
 Red. masses --      1.1015                 1.1038                 1.1043
 Frc consts  --      6.3313                 6.3963                 6.5279
 IR Inten    --     35.5694                13.0685                23.8240

                     94                     95                     96
                      A                      A                      A
 Frequencies --   3171.2971              3173.0783              3198.7050
 Red. masses --      1.0983                 1.0994                 1.0861
 Frc consts  --      6.5078                 6.5219                 6.5476
 IR Inten    --     14.0958                13.1972                 0.5315

                     97                     98                     99
                      A                      A                      A
 Frequencies --   3207.2131              3216.6533              3224.6672
 Red. masses --      1.0895                 1.0936                 1.0980
 Frc consts  --      6.6028                 6.6667                 6.7270
 IR Inten    --      6.3635                23.7280                19.7518

                    100                    101                    102
                      A                      A                      A
 Frequencies --   3254.2661              3366.8169              3578.8365
 Red. masses --      1.0911                 1.0661                 1.0843
 Frc consts  --      6.8082                 7.1204                 8.1822
 IR Inten    --     14.3375               217.4451                74.9439

 - Thermochemistry -
 -------------------
 Temperature   298.150 Kelvin.  Pressure   1.00000 Atm.
 Atom     1 has atomic number  6 and mass  12.00000

 Molecular mass:   298.06807 amu.
 Principal axes and moments of inertia in atomic units:
                           1         2         3
     Eigenvalues --  3301.607716850.048437442.78616
           X            0.99986  -0.01333   0.01049
           Y            0.01552   0.96849  -0.24858
           Z           -0.00685   0.24870   0.96856
 This molecule is an asymmetric top.
 Rotational symmetry number  1.
 Warning -- assumption of classical behavior for rotation
           may cause significant error
 Rotational temperatures (Kelvin)      0.02623     0.01264     0.01164
 Rotational constants (GHZ):           0.54662     0.26346     0.24248
    1 imaginary frequencies ignored.
 Zero-point vibrational energy     798426.7 (Joules/Mol)
                                  190.82856 (Kcal/Mol)
 Warning -- explicit consideration of  28 degrees of freedom as
           vibrations may cause significant error
 Vibrational temperatures:     61.16    82.88   100.93   104.74   142.33
          (Kelvin)            185.01   194.02   207.95   230.34   233.19
                              253.46   281.73   310.47   326.65   347.18
                              360.27   395.17   421.55   439.58   470.16
                              497.72   570.02   613.88   624.84   745.08
                              759.85   866.65   883.02   921.76   969.41
                             1045.14  1064.54  1081.72  1146.52  1165.57
                             1209.03  1263.10  1388.22  1417.93  1433.79
                             1463.10  1475.92  1482.95  1488.40  1538.40
                             1539.67  1557.33  1570.09  1602.66  1623.33
                             1631.01  1640.81  1681.95  1707.23  1760.87
                             1765.28  1792.46  1819.12  1896.11  1902.94
                             1968.77  1969.89  2037.14  2058.71  2085.46
                             2088.07  2117.76  2130.02  2134.10  2136.49
                             2142.81  2146.75  2152.85  2162.80  2166.14
                             2181.89  2212.17  2233.17  2303.55  2365.13
                             2379.97  2411.37  4356.65  4361.22  4372.65
                             4409.59  4448.48  4451.12  4465.20  4493.92
                             4512.21  4557.26  4562.79  4565.35  4602.22
                             4614.46  4628.05  4639.58  4682.16  4844.10
                             5149.15

 Zero-point correction=                           0.304105 (Hartree/Particle)
 Thermal correction to Energy=                    0.322548
 Thermal correction to Enthalpy=                  0.323492
 Thermal correction to Gibbs Free Energy=         0.257435
 Sum of electronic and zero-point Energies=          -3265.453526
 Sum of electronic and thermal Energies=             -3265.435082
 Sum of electronic and thermal Enthalpies=           -3265.434138
 Sum of electronic and thermal Free Energies=        -3265.500195

                     E (Thermal)             CV                S
                      KCal/Mol        Cal/Mol-Kelvin    Cal/Mol-Kelvin
 Total                  202.402             67.634            139.029
 Electronic               0.000              0.000              0.000
 Translational            0.889              2.981             42.973
 Rotational               0.889              2.981             33.487
 Vibrational            200.624             61.672             62.569
 Vibration     1          0.595              1.980              5.139
 Vibration     2          0.596              1.974              4.538
 Vibration     3          0.598              1.968              4.149
 Vibration     4          0.599              1.967              4.076
 Vibration     5          0.604              1.950              3.475
 Vibration     6          0.611              1.925              2.967
 Vibration     7          0.613              1.919              2.876
 Vibration     8          0.616              1.909              2.743
 Vibration     9          0.622              1.891              2.549
 Vibration    10          0.622              1.889              2.525
 Vibration    11          0.628              1.872              2.369
 Vibration    12          0.636              1.846              2.172
 Vibration    13          0.645              1.817              1.994
 Vibration    14          0.651              1.800              1.902
 Vibration    15          0.658              1.777              1.793
 Vibration    16          0.663              1.762              1.728
 Vibration    17          0.677              1.720              1.567
 Vibration    18          0.688              1.687              1.457
 Vibration    19          0.696              1.663              1.386
 Vibration    20          0.710              1.622              1.276
 Vibration    21          0.724              1.584              1.185
 Vibration    22          0.763              1.478              0.977
 Vibration    23          0.788              1.412              0.870
 Vibration    24          0.795              1.396              0.845
 Vibration    25          0.873              1.210              0.615
 Vibration    26          0.883              1.188              0.591
 Vibration    27          0.961              1.027              0.446
 Vibration    28          0.973              1.003              0.427

 Optimization completed.
    -- Stationary point found.
 Normal termination of Gaussian 16 at Sun Feb  7 23:04:37 2021.
