 Gaussian 16, Revision A.03,
 Gaussian 16:  ES64L-G16RevA.03 25-Dec-2016

 ----------------------------------------------------------------------
 # wB97XD def2tzvp, opt=(ts, noeigen, calcfc, maxcycles=70, maxstep=1),
  freq=noraman, scrf=(iefpcm, solvent=water)
 ----------------------------------------------------------------------

 ------------------------
 0_iteration/TS-171-0.out
 ------------------------
 Symbolic Z-matrix:
 Charge =  0 Multiplicity = 1

 SCF Done:  E(RwB97XD) =  -1033.82887778     A.U. after   15 cycles
 SCF Done:  E(RwB97XD) =  -1033.82879109     A.U. after   11 cycles
 SCF Done:  E(RwB97XD) =  -1033.82870792     A.U. after   11 cycles
 SCF Done:  E(RwB97XD) =  -1033.82862859     A.U. after   11 cycles
 SCF Done:  E(RwB97XD) =  -1033.82855349     A.U. after   11 cycles
 SCF Done:  E(RwB97XD) =  -1033.82848311     A.U. after   11 cycles
 SCF Done:  E(RwB97XD) =  -1033.82841784     A.U. after   11 cycles
 SCF Done:  E(RwB97XD) =  -1033.82835768     A.U. after   11 cycles
 SCF Done:  E(RwB97XD) =  -1033.82830250     A.U. after   11 cycles
 SCF Done:  E(RwB97XD) =  -1033.82825246     A.U. after   11 cycles
 SCF Done:  E(RwB97XD) =  -1033.82869159     A.U. after   11 cycles
 SCF Done:  E(RwB97XD) =  -1033.82869004     A.U. after   11 cycles
 SCF Done:  E(RwB97XD) =  -1033.82868930     A.U. after    9 cycles
 SCF Done:  E(RwB97XD) =  -1033.82868739     A.U. after    9 cycles
 SCF Done:  E(RwB97XD) =  -1033.82868962     A.U. after    9 cycles
 SCF Done:  E(RwB97XD) =  -1033.82868919     A.U. after    7 cycles
 SCF Done:  E(RwB97XD) =  -1033.82868908     A.U. after    7 cycles
 SCF Done:  E(RwB97XD) =  -1033.82868966     A.U. after    7 cycles
 SCF Done:  E(RwB97XD) =  -1033.82868929     A.U. after    7 cycles
 Optimization completed.
    -- Stationary point found.
 Normal termination of Gaussian 16 at Thu Feb  4 12:20:27 2021.

 ---------------------------------------------------------------------
 #N Geom=AllCheck Guess=TCheck SCRF=Check GenChk RwB97XD/def2TZVP Freq
 ---------------------------------------------------------------------

 Structure from the checkpoint file:  "/beegfs/scratch/user/q/tla25/Gau-109623.chk"
 ------------------------
 0_iteration/TS-171-0.out
 ------------------------
 Charge =  0 Multiplicity = 1

                         Standard orientation:
 ---------------------------------------------------------------------
 Center     Atomic      Atomic             Coordinates (Angstroms)
 Number     Number       Type             X           Y           Z
 ---------------------------------------------------------------------
      1          6           0        1.038967   -0.962081   -0.282312
      2          6           0        2.435835   -1.157687   -0.547195
      3          8           0        2.897994   -2.300342   -0.714836
      4          6           0        0.265726    0.178312   -0.015499
      5          6           0        1.799037    0.885855    2.163612
      6          1           0        1.791756    1.108248    3.229098
      7          1           0        2.287761   -0.070334    1.990727
      8          1           0        2.328065    1.669860    1.629139
      9          7           0        0.427292    0.796674    1.659974
     10          1           0       -0.103747    0.133530    2.216084
     11          1           0       -0.051169    1.691534    1.717762
     12          6           0       -1.230510   -0.037535   -0.069430
     13          6           0       -1.778313   -1.064610    0.702625
     14          6           0       -3.137274   -1.324825    0.676055
     15          6           0       -3.977921   -0.563519   -0.123759
     16          6           0       -3.443850    0.458170   -0.890622
     17          6           0       -2.081468    0.723884   -0.860669
     18          1           0       -1.138411   -1.677594    1.325834
     19          1           0       -3.538983   -2.125473    1.283553
     20          1           0       -5.040939   -0.765823   -0.145976
     21          1           0       -4.087282    1.059399   -1.520071
     22          1           0       -1.687268    1.525716   -1.467472
     23         17           0        0.760943    1.734554   -0.847307
     24          1           0        0.486012   -1.890089   -0.280085
     25          7           0        3.307103   -0.094803   -0.602267
     26          1           0        2.951197    0.831010   -0.763009
     27          1           0        4.200876   -0.303546   -1.013461
 ---------------------------------------------------------------------

 SCF Done:  E(RwB97XD) =  -1033.82868929     A.U. after    1 cycles

 The electronic state is 1-A.
 Alpha  occ. eigenvalues -- -101.69889 -19.18794 -14.51394 -14.42721 -10.41378
 Alpha  occ. eigenvalues --  -10.37027 -10.32387 -10.31752 -10.30067 -10.29798
 Alpha  occ. eigenvalues --  -10.29707 -10.29617 -10.29538 -10.24794  -9.58522
 Alpha  occ. eigenvalues --   -7.33115  -7.32317  -7.32300  -1.11225  -1.07061
 Alpha  occ. eigenvalues --   -0.98902  -0.97982  -0.95504  -0.88355  -0.85910
 Alpha  occ. eigenvalues --   -0.83444  -0.80383  -0.74361  -0.71400  -0.68503
 Alpha  occ. eigenvalues --   -0.65414  -0.64700  -0.62622  -0.60838  -0.58486
 Alpha  occ. eigenvalues --   -0.57241  -0.56664  -0.55253  -0.52776  -0.52665
 Alpha  occ. eigenvalues --   -0.51713  -0.49580  -0.48728  -0.48241  -0.47819
 Alpha  occ. eigenvalues --   -0.46628  -0.45975  -0.44182  -0.43250  -0.40378
 Alpha  occ. eigenvalues --   -0.40152  -0.34752  -0.34482  -0.34327  -0.32802
 Alpha  occ. eigenvalues --   -0.27294
 Alpha virt. eigenvalues --    0.02776   0.04562   0.07181   0.09187   0.10227
 Alpha virt. eigenvalues --    0.13284   0.13422   0.14587   0.15445   0.16594
 Alpha virt. eigenvalues --    0.17123   0.17613   0.18035   0.18693   0.19032

 Mulliken charges:
               1
     1  C   -0.475139
     2  C    0.267561
     3  O   -0.560507
     4  C    0.212572
     5  C   -0.312464
     6  H    0.171615
     7  H    0.164957
     8  H    0.157205
     9  N   -0.213432
    10  H    0.286351
    11  H    0.299694
    12  C    0.185984
    13  C   -0.310072
    14  C   -0.149707
    15  C   -0.150969
    16  C   -0.123581
    17  C   -0.241453
    18  H    0.186077
    19  H    0.148517
    20  H    0.148092
    21  H    0.147662
    22  H    0.149381
    23  Cl  -0.158390
    24  H    0.130967
    25  N   -0.461773
    26  H    0.245903
    27  H    0.254949
 Sum of Mulliken charges =  -0.00000

 Dipole moment (field-independent basis, Debye):
    X=             -5.5670    Y=              7.7490    Z=              6.8432  Tot=             11.7417
 Quadrupole moment (field-independent basis, Debye-Ang):
   XX=            -90.1963   YY=           -100.8604   ZZ=            -79.8553
   XY=             21.0311   XZ=              4.9227   YZ=             -3.9412

  Exact polarizability: 256.070  -8.643 207.913  -4.911 -14.234 174.174
 Approx polarizability: 192.078  -4.318 178.773  -2.398 -15.153 149.693

 ******    1 imaginary frequencies (negative Signs) ******

                      1                      2                      3
                      A                      A                      A
 Frequencies --   -343.9766                44.2931                59.4170
 Red. masses --      5.6505                 3.3526                 3.5656
 Frc consts  --      0.3939                 0.0039                 0.0074
 IR Inten    --    534.2772                 0.8961                 2.5950

                      4                      5                      6
                      A                      A                      A
 Frequencies --     79.9611                94.8023               131.0315
 Red. masses --      4.6894                 4.2303                 5.0730
 Frc consts  --      0.0177                 0.0224                 0.0513
 IR Inten    --      7.6417                 6.6284                20.8802

                      7                      8                      9
                      A                      A                      A
 Frequencies --    156.9997               222.4829               239.5063
 Red. masses --      4.2464                 3.1200                 4.0812
 Frc consts  --      0.0617                 0.0910                 0.1379
 IR Inten    --      9.0588                 7.1923                 1.1676

                     10                     11                     12
                      A                      A                      A
 Frequencies --    247.6915               277.1222               291.9597
 Red. masses --      1.7351                 4.0656                 2.8555
 Frc consts  --      0.0627                 0.1840                 0.1434
 IR Inten    --      1.0268                 1.4842                12.5473

                     13                     14                     15
                      A                      A                      A
 Frequencies --    310.6837               342.9876               376.6040
 Red. masses --      3.2487                 5.2151                 4.7613
 Frc consts  --      0.1848                 0.3615                 0.3979
 IR Inten    --      5.7150                28.7095                29.9639

                     16                     17                     18
                      A                      A                      A
 Frequencies --    421.6322               424.8605               474.8532
 Red. masses --      2.6927                 1.3275                 1.9934
 Frc consts  --      0.2820                 0.1412                 0.2648
 IR Inten    --     24.0692               368.6449                 6.7203

                     19                     20                     21
                      A                      A                      A
 Frequencies --    511.1160               568.1667               578.0494
 Red. masses --      1.7554                 2.3227                 2.4827
 Frc consts  --      0.2702                 0.4418                 0.4888
 IR Inten    --     41.8193                40.2105                65.2289

                     22                     23                     24
                      A                      A                      A
 Frequencies --    608.6329               637.7195               668.3340
 Red. masses --      3.2449                 5.7692                 4.7085
 Frc consts  --      0.7082                 1.3824                 1.2391
 IR Inten    --    173.3740                 1.3924                36.1929

                     25                     26                     27
                      A                      A                      A
 Frequencies --    676.3688               727.2394               781.3597
 Red. masses --      1.6611                 1.6809                 3.1956
 Frc consts  --      0.4477                 0.5238                 1.1495
 IR Inten    --     94.0885                72.7950                19.8411

                     28                     29                     30
                      A                      A                      A
 Frequencies --    798.2423               810.7880               879.1032
 Red. masses --      2.4092                 2.1144                 1.2488
 Frc consts  --      0.9045                 0.8189                 0.5686
 IR Inten    --     48.4326               141.5837                 0.7541

                     31                     32                     33
                      A                      A                      A
 Frequencies --    894.7165               943.5889               969.9368
 Red. masses --      5.0699                 3.1048                 1.5651
 Frc consts  --      2.3912                 1.6287                 0.8675
 IR Inten    --     15.4045                46.7324                 3.8289

                     34                     35                     36
                      A                      A                      A
 Frequencies --   1018.7513              1024.7343              1036.0873
 Red. masses --      1.3605                 5.9552                 1.3058
 Frc consts  --      0.8319                 3.6844                 0.8259
 IR Inten    --      0.2744                 2.8826                 0.1607

                     37                     38                     39
                      A                      A                      A
 Frequencies --   1040.7426              1065.5318              1070.3904
 Red. masses --      1.2518                 2.2599                 2.5732
 Frc consts  --      0.7988                 1.5118                 1.7370
 IR Inten    --     25.4077                 8.8332                23.9524

                     40                     41                     42
                      A                      A                      A
 Frequencies --   1099.4131              1116.1918              1130.1729
 Red. masses --      1.4056                 1.6582                 1.5949
 Frc consts  --      1.0010                 1.2172                 1.2003
 IR Inten    --    137.0463                68.6255                34.7981

                     43                     44                     45
                      A                      A                      A
 Frequencies --   1188.7577              1212.0824              1228.8859
 Red. masses --      1.1374                 3.2226                 1.1431
 Frc consts  --      0.9470                 2.7895                 1.0171
 IR Inten    --      3.0069               271.0200                10.1397

                     46                     47                     48
                      A                      A                      A
 Frequencies --   1266.8533              1286.2711              1326.1922
 Red. masses --      1.8934                 1.3302                 4.2600
 Frc consts  --      1.7904                 1.2967                 4.4144
 IR Inten    --    223.5331                57.4821                 9.3517

                     49                     50                     51
                      A                      A                      A
 Frequencies --   1350.9553              1376.6119              1388.4084
 Red. masses --      1.2950                 1.4004                 2.8875
 Frc consts  --      1.3926                 1.5636                 3.2795
 IR Inten    --     19.9523                 9.9744               411.6830

                     52                     53                     54
                      A                      A                      A
 Frequencies --   1449.6159              1467.8316              1494.1528
 Red. masses --      1.5201                 2.0193                 2.2883
 Frc consts  --      1.8820                 2.5633                 3.0098
 IR Inten    --    235.1022               276.9915                57.8098

                     55                     56                     57
                      A                      A                      A
 Frequencies --   1497.3514              1503.9205              1547.2654
 Red. masses --      1.0531                 1.0366                 2.2234
 Frc consts  --      1.3912                 1.3813                 3.1361
 IR Inten    --     67.8826                15.1102                 7.3336

                     58                     59                     60
                      A                      A                      A
 Frequencies --   1605.7478              1635.2674              1637.1763
 Red. masses --      1.9430                 1.1039                 2.1325
 Frc consts  --      2.9517                 1.7393                 3.3676
 IR Inten    --    909.5420                85.9046               646.0833

                     61                     62                     63
                      A                      A                      A
 Frequencies --   1653.8049              1676.1915              3088.0842
 Red. masses --      5.4898                 5.7255                 1.0326
 Frc consts  --      8.8465                 9.4778                 5.8018
 IR Inten    --      1.3527                 1.5961                21.5636

                     64                     65                     66
                      A                      A                      A
 Frequencies --   3173.1713              3192.3351              3194.4047
 Red. masses --      1.1054                 1.1065                 1.0880
 Frc consts  --      6.5576                 6.6437                 6.5412
 IR Inten    --      3.1606                 6.6379                 5.6742

                     67                     68                     69
                      A                      A                      A
 Frequencies --   3203.3233              3213.1193              3223.6628
 Red. masses --      1.0882                 1.0930                 1.0875
 Frc consts  --      6.5792                 6.6485                 6.6587
 IR Inten    --      1.6172                20.3456                 1.6936

                     70                     71                     72
                      A                      A                      A
 Frequencies --   3225.0883              3242.6278              3498.0656
 Red. masses --      1.0963                 1.0925                 1.0515
 Frc consts  --      6.7182                 6.7682                 7.5804
 IR Inten    --     19.8940                 3.2042                56.7987

                     73                     74                     75
                      A                      A                      A
 Frequencies --   3576.9657              3606.1156              3724.1018
 Red. masses --      1.0963                 1.0462                 1.1021
 Frc consts  --      8.2647                 8.0154                 9.0055
 IR Inten    --     59.2736                31.8683               100.6432

 - Thermochemistry -
 -------------------
 Temperature   298.150 Kelvin.  Pressure   1.00000 Atm.
 Atom     1 has atomic number  6 and mass  12.00000

 Molecular mass:   212.07164 amu.
 Principal axes and moments of inertia in atomic units:
                           1         2         3
     Eigenvalues --  1813.272234623.654924994.83516
           X            0.99983   0.01347   0.01261
           Y           -0.01376   0.99964   0.02316
           Z           -0.01229  -0.02333   0.99965
 This molecule is an asymmetric top.
 Rotational symmetry number  1.
 Warning -- assumption of classical behavior for rotation
           may cause significant error
 Rotational temperatures (Kelvin)      0.04777     0.01873     0.01734
 Rotational constants (GHZ):           0.99530     0.39033     0.36132
    1 imaginary frequencies ignored.
 Zero-point vibrational energy     579032.5 (Joules/Mol)
                                  138.39209 (Kcal/Mol)
 Warning -- explicit consideration of  21 degrees of freedom as
           vibrations may cause significant error
 Vibrational temperatures:     63.73    85.49   115.05   136.40   188.53
          (Kelvin)            225.89   320.10   344.60   356.37   398.72
                              420.06   447.00   493.48   541.85   606.63
                              611.28   683.21   735.38   817.47   831.68
                              875.69   917.54   961.58   973.14  1046.34
                             1124.20  1148.49  1166.54  1264.83  1287.30
                             1357.61  1395.52  1465.76  1474.36  1490.70
                             1497.40  1533.06  1540.05  1581.81  1605.95
                             1626.07  1710.36  1743.92  1768.09  1822.72
                             1850.66  1908.09  1943.72  1980.64  1997.61
                             2085.67  2111.88  2149.75  2154.35  2163.81
                             2226.17  2310.31  2352.79  2355.53  2379.46
                             2411.67  4443.06  4565.49  4593.06  4596.04
                             4608.87  4622.96  4638.13  4640.18  4665.42
                             5032.94  5146.46  5188.40  5358.15

 Zero-point correction=                           0.220542 (Hartree/Particle)
 Thermal correction to Energy=                    0.234250
 Thermal correction to Enthalpy=                  0.235194
 Thermal correction to Gibbs Free Energy=         0.179727
 Sum of electronic and zero-point Energies=          -1033.608147
 Sum of electronic and thermal Energies=             -1033.594439
 Sum of electronic and thermal Enthalpies=           -1033.593495
 Sum of electronic and thermal Free Energies=        -1033.648963

                     E (Thermal)             CV                S
                      KCal/Mol        Cal/Mol-Kelvin    Cal/Mol-Kelvin
 Total                  146.994             51.981            116.742
 Electronic               0.000              0.000              0.000
 Translational            0.889              2.981             41.959
 Rotational               0.889              2.981             32.104
 Vibrational            145.217             46.020             42.679
 Vibration     1          0.595              1.980              5.057
 Vibration     2          0.597              1.974              4.476
 Vibration     3          0.600              1.963              3.892
 Vibration     4          0.603              1.953              3.558
 Vibration     5          0.612              1.922              2.931
 Vibration     6          0.621              1.895              2.586
 Vibration     7          0.648              1.807              1.939
 Vibration     8          0.657              1.780              1.807
 Vibration     9          0.661              1.767              1.747
 Vibration    10          0.678              1.716              1.551
 Vibration    11          0.687              1.689              1.463
 Vibration    12          0.700              1.653              1.359
 Vibration    13          0.722              1.590              1.198
 Vibration    14          0.747              1.520              1.053
 Vibration    15          0.784              1.423              0.886
 Vibration    16          0.787              1.416              0.876
 Vibration    17          0.832              1.306              0.724
 Vibration    18          0.866              1.225              0.631
 Vibration    19          0.924              1.100              0.508
 Vibration    20          0.935              1.079              0.489
 Vibration    21          0.968              1.014              0.435

 Optimization completed.
    -- Stationary point found.
 Normal termination of Gaussian 16 at Thu Feb  4 13:06:13 2021.
