 Gaussian 16, Revision A.03,
 Gaussian 16:  ES64L-G16RevA.03 25-Dec-2016

 ----------------------------------------------------------------------
 # wB97XD def2tzvp, opt=(ts, noeigen, calcfc, maxcycles=70, maxstep=8),
  freq=noraman, scrf=(iefpcm, solvent=water)
 ----------------------------------------------------------------------

 ------------------------
 1_iteration/TS-117-1.out
 ------------------------
 Symbolic Z-matrix:
 Charge =  0 Multiplicity = 1

 SCF Done:  E(RwB97XD) =  -1112.45511257     A.U. after   15 cycles
 SCF Done:  E(RwB97XD) =  -1112.45538595     A.U. after   12 cycles
 SCF Done:  E(RwB97XD) =  -1112.45541255     A.U. after   11 cycles
 SCF Done:  E(RwB97XD) =  -1112.45544187     A.U. after   11 cycles
 SCF Done:  E(RwB97XD) =  -1112.45544390     A.U. after    9 cycles
 SCF Done:  E(RwB97XD) =  -1112.45544399     A.U. after    8 cycles
 SCF Done:  E(RwB97XD) =  -1112.45544398     A.U. after    7 cycles
 Optimization completed.
    -- Stationary point found.
 Normal termination of Gaussian 16 at Sun Feb  7 03:00:40 2021.

 ---------------------------------------------------------------------
 #N Geom=AllCheck Guess=TCheck SCRF=Check GenChk RwB97XD/def2TZVP Freq
 ---------------------------------------------------------------------

 Structure from the checkpoint file:  "/beegfs/scratch/user/q/tla25/Gau-14478.chk"
 ------------------------
 1_iteration/TS-117-1.out
 ------------------------
 Charge =  0 Multiplicity = 1

                         Standard orientation:
 ---------------------------------------------------------------------
 Center     Atomic      Atomic             Coordinates (Angstroms)
 Number     Number       Type             X           Y           Z
 ---------------------------------------------------------------------
      1          6           0       -0.995770   -0.397674    0.204596
      2          6           0       -2.370880    0.018969    0.178734
      3          8           0       -2.699040    1.225965    0.244489
      4          6           0        0.071864    0.515868    0.417792
      5          6           0        0.827504    2.923681   -1.076106
      6          1           0        0.637331    3.497528   -1.984064
      7          1           0        0.690030    3.573977   -0.215805
      8          1           0        1.855724    2.563848   -1.090482
      9          7           0       -0.079345    1.782443   -0.972958
     10          1           0       -1.045659    2.053130   -0.788672
     11          1           0       -0.079195    1.230994   -1.821845
     12          6           0        1.482897    0.006986    0.245156
     13          6           0        2.340015   -0.082327    1.337675
     14          6           0        3.639543   -0.548850    1.190909
     15          6           0        4.111924   -0.919766   -0.056598
     16          6           0        3.269125   -0.831109   -1.156068
     17          6           0        1.969787   -0.380267   -1.002671
     18          1           0        2.000439    0.206208    2.322408
     19          1           0        4.283220   -0.614212    2.058929
     20          1           0        5.127793   -1.274752   -0.174109
     21          1           0        3.622775   -1.118206   -2.138120
     22          1           0        1.329115   -0.346933   -1.873820
     23          6           0       -0.079024    1.482966    1.583235
     24          1           0       -0.038084    0.916122    2.513451
     25          1           0        0.724799    2.218131    1.599863
     26          1           0       -1.039958    1.984377    1.542267
     27         17           0       -0.662605   -2.039346   -0.378224
     28          7           0       -3.342298   -0.921279    0.040713
     29          6           0       -4.740016   -0.572367   -0.014765
     30          1           0       -3.082411   -1.889761    0.042202
     31          1           0       -5.313002   -1.471332   -0.233818
     32          1           0       -5.097095   -0.153837    0.930052
     33          1           0       -4.929536    0.161076   -0.800158
 ---------------------------------------------------------------------

 SCF Done:  E(RwB97XD) =  -1112.45544398     A.U. after    1 cycles

 The electronic state is 1-A.
 Alpha  occ. eigenvalues -- -101.68204 -19.19530 -14.48051 -14.43911 -10.37186
 Alpha  occ. eigenvalues --  -10.36034 -10.31684 -10.30770 -10.30428 -10.29566
 Alpha  occ. eigenvalues --  -10.29493 -10.29399 -10.29274 -10.29233 -10.29182
 Alpha  occ. eigenvalues --  -10.27460  -9.56736  -7.31345  -7.30550  -7.30511
 Alpha  occ. eigenvalues --   -1.12057  -1.03861  -1.00760  -0.97682  -0.94907
 Alpha  occ. eigenvalues --   -0.89771  -0.85563  -0.84103  -0.80932  -0.79303
 Alpha  occ. eigenvalues --   -0.76435  -0.72491  -0.70656  -0.67343  -0.65481
 Alpha  occ. eigenvalues --   -0.62976  -0.60894  -0.58912  -0.56466  -0.55962
 Alpha  occ. eigenvalues --   -0.55536  -0.54199  -0.53920  -0.52868  -0.52388
 Alpha  occ. eigenvalues --   -0.51269  -0.50036  -0.48609  -0.47913  -0.47591
 Alpha  occ. eigenvalues --   -0.47334  -0.46478  -0.46274  -0.45429  -0.43816
 Alpha  occ. eigenvalues --   -0.42737  -0.42073  -0.40456  -0.39458  -0.34052
 Alpha  occ. eigenvalues --   -0.33549  -0.33378  -0.32874  -0.25465
 Alpha virt. eigenvalues --    0.03138   0.05056   0.07867   0.10387   0.11881
 Alpha virt. eigenvalues --    0.12874   0.13686   0.13915   0.15100   0.15385
 Alpha virt. eigenvalues --    0.16409   0.16982   0.17560   0.17756   0.18610

 Mulliken charges:
               1
     1  C   -0.292310
     2  C    0.401712
     3  O   -0.611076
     4  C    0.294211
     5  C   -0.293407
     6  H    0.154534
     7  H    0.159137
     8  H    0.155147
     9  N   -0.311834
    10  H    0.278229
    11  H    0.269238
    12  C    0.190668
    13  C   -0.242909
    14  C   -0.151139
    15  C   -0.148178
    16  C   -0.127662
    17  C   -0.316942
    18  H    0.150905
    19  H    0.143543
    20  H    0.145339
    21  H    0.144728
    22  H    0.148500
    23  C   -0.455180
    24  H    0.146272
    25  H    0.152535
    26  H    0.168184
    27  Cl  -0.198242
    28  N   -0.334261
    29  C   -0.245090
    30  H    0.243591
    31  H    0.137524
    32  H    0.121053
    33  H    0.123179
 Sum of Mulliken charges =  -0.00000

 Dipole moment (field-independent basis, Debye):
    X=              3.8338    Y=              2.6612    Z=             -2.4942  Tot=              5.2916
 Quadrupole moment (field-independent basis, Debye-Ang):
   XX=            -97.6037   YY=            -99.9266   ZZ=            -94.3344
   XY=              9.1471   XZ=              1.9552   YZ=             -4.0745

  Exact polarizability: 297.362  -0.151 222.721  -3.729   3.850 213.842
 Approx polarizability: 217.116  -6.098 186.753  -0.942   4.781 187.189

 ******    1 imaginary frequencies (negative Signs) ******

                      1                      2                      3
                      A                      A                      A
 Frequencies --   -365.0511                32.6131                50.0289
 Red. masses --      5.9487                 4.1716                 3.1261
 Frc consts  --      0.4671                 0.0026                 0.0046
 IR Inten    --    753.5488                 0.1914                19.3643

                      4                      5                      6
                      A                      A                      A
 Frequencies --     65.5184                80.3980                87.3015
 Red. masses --      5.2532                 3.4845                 3.5472
 Frc consts  --      0.0133                 0.0133                 0.0159
 IR Inten    --     12.0338                 3.8433                 2.2741

                      7                      8                      9
                      A                      A                      A
 Frequencies --     96.0143               127.5685               144.8871
 Red. masses --      2.9050                 1.7362                 1.5087
 Frc consts  --      0.0158                 0.0166                 0.0187
 IR Inten    --      5.8536                21.7272                 4.3088

                     10                     11                     12
                      A                      A                      A
 Frequencies --    153.3908               181.3342               207.1613
 Red. masses --      1.7787                 3.7186                 2.2435
 Frc consts  --      0.0247                 0.0720                 0.0567
 IR Inten    --     11.4259                11.0028                 2.5771

                     13                     14                     15
                      A                      A                      A
 Frequencies --    242.1504               262.9564               271.4264
 Red. masses --      4.5168                 4.8113                 2.9809
 Frc consts  --      0.1560                 0.1960                 0.1294
 IR Inten    --      7.6889                 7.0674                16.2506

                     16                     17                     18
                      A                      A                      A
 Frequencies --    301.7564               308.5372               330.6133
 Red. masses --      1.3818                 2.9690                 2.7437
 Frc consts  --      0.0741                 0.1665                 0.1767
 IR Inten    --      7.3492                62.8256                17.1294

                     19                     20                     21
                      A                      A                      A
 Frequencies --    340.3848               373.5668               388.4315
 Red. masses --      3.2657                 1.8290                 2.0623
 Frc consts  --      0.2229                 0.1504                 0.1833
 IR Inten    --      5.8268                37.8402                68.5043

                     22                     23                     24
                      A                      A                      A
 Frequencies --    423.4237               444.9867               467.8788
 Red. masses --      2.9003                 5.1403                 5.7591
 Frc consts  --      0.3064                 0.5997                 0.7428
 IR Inten    --      0.1803                11.2882                30.5481

                     25                     26                     27
                      A                      A                      A
 Frequencies --    515.0241               571.3588               627.7347
 Red. masses --      3.8514                 3.7461                 4.0024
 Frc consts  --      0.6019                 0.7205                 0.9292
 IR Inten    --     72.0120               133.4042                36.3633

                     28                     29                     30
                      A                      A                      A
 Frequencies --    638.3818               716.1375               735.2751
 Red. masses --      6.3895                 1.4550                 1.3640
 Frc consts  --      1.5342                 0.4397                 0.4345
 IR Inten    --      0.7473                63.2110                72.6046

                     31                     32                     33
                      A                      A                      A
 Frequencies --    746.7556               777.2637               800.5059
 Red. masses --      5.1062                 8.8043                 2.2192
 Frc consts  --      1.6777                 3.1339                 0.8379
 IR Inten    --      8.5771                52.5434                14.7701

                     34                     35                     36
                      A                      A                      A
 Frequencies --    832.0963               876.9586               960.2826
 Red. masses --      3.3579                 1.2472                 1.4171
 Frc consts  --      1.3698                 0.5651                 0.7699
 IR Inten    --      7.3766                 0.8940                 2.3811

                     37                     38                     39
                      A                      A                      A
 Frequencies --    984.1116              1000.3564              1013.3757
 Red. masses --      3.0715                 2.2863                 1.3898
 Frc consts  --      1.7526                 1.3480                 0.8409
 IR Inten    --     72.4140                12.1366                 0.5890

                     40                     41                     42
                      A                      A                      A
 Frequencies --   1026.3556              1027.6156              1031.2950
 Red. masses --      1.3729                 4.0958                 1.3224
 Frc consts  --      0.8521                 2.5483                 0.8287
 IR Inten    --     21.4927                10.8904                 0.0184

                     43                     44                     45
                      A                      A                      A
 Frequencies --   1056.0225              1060.9512              1067.5157
 Red. masses --      1.6654                 1.9278                 1.7877
 Frc consts  --      1.0942                 1.2785                 1.2003
 IR Inten    --     70.2464                32.3389                76.7489

                     46                     47                     48
                      A                      A                      A
 Frequencies --   1096.6612              1121.1480              1129.4304
 Red. masses --      2.1643                 1.8112                 1.7082
 Frc consts  --      1.5336                 1.3414                 1.2838
 IR Inten    --    100.9896                51.1499                19.1569

                     49                     50                     51
                      A                      A                      A
 Frequencies --   1157.8533              1166.0098              1186.9552
 Red. masses --      1.2854                 2.0963                 1.1288
 Frc consts  --      1.0153                 1.6792                 0.9370
 IR Inten    --      1.8506                62.4192                 0.0519

                     52                     53                     54
                      A                      A                      A
 Frequencies --   1189.9967              1221.2702              1234.7500
 Red. masses --      2.5030                 1.1603                 1.3358
 Frc consts  --      2.0883                 1.0197                 1.1999
 IR Inten    --     11.4553                11.4530                68.2155

                     55                     56                     57
                      A                      A                      A
 Frequencies --   1266.7249              1301.6773              1324.6272
 Red. masses --      4.4795                 2.1984                 4.7469
 Frc consts  --      4.2349                 2.1947                 4.9073
 IR Inten    --     53.5965               279.8103                51.1196

                     58                     59                     60
                      A                      A                      A
 Frequencies --   1340.5261              1369.7198              1386.8234
 Red. masses --      1.3339                 1.4038                 2.8874
 Frc consts  --      1.4123                 1.5518                 3.2719
 IR Inten    --      8.8711                 7.2153               642.8399

                     61                     62                     63
                      A                      A                      A
 Frequencies --   1406.6777              1454.1053              1457.9616
 Red. masses --      1.3990                 1.2615                 1.2075
 Frc consts  --      1.6310                 1.5715                 1.5123
 IR Inten    --    137.4514                60.9596                 4.4496

                     64                     65                     66
                      A                      A                      A
 Frequencies --   1477.7864              1485.1583              1492.7919
 Red. masses --      1.0586                 1.2360                 1.1653
 Frc consts  --      1.3621                 1.6062                 1.5300
 IR Inten    --     30.7370                36.6910                 1.7692

                     67                     68                     69
                      A                      A                      A
 Frequencies --   1495.9749              1501.6426              1509.4395
 Red. masses --      1.4804                 1.0507                 1.1017
 Frc consts  --      1.9520                 1.3959                 1.4789
 IR Inten    --     37.0872                16.1189                36.2204

                     70                     71                     72
                      A                      A                      A
 Frequencies --   1512.0723              1544.0281              1549.6762
 Red. masses --      1.0769                 2.0855                 2.2822
 Frc consts  --      1.4506                 2.9293                 3.2292
 IR Inten    --     36.2082               830.7929                18.7575

                     73                     74                     75
                      A                      A                      A
 Frequencies --   1599.5188              1654.0233              1660.9996
 Red. masses --      6.1008                 5.1824                 1.1130
 Frc consts  --      9.1963                 8.3533                 1.8092
 IR Inten    --    428.5712                 1.3959                70.7388

                     76                     77                     78
                      A                      A                      A
 Frequencies --   1678.1230              3041.8462              3067.5151
 Red. masses --      5.7603                 1.0395                 1.0349
 Frc consts  --      9.5574                 5.6667                 5.7373
 IR Inten    --      0.1292               104.5304                51.0715

                     79                     80                     81
                      A                      A                      A
 Frequencies --   3077.1489              3101.6872              3142.6015
 Red. masses --      1.0386                 1.0995                 1.1040
 Frc consts  --      5.7944                 6.2321                 6.4238
 IR Inten    --     31.9943                48.0376                19.6304

                     82                     83                     84
                      A                      A                      A
 Frequencies --   3145.5356              3153.6439              3172.5867
 Red. masses --      1.1022                 1.1017                 1.1045
 Frc consts  --      6.4255                 6.4556                 6.5498
 IR Inten    --     25.7966                27.3737                15.1214

                     85                     86                     87
                      A                      A                      A
 Frequencies --   3195.4262              3197.1753              3205.2170
 Red. masses --      1.1005                 1.0860                 1.0890
 Frc consts  --      6.6205                 6.5402                 6.5916
 IR Inten    --      2.2410                 0.8678                 5.9805

                     88                     89                     90
                      A                      A                      A
 Frequencies --   3214.4443              3223.0722              3232.7473
 Red. masses --      1.0931                 1.0967                 1.0942
 Frc consts  --      6.6546                 6.7125                 6.7374
 IR Inten    --     33.1297                20.8441                 9.6922

                     91                     92                     93
                      A                      A                      A
 Frequencies --   3449.4517              3592.1935              3687.0188
 Red. masses --      1.0634                 1.0846                 1.0778
 Frc consts  --      7.4552                 8.2458                 8.6325
 IR Inten    --    104.8360                45.4089                80.4909

 - Thermochemistry -
 -------------------
 Temperature   298.150 Kelvin.  Pressure   1.00000 Atm.
 Atom     1 has atomic number  6 and mass  12.00000

 Molecular mass:   240.10294 amu.
 Principal axes and moments of inertia in atomic units:
                           1         2         3
     Eigenvalues --  2203.749555741.546186706.23931
           X            0.99998   0.00575  -0.00054
           Y           -0.00576   0.99989  -0.01367
           Z            0.00046   0.01367   0.99991
 This molecule is an asymmetric top.
 Rotational symmetry number  1.
 Warning -- assumption of classical behavior for rotation
           may cause significant error
 Rotational temperatures (Kelvin)      0.03930     0.01509     0.01292
 Rotational constants (GHZ):           0.81894     0.31433     0.26911
    1 imaginary frequencies ignored.
 Zero-point vibrational energy     725661.7 (Joules/Mol)
                                  173.43732 (Kcal/Mol)
 Warning -- explicit consideration of  25 degrees of freedom as
           vibrations may cause significant error
 Vibrational temperatures:     46.92    71.98    94.27   115.67   125.61
          (Kelvin)            138.14   183.54   208.46   220.70   260.90
                              298.06   348.40   378.34   390.52   434.16
                              443.92   475.68   489.74   537.48   558.87
                              609.21   640.24   673.17   741.00   822.06
                              903.17   918.49  1030.36  1057.90  1074.41
                             1118.31  1151.75  1197.20  1261.75  1381.63
                             1415.92  1439.29  1458.02  1476.70  1478.51
                             1483.80  1519.38  1526.47  1535.92  1577.85
                             1613.08  1625.00  1665.89  1677.63  1707.76
                             1712.14  1757.14  1776.53  1822.53  1872.82
                             1905.84  1928.72  1970.72  1995.33  2023.90
                             2092.13  2097.68  2126.21  2136.81  2147.79
                             2152.37  2160.53  2171.75  2175.53  2221.51
                             2229.64  2301.35  2379.77  2389.81  2414.44
                             4376.54  4413.47  4427.33  4462.64  4521.50
                             4525.72  4537.39  4564.64  4597.51  4600.02
                             4611.59  4624.87  4637.28  4651.20  4962.99
                             5168.37  5304.80

 Zero-point correction=                           0.276390 (Hartree/Particle)
 Thermal correction to Energy=                    0.293501
 Thermal correction to Enthalpy=                  0.294446
 Thermal correction to Gibbs Free Energy=         0.230948
 Sum of electronic and zero-point Energies=          -1112.179054
 Sum of electronic and thermal Energies=             -1112.161943
 Sum of electronic and thermal Enthalpies=           -1112.160998
 Sum of electronic and thermal Free Energies=        -1112.224496

                     E (Thermal)             CV                S
                      KCal/Mol        Cal/Mol-Kelvin    Cal/Mol-Kelvin
 Total                  184.175             62.643            133.642
 Electronic               0.000              0.000              0.000
 Translational            0.889              2.981             42.329
 Rotational               0.889              2.981             32.806
 Vibrational            182.397             56.682             58.507
 Vibration     1          0.594              1.983              5.664
 Vibration     2          0.595              1.978              4.816
 Vibration     3          0.597              1.971              4.284
 Vibration     4          0.600              1.962              3.881
 Vibration     5          0.601              1.958              3.720
 Vibration     6          0.603              1.952              3.534
 Vibration     7          0.611              1.926              2.982
 Vibration     8          0.616              1.908              2.738
 Vibration     9          0.619              1.899              2.630
 Vibration    10          0.630              1.865              2.315
 Vibration    11          0.641              1.830              2.069
 Vibration    12          0.658              1.776              1.787
 Vibration    13          0.670              1.741              1.642
 Vibration    14          0.675              1.726              1.587
 Vibration    15          0.694              1.670              1.407
 Vibration    16          0.698              1.657              1.370
 Vibration    17          0.713              1.614              1.257
 Vibration    18          0.720              1.595              1.210
 Vibration    19          0.745              1.526              1.065
 Vibration    20          0.757              1.495              1.006
 Vibration    21          0.786              1.419              0.880
 Vibration    22          0.804              1.372              0.811
 Vibration    23          0.825              1.321              0.744
 Vibration    24          0.870              1.217              0.622
 Vibration    25          0.928              1.093              0.502

 Optimization completed.
    -- Stationary point found.
 Normal termination of Gaussian 16 at Sun Feb  7 04:19:11 2021.
