 Gaussian 16, Revision A.03,
 Gaussian 16:  ES64L-G16RevA.03 25-Dec-2016

 ----------------------------------------------------------------------
 # wB97XD def2tzvp, opt=(ts, noeigen, calcfc, maxcycles=70, maxstep=5),
  freq=noraman, scrf=(iefpcm, solvent=water)
 ----------------------------------------------------------------------

 ------------------------
 2_iteration/TS-118-2.out
 ------------------------
 Symbolic Z-matrix:
 Charge =  0 Multiplicity = 1

 SCF Done:  E(RwB97XD) =  -1151.75630860     A.U. after   15 cycles
 SCF Done:  E(RwB97XD) =  -1151.75631604     A.U. after   10 cycles
 SCF Done:  E(RwB97XD) =  -1151.75631606     A.U. after    7 cycles
 Optimization completed.
    -- Stationary point found.
 Normal termination of Gaussian 16 at Sun Feb  7 11:43:06 2021.

 ---------------------------------------------------------------------
 #N Geom=AllCheck Guess=TCheck SCRF=Check GenChk RwB97XD/def2TZVP Freq
 ---------------------------------------------------------------------

 Structure from the checkpoint file:  "/beegfs/scratch/user/q/tla25/Gau-21266.chk"
 ------------------------
 2_iteration/TS-118-2.out
 ------------------------
 Charge =  0 Multiplicity = 1

                         Standard orientation:
 ---------------------------------------------------------------------
 Center     Atomic      Atomic             Coordinates (Angstroms)
 Number     Number       Type             X           Y           Z
 ---------------------------------------------------------------------
      1          6           0       -0.798211   -0.228658    0.024173
      2          6           0       -2.160513    0.262245    0.128916
      3          8           0       -2.399714    1.483008    0.262267
      4          6           0        0.299546    0.561350    0.442656
      5          6           0        1.089687    3.270853   -0.399174
      6          1           0        0.940969    4.014859   -1.182871
      7          1           0        0.821919    3.713107    0.557144
      8          1           0        2.139969    2.985295   -0.373167
      9          7           0        0.258204    2.088779   -0.632570
     10          1           0       -0.734941    2.273990   -0.465983
     11          1           0        0.340638    1.752931   -1.584634
     12          6           0        1.674290   -0.042284    0.253623
     13          6           0        2.520085    0.241140   -0.811623
     14          6           0        3.765689   -0.363642   -0.915638
     15          6           0        4.187245   -1.270807    0.041744
     16          6           0        3.347440   -1.571910    1.104602
     17          6           0        2.108250   -0.962608    1.208161
     18          1           0        2.224595    0.926308   -1.592613
     19          1           0        4.403878   -0.122781   -1.756386
     20          1           0        5.157874   -1.742859   -0.040616
     21          1           0        3.656106   -2.286077    1.857606
     22          1           0        1.461350   -1.221002    2.036455
     23          6           0        0.173529    1.246635    1.797980
     24          1           0        0.176097    0.489179    2.580453
     25          1           0        1.020249    1.908775    1.975122
     26          1           0       -0.753008    1.808459    1.871602
     27         17           0       -0.510102   -1.385187   -1.300368
     28          7           0       -3.197391   -0.616816    0.057894
     29          6           0       -3.081888   -2.023603    0.374485
     30          6           0       -4.547449   -0.115553   -0.071118
     31          1           0       -2.103169   -2.232441    0.797980
     32          1           0       -3.843224   -2.285961    1.114137
     33          1           0       -3.227350   -2.652167   -0.507893
     34          1           0       -4.538391    0.847111   -0.574802
     35          1           0       -5.135959   -0.822928   -0.657965
     36          1           0       -5.030041    0.007626    0.904548
 ---------------------------------------------------------------------

 SCF Done:  E(RwB97XD) =  -1151.75631606     A.U. after    1 cycles

 The electronic state is 1-A.
 Alpha  occ. eigenvalues -- -101.67690 -19.20259 -14.47902 -14.45241 -10.37568
 Alpha  occ. eigenvalues --  -10.35624 -10.31675 -10.30779 -10.30378 -10.30226
 Alpha  occ. eigenvalues --  -10.29399 -10.29205 -10.29179 -10.29153 -10.29141
 Alpha  occ. eigenvalues --  -10.28996 -10.27718  -9.56211  -7.30821  -7.30018
 Alpha  occ. eigenvalues --   -7.29995  -1.12796  -1.03837  -1.02630  -0.97558
 Alpha  occ. eigenvalues --   -0.94644  -0.89568  -0.85415  -0.84028  -0.81654
 Alpha  occ. eigenvalues --   -0.79940  -0.79306  -0.75762  -0.72110  -0.70738
 Alpha  occ. eigenvalues --   -0.66614  -0.63949  -0.61822  -0.59977  -0.58208
 Alpha  occ. eigenvalues --   -0.56451  -0.56182  -0.55677  -0.55559  -0.54695
 Alpha  occ. eigenvalues --   -0.53377  -0.52309  -0.50959  -0.50621  -0.48776
 Alpha  occ. eigenvalues --   -0.48247  -0.48168  -0.47734  -0.47552  -0.47048
 Alpha  occ. eigenvalues --   -0.46141  -0.45657  -0.44825  -0.43877  -0.42549
 Alpha  occ. eigenvalues --   -0.41701  -0.40052  -0.38791  -0.34175  -0.33922
 Alpha  occ. eigenvalues --   -0.33285  -0.31541  -0.25513
 Alpha virt. eigenvalues --    0.04794   0.04995   0.06687   0.09933   0.11045
 Alpha virt. eigenvalues --    0.12174   0.13484   0.13963   0.14880   0.15790
 Alpha virt. eigenvalues --    0.16676   0.16777   0.17401   0.17717   0.18014

 Mulliken charges:
               1
     1  C   -0.336942
     2  C    0.347855
     3  O   -0.595211
     4  C    0.278010
     5  C   -0.297010
     6  H    0.154623
     7  H    0.161869
     8  H    0.158497
     9  N   -0.318119
    10  H    0.274670
    11  H    0.272767
    12  C    0.271327
    13  C   -0.275541
    14  C   -0.150926
    15  C   -0.152366
    16  C   -0.141253
    17  C   -0.306989
    18  H    0.148557
    19  H    0.143022
    20  H    0.144170
    21  H    0.143143
    22  H    0.148591
    23  C   -0.446507
    24  H    0.142923
    25  H    0.150566
    26  H    0.162992
    27  Cl  -0.213570
    28  N   -0.110037
    29  C   -0.297651
    30  C   -0.294416
    31  H    0.155325
    32  H    0.133308
    33  H    0.136357
    34  H    0.137998
    35  H    0.137477
    36  H    0.132491
 Sum of Mulliken charges =  -0.00000

 Dipole moment (field-independent basis, Debye):
    X=              2.8866    Y=              2.7814    Z=             -0.1341  Tot=              4.0108
 Quadrupole moment (field-independent basis, Debye-Ang):
   XX=           -100.8245   YY=           -101.2998   ZZ=           -105.3982
   XY=              9.6633   XZ=             -1.9907   YZ=             -9.6652

  Exact polarizability: 302.034   3.891 257.153 -16.390 -13.375 220.235
 Approx polarizability: 223.314  -2.828 212.495 -12.354 -11.755 192.950

 ******    1 imaginary frequencies (negative Signs) ******

                      1                      2                      3
                      A                      A                      A
 Frequencies --   -359.0608                23.8572                53.5593
 Red. masses --      5.8126                 3.5145                 6.1205
 Frc consts  --      0.4415                 0.0012                 0.0103
 IR Inten    --    763.9045                 0.5507                 0.6906

                      4                      5                      6
                      A                      A                      A
 Frequencies --     68.2843                72.2597               105.9942
 Red. masses --      4.4082                 3.8276                 2.9919
 Frc consts  --      0.0121                 0.0118                 0.0198
 IR Inten    --      1.7603                10.2775                 0.3739

                      7                      8                      9
                      A                      A                      A
 Frequencies --    120.4358               130.2459               141.5102
 Red. masses --      2.8915                 1.6703                 2.5118
 Frc consts  --      0.0247                 0.0167                 0.0296
 IR Inten    --     17.9977                 7.5481                 5.7485

                     10                     11                     12
                      A                      A                      A
 Frequencies --    151.2915               177.0513               205.5568
 Red. masses --      1.3368                 1.7023                 2.1209
 Frc consts  --      0.0180                 0.0314                 0.0528
 IR Inten    --      1.3306                 1.8149                 4.5706

                     13                     14                     15
                      A                      A                      A
 Frequencies --    219.2834               230.9281               236.1495
 Red. masses --      4.0549                 4.3798                 1.8727
 Frc consts  --      0.1149                 0.1376                 0.0615
 IR Inten    --      7.4509                17.6602                 1.3633

                     16                     17                     18
                      A                      A                      A
 Frequencies --    267.0560               273.4768               294.2068
 Red. masses --      4.7026                 1.4926                 1.8877
 Frc consts  --      0.1976                 0.0658                 0.0963
 IR Inten    --     11.5187                 1.3028                15.0868

                     19                     20                     21
                      A                      A                      A
 Frequencies --    321.8269               324.3876               335.9445
 Red. masses --      2.7806                 2.9905                 3.1169
 Frc consts  --      0.1697                 0.1854                 0.2073
 IR Inten    --     57.8416                 4.2869                10.0854

                     22                     23                     24
                      A                      A                      A
 Frequencies --    386.8490               420.2787               434.4470
 Red. masses --      3.6726                 2.8755                 3.2399
 Frc consts  --      0.3238                 0.2993                 0.3603
 IR Inten    --     42.5002                 0.4806                 4.4535

                     25                     26                     27
                      A                      A                      A
 Frequencies --    470.8627               499.9082               538.3963
 Red. masses --      4.2869                 3.5278                 4.6399
 Frc consts  --      0.5600                 0.5194                 0.7924
 IR Inten    --      4.5998                41.9032               111.9658

                     28                     29                     30
                      A                      A                      A
 Frequencies --    567.4498               628.9540               639.1967
 Red. masses --      3.9335                 4.2670                 6.3329
 Frc consts  --      0.7462                 0.9945                 1.5245
 IR Inten    --    113.8446                32.5309                 4.7377

                     31                     32                     33
                      A                      A                      A
 Frequencies --    675.2677               724.8454               737.1343
 Red. masses --      5.2525                 1.5598                 1.3328
 Frc consts  --      1.4111                 0.4829                 0.4267
 IR Inten    --     13.8921                91.9825                49.8129

                     34                     35                     36
                      A                      A                      A
 Frequencies --    768.2718               791.0838               808.5106
 Red. masses --      6.6025                 2.8178                 3.1935
 Frc consts  --      2.2961                 1.0390                 1.2299
 IR Inten    --     68.1708                29.3859                10.1351

                     37                     38                     39
                      A                      A                      A
 Frequencies --    871.9932               917.4819               949.9222
 Red. masses --      1.2509                 4.0418                 1.4453
 Frc consts  --      0.5604                 2.0046                 0.7684
 IR Inten    --      0.2301                19.3693                 4.8337

                     40                     41                     42
                      A                      A                      A
 Frequencies --    986.9938              1008.9926              1024.8774
 Red. masses --      2.7333                 1.3814                 3.9063
 Frc consts  --      1.5688                 0.8286                 2.4175
 IR Inten    --     85.3802                 0.9359                 5.7245

                     43                     44                     45
                      A                      A                      A
 Frequencies --   1027.8279              1033.0006              1051.0055
 Red. masses --      1.3926                 1.3412                 1.8948
 Frc consts  --      0.8668                 0.8432                 1.2332
 IR Inten    --      1.6888                 3.4796                30.8059

                     46                     47                     48
                      A                      A                      A
 Frequencies --   1061.6488              1067.7431              1070.5312
 Red. masses --      2.4176                 1.5108                 1.9681
 Frc consts  --      1.6055                 1.0148                 1.3289
 IR Inten    --     21.0342               122.4684                14.1307

                     49                     50                     51
                      A                      A                      A
 Frequencies --   1091.5494              1109.0426              1128.8216
 Red. masses --      1.3916                 1.8133                 1.7412
 Frc consts  --      0.9769                 1.3141                 1.3072
 IR Inten    --     21.8738               145.1312                 3.8716

                     52                     53                     54
                      A                      A                      A
 Frequencies --   1134.2308              1135.8387              1170.0723
 Red. masses --      1.2336                 1.6463                 1.4024
 Frc consts  --      0.9351                 1.2514                 1.1312
 IR Inten    --      1.2332                78.0660                 7.5106

                     55                     56                     57
                      A                      A                      A
 Frequencies --   1185.7802              1219.5439              1230.2492
 Red. masses --      1.1268                 1.1255                 2.3934
 Frc consts  --      0.9335                 0.9862                 2.1343
 IR Inten    --      0.3592                 3.8197               241.7068

                     58                     59                     60
                      A                      A                      A
 Frequencies --   1254.0049              1263.6561              1316.1358
 Red. masses --      2.1915                 2.5459                 5.0651
 Frc consts  --      2.0305                 2.3952                 5.1694
 IR Inten    --     62.3677                85.1886                23.9999

                     61                     62                     63
                      A                      A                      A
 Frequencies --   1323.5618              1348.3773              1362.5905
 Red. masses --      4.4830                 1.3378                 1.4372
 Frc consts  --      4.6271                 1.4331                 1.5721
 IR Inten    --      3.4108                40.0009                 6.1945

                     64                     65                     66
                      A                      A                      A
 Frequencies --   1393.6779              1407.4342              1431.4202
 Red. masses --      2.6059                 1.3906                 1.6320
 Frc consts  --      2.9821                 1.6230                 1.9702
 IR Inten    --    692.2332               169.9663               127.9617

                     67                     68                     69
                      A                      A                      A
 Frequencies --   1444.4703              1461.9484              1472.5349
 Red. masses --      1.3772                 1.1985                 1.2026
 Frc consts  --      1.6930                 1.5092                 1.5364
 IR Inten    --    109.6283                10.4061                84.8181

                     70                     71                     72
                      A                      A                      A
 Frequencies --   1482.4607              1485.5338              1490.3496
 Red. masses --      1.1405                 1.2517                 1.6760
 Frc consts  --      1.4767                 1.6275                 2.1933
 IR Inten    --     28.6026                35.4980                 5.2575

                     73                     74                     75
                      A                      A                      A
 Frequencies --   1498.9677              1500.9751              1503.5665
 Red. masses --      1.0398                 1.0503                 1.0465
 Frc consts  --      1.3765                 1.3941                 1.3939
 IR Inten    --      8.2197                11.8249                19.6037

                     76                     77                     78
                      A                      A                      A
 Frequencies --   1507.2772              1513.9482              1530.7860
 Red. masses --      1.0689                 1.0581                 1.6699
 Frc consts  --      1.4308                 1.4288                 2.3055
 IR Inten    --     11.7442                26.8092               293.5188

                     79                     80                     81
                      A                      A                      A
 Frequencies --   1547.6437              1597.6839              1652.0226
 Red. masses --      2.3202                 4.7340                 5.1664
 Frc consts  --      3.2743                 7.1197                 8.3075
 IR Inten    --     14.9153               617.3131                 2.4904

                     82                     83                     84
                      A                      A                      A
 Frequencies --   1673.1700              1678.5208              3026.5938
 Red. masses --      1.3565                 2.9826                 1.0457
 Frc consts  --      2.2374                 4.9511                 5.6439
 IR Inten    --     59.7772                 7.3512                96.8695

                     85                     86                     87
                      A                      A                      A
 Frequencies --   3036.5390              3068.9297              3080.5836
 Red. masses --      1.0390                 1.0360                 1.0371
 Frc consts  --      5.6443                 5.7489                 5.7990
 IR Inten    --    125.4894                58.0612                28.6519

                     88                     89                     90
                      A                      A                      A
 Frequencies --   3089.5703              3099.9198              3145.9772
 Red. masses --      1.1024                 1.0954                 1.1028
 Frc consts  --      6.1997                 6.2020                 6.4308
 IR Inten    --     74.7524                25.5687                21.3095

                     91                     92                     93
                      A                      A                      A
 Frequencies --   3152.2554              3172.5339              3174.5030
 Red. masses --      1.1017                 1.0991                 1.0982
 Frc consts  --      6.4500                 6.5178                 6.5203
 IR Inten    --     20.6580                11.6143                16.9985

                     94                     95                     96
                      A                      A                      A
 Frequencies --   3174.5410              3183.8144              3196.3325
 Red. masses --      1.1041                 1.1025                 1.0858
 Frc consts  --      6.5558                 6.5846                 6.5361
 IR Inten    --     13.6586                 5.9040                 0.7818

                     97                     98                     99
                      A                      A                      A
 Frequencies --   3204.4446              3214.5500              3222.4278
 Red. masses --      1.0890                 1.0928                 1.0967
 Frc consts  --      6.5887                 6.6532                 6.7100
 IR Inten    --      4.6054                28.5360                26.9040

                    100                    101                    102
                      A                      A                      A
 Frequencies --   3234.0906              3377.6134              3575.9066
 Red. masses --      1.0938                 1.0692                 1.0809
 Frc consts  --      6.7402                 7.1866                 8.1433
 IR Inten    --     14.3924               222.1960                44.3235

 - Thermochemistry -
 -------------------
 Temperature   298.150 Kelvin.  Pressure   1.00000 Atm.
 Atom     1 has atomic number  6 and mass  12.00000

 Molecular mass:   254.11859 amu.
 Principal axes and moments of inertia in atomic units:
                           1         2         3
     Eigenvalues --  2548.929796215.337497356.81045
           X            0.99986   0.01601  -0.00480
           Y           -0.01617   0.99921  -0.03624
           Z            0.00421   0.03631   0.99933
 This molecule is an asymmetric top.
 Rotational symmetry number  1.
 Warning -- assumption of classical behavior for rotation
           may cause significant error
 Rotational temperatures (Kelvin)      0.03398     0.01394     0.01177
 Rotational constants (GHZ):           0.70804     0.29037     0.24532
    1 imaginary frequencies ignored.
 Zero-point vibrational energy     800874.5 (Joules/Mol)
                                  191.41359 (Kcal/Mol)
 Warning -- explicit consideration of  27 degrees of freedom as
           vibrations may cause significant error
 Vibrational temperatures:     34.33    77.06    98.25   103.97   152.50
          (Kelvin)            173.28   187.39   203.60   217.67   254.74
                              295.75   315.50   332.25   339.77   384.23
                              393.47   423.30   463.04   466.72   483.35
                              556.59   604.69   625.07   677.47   719.26
                              774.63   816.43   904.92   919.66   971.56
                             1042.89  1060.57  1105.37  1138.19  1163.27
                             1254.60  1320.05  1366.73  1420.06  1451.72
                             1474.57  1478.82  1486.26  1512.16  1527.48
                             1536.24  1540.26  1570.50  1595.66  1624.12
                             1631.91  1634.22  1683.47  1706.07  1754.65
                             1770.05  1804.23  1818.12  1893.63  1904.31
                             1940.01  1960.46  2005.19  2024.98  2059.49
                             2078.27  2103.42  2118.65  2132.93  2137.35
                             2144.28  2156.68  2159.57  2163.30  2168.64
                             2178.23  2202.46  2226.71  2298.71  2376.89
                             2407.32  2415.02  4354.59  4368.90  4415.51
                             4432.27  4445.20  4460.09  4526.36  4535.39
                             4564.57  4567.40  4567.46  4580.80  4598.81
                             4610.48  4625.02  4636.35  4653.14  4859.63
                             5144.93

 Zero-point correction=                           0.305037 (Hartree/Particle)
 Thermal correction to Energy=                    0.323158
 Thermal correction to Enthalpy=                  0.324102
 Thermal correction to Gibbs Free Energy=         0.258640
 Sum of electronic and zero-point Energies=          -1151.451279
 Sum of electronic and thermal Energies=             -1151.433158
 Sum of electronic and thermal Enthalpies=           -1151.432214
 Sum of electronic and thermal Free Energies=        -1151.497677

                     E (Thermal)             CV                S
                      KCal/Mol        Cal/Mol-Kelvin    Cal/Mol-Kelvin
 Total                  202.784             67.049            137.777
 Electronic               0.000              0.000              0.000
 Translational            0.889              2.981             42.498
 Rotational               0.889              2.981             33.121
 Vibrational            201.007             61.088             62.158
 Vibration     1          0.593              1.985              6.284
 Vibration     2          0.596              1.976              4.681
 Vibration     3          0.598              1.969              4.202
 Vibration     4          0.598              1.967              4.091
 Vibration     5          0.605              1.944              3.341
 Vibration     6          0.609              1.932              3.093
 Vibration     7          0.612              1.923              2.942
 Vibration     8          0.615              1.912              2.783
 Vibration     9          0.619              1.901              2.656
 Vibration    10          0.628              1.871              2.359
 Vibration    11          0.640              1.832              2.083
 Vibration    12          0.647              1.812              1.965
 Vibration    13          0.653              1.794              1.872
 Vibration    14          0.655              1.785              1.832
 Vibration    15          0.672              1.734              1.615
 Vibration    16          0.676              1.722              1.574
 Vibration    17          0.689              1.685              1.450
 Vibration    18          0.707              1.632              1.301
 Vibration    19          0.709              1.627              1.288
 Vibration    20          0.717              1.604              1.231
 Vibration    21          0.755              1.498              1.012
 Vibration    22          0.783              1.426              0.891
 Vibration    23          0.795              1.395              0.844
 Vibration    24          0.828              1.315              0.735
 Vibration    25          0.855              1.250              0.658
 Vibration    26          0.893              1.165              0.569
 Vibration    27          0.923              1.102              0.509

 Optimization completed.
    -- Stationary point found.
 Normal termination of Gaussian 16 at Sun Feb  7 13:12:05 2021.
