 Gaussian 16, Revision A.03,
 Gaussian 16:  ES64L-G16RevA.03 25-Dec-2016

 ----------------------------------------------------------------------
 # wB97XD def2tzvp, opt=(ts, noeigen, calcfc, maxcycles=70, maxstep=1),
  freq=noraman, scrf=(iefpcm, solvent=water)
 ----------------------------------------------------------------------

 ------------------------
 0_iteration/TS-131-0.out
 ------------------------
 Symbolic Z-matrix:
 Charge =  0 Multiplicity = 1

 SCF Done:  E(RwB97XD) =  -3147.83401981     A.U. after   15 cycles
 SCF Done:  E(RwB97XD) =  -3147.83401055     A.U. after   10 cycles
 SCF Done:  E(RwB97XD) =  -3147.83400110     A.U. after   10 cycles
 SCF Done:  E(RwB97XD) =  -3147.83399044     A.U. after   10 cycles
 SCF Done:  E(RwB97XD) =  -3147.83397927     A.U. after   10 cycles
 SCF Done:  E(RwB97XD) =  -3147.83396851     A.U. after   10 cycles
 SCF Done:  E(RwB97XD) =  -3147.83395911     A.U. after   10 cycles
 SCF Done:  E(RwB97XD) =  -3147.83395072     A.U. after   10 cycles
 SCF Done:  E(RwB97XD) =  -3147.83394227     A.U. after   10 cycles
 SCF Done:  E(RwB97XD) =  -3147.83393385     A.U. after   10 cycles
 SCF Done:  E(RwB97XD) =  -3147.83391831     A.U. after   10 cycles
 SCF Done:  E(RwB97XD) =  -3147.83391406     A.U. after   11 cycles
 SCF Done:  E(RwB97XD) =  -3147.83390949     A.U. after   11 cycles
 SCF Done:  E(RwB97XD) =  -3147.83390709     A.U. after   11 cycles
 SCF Done:  E(RwB97XD) =  -3147.83390679     A.U. after   10 cycles
 SCF Done:  E(RwB97XD) =  -3147.83390533     A.U. after   10 cycles
 SCF Done:  E(RwB97XD) =  -3147.83390570     A.U. after   10 cycles
 SCF Done:  E(RwB97XD) =  -3147.83390668     A.U. after    9 cycles
 SCF Done:  E(RwB97XD) =  -3147.83390676     A.U. after   10 cycles
 Optimization completed.
    -- Stationary point found.
 Normal termination of Gaussian 16 at Sat Feb  6 19:06:43 2021.

 ---------------------------------------------------------------------
 #N Geom=AllCheck Guess=TCheck SCRF=Check GenChk RwB97XD/def2TZVP Freq
 ---------------------------------------------------------------------

 Structure from the checkpoint file:  "/beegfs/scratch/user/q/tla25/Gau-111001.chk"
 ------------------------
 0_iteration/TS-131-0.out
 ------------------------
 Charge =  0 Multiplicity = 1

                         Standard orientation:
 ---------------------------------------------------------------------
 Center     Atomic      Atomic             Coordinates (Angstroms)
 Number     Number       Type             X           Y           Z
 ---------------------------------------------------------------------
      1          6           0        0.981302   -0.962809   -0.797255
      2          6           0        2.400140   -1.216335   -0.765572
      3          8           0        2.894302   -2.179853   -1.364869
      4          6           0        0.217890   -0.049170   -0.096157
      5          6           0        0.272010   -1.661898    2.193551
      6          1           0        0.737575   -2.298026    1.437734
      7          1           0        0.739247   -1.850675    3.158917
      8          1           0       -0.788788   -1.890483    2.253060
      9          7           0        0.452790   -0.274663    1.786377
     10          1           0       -0.175755    0.360463    2.265371
     11          1           0        1.403982    0.030858    1.958112
     12          6           0       -1.277442   -0.139245   -0.211513
     13          6           0       -2.119887    0.969150   -0.211790
     14          6           0       -3.495737    0.819516   -0.305484
     15          6           0       -4.060631   -0.441809   -0.391208
     16          6           0       -3.234801   -1.556155   -0.378753
     17          6           0       -1.861858   -1.407939   -0.286595
     18          1           0       -1.707787    1.964972   -0.145732
     19          1           0       -4.125099    1.700105   -0.311633
     20          1           0       -5.134414   -0.557328   -0.463270
     21          1           0       -3.659018   -2.550289   -0.436462
     22          1           0       -1.240975   -2.291977   -0.263423
     23         35           0        0.874285    1.866660   -0.064852
     24          1           0        0.435351   -1.695618   -1.372302
     25          7           0        3.215778   -0.424578    0.011421
     26          1           0        2.954935    0.536512    0.162349
     27          1           0        4.200463   -0.577953   -0.133858
 ---------------------------------------------------------------------

 SCF Done:  E(RwB97XD) =  -3147.83390676     A.U. after    1 cycles

 The electronic state is 1-A.
 Alpha  occ. eigenvalues -- -483.12798 -62.67652 -56.46743 -56.46425 -56.46416
 Alpha  occ. eigenvalues --  -19.19851 -14.49701 -14.43640 -10.40510 -10.37834
 Alpha  occ. eigenvalues --  -10.31954 -10.31816 -10.29933 -10.29785 -10.29634
 Alpha  occ. eigenvalues --  -10.29563 -10.29529 -10.25702  -8.81751  -6.63815
 Alpha  occ. eigenvalues --   -6.62816  -6.62788  -2.74204  -2.73933  -2.73910
 Alpha  occ. eigenvalues --   -2.73104  -2.73102  -1.12321  -1.05143  -0.99153
 Alpha  occ. eigenvalues --   -0.98023  -0.92591  -0.86687  -0.85667  -0.83610
 Alpha  occ. eigenvalues --   -0.79419  -0.74713  -0.71213  -0.68440  -0.65152
 Alpha  occ. eigenvalues --   -0.64210  -0.61627  -0.61052  -0.58111  -0.56890
 Alpha  occ. eigenvalues --   -0.55845  -0.55349  -0.52908  -0.52234  -0.51317
 Alpha  occ. eigenvalues --   -0.49557  -0.48776  -0.48473  -0.47766  -0.45815
 Alpha  occ. eigenvalues --   -0.45122  -0.43761  -0.42750  -0.37862  -0.37532
 Alpha  occ. eigenvalues --   -0.35591  -0.34437  -0.34387  -0.33529  -0.28116
 Alpha virt. eigenvalues --    0.01418   0.03782   0.04714   0.08477   0.10259
 Alpha virt. eigenvalues --    0.12927   0.13584   0.14158   0.15451   0.16680
 Alpha virt. eigenvalues --    0.17293   0.17446   0.18069   0.18740   0.19492

 Mulliken charges:
               1
     1  C   -0.394882
     2  C    0.281828
     3  O   -0.534293
     4  C    0.233725
     5  C   -0.307739
     6  H    0.159097
     7  H    0.166263
     8  H    0.167174
     9  N   -0.289856
    10  H    0.295687
    11  H    0.280565
    12  C    0.122604
    13  C   -0.232689
    14  C   -0.125552
    15  C   -0.149935
    16  C   -0.129080
    17  C   -0.321681
    18  H    0.153277
    19  H    0.146936
    20  H    0.147760
    21  H    0.147170
    22  H    0.180050
    23  Br  -0.182359
    24  H    0.142557
    25  N   -0.471820
    26  H    0.255678
    27  H    0.259514
 Sum of Mulliken charges =  -0.00000

 Dipole moment (field-independent basis, Debye):
    X=             -5.1001    Y=              3.0093    Z=              8.2690  Tot=             10.1707
 Quadrupole moment (field-independent basis, Debye-Ang):
   XX=            -92.3263   YY=           -102.2482   ZZ=            -94.5361
   XY=             15.7309   XZ=             11.8684   YZ=             -8.7566

  Exact polarizability: 272.376 -10.710 244.635  -9.240  12.809 174.618
 Approx polarizability: 203.781  -6.561 205.189  -4.461  12.488 149.299

 ******    1 imaginary frequencies (negative Signs) ******

                      1                      2                      3
                      A                      A                      A
 Frequencies --   -405.3363                30.1636                65.5751
 Red. masses --      4.9641                 3.7825                 3.3618
 Frc consts  --      0.4805                 0.0020                 0.0085
 IR Inten    --    457.1465                 0.6718                 1.2816

                      4                      5                      6
                      A                      A                      A
 Frequencies --     86.6134                90.2522               114.6625
 Red. masses --      6.0936                 3.5521                 6.1520
 Frc consts  --      0.0269                 0.0170                 0.0477
 IR Inten    --     16.3992                 2.7625                 6.6240

                      7                      8                      9
                      A                      A                      A
 Frequencies --    134.4485               171.3611               190.9686
 Red. masses --      2.7052                 3.4214                 4.8412
 Frc consts  --      0.0288                 0.0592                 0.1040
 IR Inten    --     15.2185                 1.4099                 6.4373

                     10                     11                     12
                      A                      A                      A
 Frequencies --    213.2978               247.6399               269.7082
 Red. masses --      1.4973                 7.5993                 3.3259
 Frc consts  --      0.0401                 0.2746                 0.1425
 IR Inten    --      5.7877                37.8927                 3.8212

                     13                     14                     15
                      A                      A                      A
 Frequencies --    290.3033               302.1878               342.0722
 Red. masses --      4.4620                 3.1770                 5.5403
 Frc consts  --      0.2216                 0.1709                 0.3820
 IR Inten    --      5.9691                11.1270                16.5651

                     16                     17                     18
                      A                      A                      A
 Frequencies --    423.0314               449.6072               503.0952
 Red. masses --      2.8900                 3.5986                 1.1544
 Frc consts  --      0.3047                 0.4286                 0.1721
 IR Inten    --      0.5617                29.3674               124.8184

                     19                     20                     21
                      A                      A                      A
 Frequencies --    539.6935               553.9881               586.8934
 Red. masses --      1.3219                 3.3472                 2.2438
 Frc consts  --      0.2268                 0.6052                 0.4554
 IR Inten    --    230.6250               103.6762                62.6671

                     22                     23                     24
                      A                      A                      A
 Frequencies --    602.2908               631.8351               638.7095
 Red. masses --      2.6274                 2.5310                 5.3385
 Frc consts  --      0.5616                 0.5953                 1.2832
 IR Inten    --    144.9813                22.2156                 1.9579

                     25                     26                     27
                      A                      A                      A
 Frequencies --    699.9257               713.7338               720.7807
 Red. masses --      1.8241                 2.5272                 1.6158
 Frc consts  --      0.5265                 0.7585                 0.4946
 IR Inten    --     58.9976                95.3138                89.2480

                     28                     29                     30
                      A                      A                      A
 Frequencies --    801.6033               808.1978               874.1735
 Red. masses --      2.3798                 4.2294                 1.2525
 Frc consts  --      0.9010                 1.6277                 0.5639
 IR Inten    --     47.7379                91.0343                 0.1285

                     31                     32                     33
                      A                      A                      A
 Frequencies --    889.2185               941.5573               969.4862
 Red. masses --      4.1606                 3.4172                 1.5662
 Frc consts  --      1.9383                 1.7849                 0.8673
 IR Inten    --     49.6406                25.3949                 1.4070

                     34                     35                     36
                      A                      A                      A
 Frequencies --   1014.9089              1017.8964              1025.1987
 Red. masses --      1.1049                 1.3883                 5.2874
 Frc consts  --      0.6705                 0.8475                 3.2742
 IR Inten    --     28.9149                 0.2515                 4.3650

                     37                     38                     39
                      A                      A                      A
 Frequencies --   1035.8628              1058.1169              1069.0458
 Red. masses --      1.3223                 1.1648                 2.1775
 Frc consts  --      0.8359                 0.7683                 1.4662
 IR Inten    --      0.3107               111.7611                21.1550

                     40                     41                     42
                      A                      A                      A
 Frequencies --   1080.0852              1118.6731              1124.8909
 Red. masses --      4.5663                 1.6743                 1.5723
 Frc consts  --      3.1386                 1.2345                 1.1722
 IR Inten    --     28.7827                77.9339                48.5236

                     43                     44                     45
                      A                      A                      A
 Frequencies --   1188.9346              1204.3547              1223.8709
 Red. masses --      1.1387                 2.3951                 1.1881
 Frc consts  --      0.9484                 2.0468                 1.0485
 IR Inten    --      5.1703               218.7919                10.6186

                     46                     47                     48
                      A                      A                      A
 Frequencies --   1225.9497              1264.9886              1322.7077
 Red. masses --      1.4702                 1.6113                 3.9587
 Frc consts  --      1.3019                 1.5192                 4.0806
 IR Inten    --     33.9900               192.9812                19.7524

                     49                     50                     51
                      A                      A                      A
 Frequencies --   1342.3335              1365.3530              1384.4864
 Red. masses --      1.3194                 1.4666                 3.6382
 Frc consts  --      1.4008                 1.6109                 4.1088
 IR Inten    --      2.9053                 6.2959               465.6921

                     52                     53                     54
                      A                      A                      A
 Frequencies --   1446.0903              1483.3602              1498.6489
 Red. masses --      1.1957                 2.5638                 1.4566
 Frc consts  --      1.4732                 3.3238                 1.9275
 IR Inten    --     63.6404               241.1470               210.9016

                     55                     56                     57
                      A                      A                      A
 Frequencies --   1500.0050              1503.0769              1544.3159
 Red. masses --      1.0562                 1.6128                 2.3430
 Frc consts  --      1.4002                 2.1468                 3.2923
 IR Inten    --     38.0603               188.4754                13.4039

                     58                     59                     60
                      A                      A                      A
 Frequencies --   1617.1855              1630.6075              1649.7405
 Red. masses --      1.4648                 1.0934                 5.4988
 Frc consts  --      2.2571                 1.7129                 8.8176
 IR Inten    --    601.8201                94.3492                25.7274

                     61                     62                     63
                      A                      A                      A
 Frequencies --   1661.1669              1673.5033              3061.7694
 Red. masses --      3.5265                 5.8726                 1.0365
 Frc consts  --      5.7334                 9.6903                 5.7249
 IR Inten    --    916.3257                 2.6233                33.2494

                     64                     65                     66
                      A                      A                      A
 Frequencies --   3139.9900              3178.3800              3200.7162
 Red. masses --      1.1016                 1.1048                 1.0865
 Frc consts  --      6.3995                 6.5757                 6.5582
 IR Inten    --      5.9864                11.8812                 0.2057

                     67                     68                     69
                      A                      A                      A
 Frequencies --   3209.9820              3221.2783              3228.9658
 Red. masses --      1.0906                 1.0950                 1.0915
 Frc consts  --      6.6208                 6.6943                 6.7048
 IR Inten    --     13.1363                23.9915                 3.7810

                     70                     71                     72
                      A                      A                      A
 Frequencies --   3235.8632              3243.2105              3520.8500
 Red. masses --      1.0901                 1.0923                 1.0507
 Frc consts  --      6.7251                 6.7694                 7.6744
 IR Inten    --      6.1434                 2.5358                41.1692

                     73                     74                     75
                      A                      A                      A
 Frequencies --   3581.7639              3605.9104              3695.6210
 Red. masses --      1.0475                 1.0971                 1.1004
 Frc consts  --      7.9173                 8.4044                 8.8549
 IR Inten    --     40.6455                67.8038               112.9676

 - Thermochemistry -
 -------------------
 Temperature   298.150 Kelvin.  Pressure   1.00000 Atm.
 Atom     1 has atomic number  6 and mass  12.00000

 Molecular mass:   256.02112 amu.
 Principal axes and moments of inertia in atomic units:
                           1         2         3
     Eigenvalues --  2521.441304583.025005802.47134
           X            0.99975  -0.01983   0.01019
           Y            0.02009   0.99947  -0.02547
           Z           -0.00968   0.02567   0.99962
 This molecule is an asymmetric top.
 Rotational symmetry number  1.
 Warning -- assumption of classical behavior for rotation
           may cause significant error
 Rotational temperatures (Kelvin)      0.03435     0.01890     0.01493
 Rotational constants (GHZ):           0.71576     0.39379     0.31103
    1 imaginary frequencies ignored.
 Zero-point vibrational energy     575982.4 (Joules/Mol)
                                  137.66309 (Kcal/Mol)
 Warning -- explicit consideration of  21 degrees of freedom as
           vibrations may cause significant error
 Vibrational temperatures:     43.40    94.35   124.62   129.85   164.97
          (Kelvin)            193.44   246.55   274.76   306.89   356.30
                              388.05   417.68   434.78   492.17   608.65
                              646.88   723.84   776.50   797.07   844.41
                              866.56   909.07   918.96  1007.04  1026.90
                             1037.04  1153.33  1162.82  1257.74  1279.39
                             1354.69  1394.87  1460.23  1464.53  1475.03
                             1490.38  1522.39  1538.12  1554.00  1609.52
                             1618.47  1710.61  1732.80  1760.88  1763.87
                             1820.04  1903.08  1931.32  1964.44  1991.97
                             2080.60  2134.22  2156.22  2158.17  2162.59
                             2221.93  2326.77  2346.08  2373.61  2390.05
                             2407.80  4405.20  4517.75  4572.98  4605.12
                             4618.45  4634.70  4645.76  4655.69  4666.26
                             5065.72  5153.36  5188.10  5317.17

 Zero-point correction=                           0.219380 (Hartree/Particle)
 Thermal correction to Energy=                    0.233545
 Thermal correction to Enthalpy=                  0.234490
 Thermal correction to Gibbs Free Energy=         0.177129
 Sum of electronic and zero-point Energies=          -3147.614527
 Sum of electronic and thermal Energies=             -3147.600361
 Sum of electronic and thermal Enthalpies=           -3147.599417
 Sum of electronic and thermal Free Energies=        -3147.656778

                     E (Thermal)             CV                S
                      KCal/Mol        Cal/Mol-Kelvin    Cal/Mol-Kelvin
 Total                  146.552             52.616            120.725
 Electronic               0.000              0.000              0.000
 Translational            0.889              2.981             42.520
 Rotational               0.889              2.981             32.572
 Vibrational            144.775             46.655             45.633
 Vibration     1          0.594              1.984              5.819
 Vibration     2          0.597              1.971              4.282
 Vibration     3          0.601              1.959              3.735
 Vibration     4          0.602              1.956              3.655
 Vibration     5          0.608              1.937              3.188
 Vibration     6          0.613              1.919              2.881
 Vibration     7          0.626              1.878              2.421
 Vibration     8          0.634              1.852              2.218
 Vibration     9          0.644              1.821              2.015
 Vibration    10          0.661              1.767              1.747
 Vibration    11          0.674              1.729              1.598
 Vibration    12          0.686              1.692              1.472
 Vibration    13          0.694              1.670              1.405
 Vibration    14          0.721              1.591              1.202
 Vibration    15          0.785              1.420              0.882
 Vibration    16          0.809              1.362              0.797
 Vibration    17          0.858              1.243              0.650
 Vibration    18          0.895              1.162              0.566
 Vibration    19          0.909              1.131              0.536
 Vibration    20          0.944              1.060              0.473
 Vibration    21          0.961              1.027              0.446

 Optimization completed.
    -- Stationary point found.
 Normal termination of Gaussian 16 at Sat Feb  6 19:57:02 2021.
