 Gaussian 16, Revision A.03,
 Gaussian 16:  ES64L-G16RevA.03 25-Dec-2016

 ----------------------------------------------------------------------
 # wB97XD def2tzvp, opt=(ts, noeigen, calcfc, maxcycles=70, maxstep=8),
  freq=noraman, scrf=(iefpcm, solvent=water)
 ----------------------------------------------------------------------

 ------------------------
 1_iteration/TS-195-1.out
 ------------------------
 Symbolic Z-matrix:
 Charge =  0 Multiplicity = 1

 SCF Done:  E(RwB97XD) =  -1493.43671023     A.U. after   15 cycles
 SCF Done:  E(RwB97XD) =  -1493.43671058     A.U. after    8 cycles
 Optimization completed.
    -- Stationary point found.
 Normal termination of Gaussian 16 at Mon Mar 29 09:16:55 2021.

 ---------------------------------------------------------------------
 #N Geom=AllCheck Guess=TCheck SCRF=Check GenChk RwB97XD/def2TZVP Freq
 ---------------------------------------------------------------------

 Structure from the checkpoint file:  "/beegfs/scratch/user/q/tla25/Gau-18738.chk"
 ------------------------
 1_iteration/TS-195-1.out
 ------------------------
 Charge =  0 Multiplicity = 1

                         Standard orientation:
 ---------------------------------------------------------------------
 Center     Atomic      Atomic             Coordinates (Angstroms)
 Number     Number       Type             X           Y           Z
 ---------------------------------------------------------------------
      1          6           0       -1.140552    0.515185   -0.331391
      2          6           0       -2.567745    0.266996   -0.243022
      3          8           0       -3.009254   -0.816604    0.168013
      4          6           0       -0.194794   -0.490529   -0.180082
      5          6           0       -0.748909   -0.463194    2.676928
      6          1           0       -1.153327    0.479279    2.296246
      7          1           0       -1.460662   -0.878033    3.391070
      8          1           0        0.194196   -0.275249    3.183028
      9          7           0       -0.550494   -1.359786    1.550624
     10          1           0       -1.435681   -1.768754    1.265588
     11          1           0        0.135612   -2.083874    1.721990
     12          6           0        1.268491   -0.173514   -0.122710
     13          6           0        2.168846   -0.668972   -1.059692
     14          6           0        3.515432   -0.341067   -0.988138
     15          6           0        3.983774    0.476585    0.026467
     16          6           0        3.092366    0.977753    0.965282
     17          6           0        1.748226    0.661672    0.886529
     18          1           0        1.822381   -1.312157   -1.855226
     19          1           0        4.198077   -0.733335   -1.730895
     20          1           0        5.035530    0.725547    0.085914
     21          1           0        3.443151    1.622377    1.760816
     22          1           0        1.065862    1.083608    1.609122
     23         17           0       -0.511626   -2.029851   -1.087822
     24         17           0       -0.620264    2.179568   -0.569031
     25          7           0       -3.418475    1.258661   -0.597717
     26          1           0       -3.096256    2.156967   -0.904847
     27          1           0       -4.400762    1.113641   -0.451779
 ---------------------------------------------------------------------

 SCF Done:  E(RwB97XD) =  -1493.43671058     A.U. after    1 cycles

 The electronic state is 1-A.
 Alpha  occ. eigenvalues -- -101.69551-101.69352 -19.20892 -14.47897 -14.44408
 Alpha  occ. eigenvalues --  -10.41063 -10.39042 -10.31886 -10.31663 -10.31594
 Alpha  occ. eigenvalues --  -10.29887 -10.29803 -10.29616 -10.29502 -10.29463
 Alpha  occ. eigenvalues --   -9.58076  -9.57960  -7.32721  -7.32592  -7.31870
 Alpha  occ. eigenvalues --   -7.31831  -7.31747  -7.31708  -1.13559  -1.03993
 Alpha  occ. eigenvalues --   -1.00603  -0.99054  -0.96266  -0.94418  -0.87256
 Alpha  occ. eigenvalues --   -0.85798  -0.82570  -0.78780  -0.75276  -0.71254
 Alpha  occ. eigenvalues --   -0.69758  -0.65670  -0.63155  -0.62622  -0.60010
 Alpha  occ. eigenvalues --   -0.58004  -0.57374  -0.55752  -0.55324  -0.54597
 Alpha  occ. eigenvalues --   -0.52494  -0.51803  -0.51146  -0.50023  -0.48708
 Alpha  occ. eigenvalues --   -0.47933  -0.47810  -0.45597  -0.43942  -0.43501
 Alpha  occ. eigenvalues --   -0.42278  -0.41220  -0.40261  -0.38524  -0.35399
 Alpha  occ. eigenvalues --   -0.34510  -0.34285  -0.33771  -0.27794
 Alpha virt. eigenvalues --    0.00765   0.04823   0.06682   0.07186   0.11230
 Alpha virt. eigenvalues --    0.12372   0.13449   0.14096   0.14622   0.15899
 Alpha virt. eigenvalues --    0.16545   0.17406   0.17645   0.18319   0.19110

 Mulliken charges:
               1
     1  C   -0.264247
     2  C    0.337308
     3  O   -0.546938
     4  C    0.304690
     5  C   -0.330552
     6  H    0.157646
     7  H    0.160800
     8  H    0.167333
     9  N   -0.327190
    10  H    0.279735
    11  H    0.283307
    12  C    0.132619
    13  C   -0.258024
    14  C   -0.129229
    15  C   -0.147827
    16  C   -0.135445
    17  C   -0.254450
    18  H    0.144746
    19  H    0.146598
    20  H    0.147387
    21  H    0.146059
    22  H    0.186013
    23  Cl  -0.130710
    24  Cl  -0.148993
    25  N   -0.462195
    26  H    0.269352
    27  H    0.272207
 Sum of Mulliken charges =  -0.00000

 Dipole moment (field-independent basis, Debye):
    X=              3.0389    Y=              0.6643    Z=              4.3427  Tot=              5.3419
 Quadrupole moment (field-independent basis, Debye-Ang):
   XX=            -93.9306   YY=           -100.4298   ZZ=            -92.5025
   XY=             -9.7302   XZ=             -0.3509   YZ=             -2.9605

  Exact polarizability: 269.840  -2.486 218.120   1.880   8.750 204.044
 Approx polarizability: 205.738   2.584 188.792  -0.961   9.591 174.865

 ******    1 imaginary frequencies (negative Signs) ******

                      1                      2                      3
                      A                      A                      A
 Frequencies --   -353.4544                33.5775                69.6785
 Red. masses --      5.9933                 4.2480                 6.5660
 Frc consts  --      0.4411                 0.0028                 0.0188
 IR Inten    --    531.2198                 0.8020                 0.3765

                      4                      5                      6
                      A                      A                      A
 Frequencies --     83.2904                89.9152               108.6364
 Red. masses --      4.6520                 5.7998                 1.3033
 Frc consts  --      0.0190                 0.0276                 0.0091
 IR Inten    --      2.1911                10.3624               271.7606

                      7                      8                      9
                      A                      A                      A
 Frequencies --    116.6716               160.2798               174.5611
 Red. masses --      2.7351                 4.8583                 2.6842
 Frc consts  --      0.0219                 0.0735                 0.0482
 IR Inten    --     43.2117                 3.5915                29.4596

                     10                     11                     12
                      A                      A                      A
 Frequencies --    191.1043               224.5923               242.4186
 Red. masses --      7.0155                 7.0927                 5.6216
 Frc consts  --      0.1510                 0.2108                 0.1946
 IR Inten    --      0.9327                 8.5558                 9.6502

                     13                     14                     15
                      A                      A                      A
 Frequencies --    262.4274               271.8647               306.3666
 Red. masses --      1.2713                 6.2817                 4.6444
 Frc consts  --      0.0516                 0.2735                 0.2568
 IR Inten    --      3.2568                 0.6904                 2.2857

                     16                     17                     18
                      A                      A                      A
 Frequencies --    319.8099               339.1457               368.3717
 Red. masses --      3.6026                 5.1030                10.3617
 Frc consts  --      0.2171                 0.3458                 0.8284
 IR Inten    --     35.5752                 8.5711                18.7430

                     19                     20                     21
                      A                      A                      A
 Frequencies --    426.4965               449.7743               476.3243
 Red. masses --      2.9296                 5.8593                 4.9637
 Frc consts  --      0.3140                 0.6984                 0.6635
 IR Inten    --      0.7632                22.4609                52.5987

                     22                     23                     24
                      A                      A                      A
 Frequencies --    550.1121               568.1441               591.8063
 Red. masses --      1.3031                 2.3026                 3.7520
 Frc consts  --      0.2323                 0.4379                 0.7742
 IR Inten    --     12.3879                13.5790               173.3409

                     25                     26                     27
                      A                      A                      A
 Frequencies --    636.6865               654.7492               678.4761
 Red. masses --      6.2955                 1.5920                 4.8095
 Frc consts  --      1.5036                 0.4021                 1.3044
 IR Inten    --      8.3596                76.7226                29.7763

                     28                     29                     30
                      A                      A                      A
 Frequencies --    726.1634               771.3024               788.8918
 Red. masses --      1.6729                 4.7719                 4.3008
 Frc consts  --      0.5197                 1.6726                 1.5770
 IR Inten    --     73.2654               196.0191                71.5177

                     31                     32                     33
                      A                      A                      A
 Frequencies --    810.2764               879.7053               894.3735
 Red. masses --      3.2878                 1.2452                 5.2129
 Frc consts  --      1.2718                 0.5678                 2.4568
 IR Inten    --     88.1079                 0.4412                 7.1057

                     34                     35                     36
                      A                      A                      A
 Frequencies --    970.3794              1002.7578              1019.9047
 Red. masses --      1.4134                 1.0912                 1.4519
 Frc consts  --      0.7841                 0.6465                 0.8898
 IR Inten    --      0.9058                71.6791                 0.0893

                     37                     38                     39
                      A                      A                      A
 Frequencies --   1027.5707              1036.8200              1055.3883
 Red. masses --      4.2795                 1.3490                 2.4722
 Frc consts  --      2.6624                 0.8544                 1.6224
 IR Inten    --      2.9877                 0.2699                17.4316

                     40                     41                     42
                      A                      A                      A
 Frequencies --   1066.3464              1078.8925              1096.8545
 Red. masses --      2.1706                 1.8207                 2.8068
 Frc consts  --      1.4542                 1.2487                 1.9896
 IR Inten    --     20.9424                83.9127                 3.9695

                     43                     44                     45
                      A                      A                      A
 Frequencies --   1100.1950              1126.4774              1187.5915
 Red. masses --      2.0785                 1.5818                 1.1267
 Frc consts  --      1.4823                 1.1827                 0.9362
 IR Inten    --     30.6763                 3.8746                 0.2425

                     46                     47                     48
                      A                      A                      A
 Frequencies --   1201.2238              1216.7376              1221.1118
 Red. masses --      1.4748                 3.0236                 1.2020
 Frc consts  --      1.2538                 2.6374                 1.0560
 IR Inten    --     40.1866                30.8017                15.1655

                     49                     50                     51
                      A                      A                      A
 Frequencies --   1323.5065              1353.0122              1366.5073
 Red. masses --      4.6255                 1.2959                 1.4450
 Frc consts  --      4.7737                 1.3978                 1.5898
 IR Inten    --      5.3345                 8.4898                 4.7194

                     52                     53                     54
                      A                      A                      A
 Frequencies --   1393.8526              1431.5143              1465.6455
 Red. masses --      4.1465                 4.0408                 1.3133
 Frc consts  --      4.7464                 4.8788                 1.6622
 IR Inten    --    695.0072               770.1342                75.9427

                     55                     56                     57
                      A                      A                      A
 Frequencies --   1492.3862              1501.1347              1508.7703
 Red. masses --      2.2892                 1.0436                 1.0338
 Frc consts  --      3.0039                 1.3856                 1.3866
 IR Inten    --     44.5069                17.1165                 7.6831

                     58                     59                     60
                      A                      A                      A
 Frequencies --   1547.5895              1596.4463              1614.3675
 Red. masses --      2.2922                 1.5671                 1.1451
 Frc consts  --      3.2346                 2.3532                 1.7584
 IR Inten    --      1.7852               260.9410               317.2463

                     61                     62                     63
                      A                      A                      A
 Frequencies --   1652.8185              1663.7960              1675.4528
 Red. masses --      5.3469                 3.4597                 5.8326
 Frc consts  --      8.6061                 5.6427                 9.6466
 IR Inten    --     10.2603               374.5207                 1.3722

                     64                     65                     66
                      A                      A                      A
 Frequencies --   3048.9581              3120.5956              3175.1505
 Red. masses --      1.0393                 1.0989                 1.1031
 Frc consts  --      5.6923                 6.3051                 6.5521
 IR Inten    --     30.9699                18.6746                15.8754

                     67                     68                     69
                      A                      A                      A
 Frequencies --   3200.7001              3211.0195              3222.1292
 Red. masses --      1.0866                 1.0909                 1.0963
 Frc consts  --      6.5586                 6.6273                 6.7058
 IR Inten    --      0.0913                15.1634                23.9137

                     70                     71                     72
                      A                      A                      A
 Frequencies --   3241.1702              3250.3274              3494.2870
 Red. masses --      1.0929                 1.0924                 1.0543
 Frc consts  --      6.7645                 6.7994                 7.5843
 IR Inten    --      4.4754                 3.4510                62.8995

                     73                     74                     75
                      A                      A                      A
 Frequencies --   3609.8813              3637.1945              3766.2984
 Red. masses --      1.0942                 1.0451                 1.1056
 Frc consts  --      8.4012                 8.1463                 9.2404
 IR Inten    --    107.8867               109.0820               102.5990

 - Thermochemistry -
 -------------------
 Temperature   298.150 Kelvin.  Pressure   1.00000 Atm.
 Atom     1 has atomic number  6 and mass  12.00000

 Molecular mass:   246.03267 amu.
 Principal axes and moments of inertia in atomic units:
                           1         2         3
     Eigenvalues --  2488.248514885.887455442.23026
           X            0.99995  -0.00524  -0.00812
           Y            0.00506   0.99973  -0.02279
           Z            0.00823   0.02275   0.99971
 This molecule is an asymmetric top.
 Rotational symmetry number  1.
 Warning -- assumption of classical behavior for rotation
           may cause significant error
 Rotational temperatures (Kelvin)      0.03481     0.01773     0.01592
 Rotational constants (GHZ):           0.72531     0.36938     0.33162
    1 imaginary frequencies ignored.
 Zero-point vibrational energy     551710.3 (Joules/Mol)
                                  131.86192 (Kcal/Mol)
 Warning -- explicit consideration of  23 degrees of freedom as
           vibrations may cause significant error
 Vibrational temperatures:     48.31   100.25   119.84   129.37   156.30
          (Kelvin)            167.86   230.61   251.15   274.96   323.14
                              348.79   377.57   391.15   440.79   460.14
                              487.96   530.00   613.63   647.12   685.32
                              791.49   817.43   851.48   916.05   942.04
                              976.18  1044.79  1109.73  1135.04  1165.81
                             1265.70  1286.80  1396.16  1442.74  1467.42
                             1478.45  1491.75  1518.47  1534.23  1552.29
                             1578.13  1582.94  1620.75  1708.68  1728.29
                             1750.61  1756.91  1904.23  1946.68  1966.10
                             2005.44  2059.63  2108.74  2147.21  2159.80
                             2170.78  2226.64  2296.93  2322.71  2378.04
                             2393.83  2410.60  4386.77  4489.84  4568.33
                             4605.09  4619.94  4635.93  4663.32  4676.50
                             5027.50  5193.81  5233.11  5418.86

 Zero-point correction=                           0.210135 (Hartree/Particle)
 Thermal correction to Energy=                    0.225504
 Thermal correction to Enthalpy=                  0.226449
 Thermal correction to Gibbs Free Energy=         0.166991
 Sum of electronic and zero-point Energies=          -1493.226575
 Sum of electronic and thermal Energies=             -1493.211206
 Sum of electronic and thermal Enthalpies=           -1493.210262
 Sum of electronic and thermal Free Energies=        -1493.269719

                     E (Thermal)             CV                S
                      KCal/Mol        Cal/Mol-Kelvin    Cal/Mol-Kelvin
 Total                  141.506             56.294            125.139
 Electronic               0.000              0.000              0.000
 Translational            0.889              2.981             42.402
 Rotational               0.889              2.981             32.559
 Vibrational            139.729             50.333             50.178
 Vibration     1          0.594              1.983              5.606
 Vibration     2          0.598              1.969              4.162
 Vibration     3          0.600              1.961              3.812
 Vibration     4          0.602              1.956              3.662
 Vibration     5          0.606              1.942              3.293
 Vibration     6          0.608              1.936              3.155
 Vibration     7          0.622              1.891              2.546
 Vibration     8          0.627              1.874              2.386
 Vibration     9          0.634              1.852              2.217
 Vibration    10          0.649              1.804              1.922
 Vibration    11          0.659              1.775              1.785
 Vibration    12          0.670              1.742              1.646
 Vibration    13          0.675              1.725              1.584
 Vibration    14          0.697              1.662              1.382
 Vibration    15          0.706              1.636              1.311
 Vibration    16          0.719              1.597              1.216
 Vibration    17          0.741              1.537              1.087
 Vibration    18          0.788              1.413              0.870
 Vibration    19          0.809              1.361              0.796
 Vibration    20          0.833              1.303              0.720
 Vibration    21          0.905              1.139              0.544
 Vibration    22          0.924              1.100              0.508
 Vibration    23          0.949              1.049              0.464

 Optimization completed.
    -- Stationary point found.
 Normal termination of Gaussian 16 at Mon Mar 29 10:12:15 2021.
