 Gaussian 16, Revision A.03,
 Gaussian 16:  ES64L-G16RevA.03 25-Dec-2016

 ----------------------------------------------------------------------
 # wB97XD def2tzvp, opt=(ts, noeigen, calcfc, maxcycles=70, maxstep=5),
  freq=noraman, scrf=(iefpcm, solvent=water)
 ----------------------------------------------------------------------

 ------------------------
 2_iteration/TS-106-2.out
 ------------------------
 Symbolic Z-matrix:
 Charge =  0 Multiplicity = 1

 SCF Done:  E(RwB97XD) =  -3171.08479501     A.U. after   15 cycles
 Optimization completed.
    -- Stationary point found.
 Normal termination of Gaussian 16 at Sun Feb  7 15:47:32 2021.

 ---------------------------------------------------------------------
 #N Geom=AllCheck Guess=TCheck SCRF=Check GenChk RwB97XD/def2TZVP Freq
 ---------------------------------------------------------------------

 Structure from the checkpoint file:  "/beegfs/scratch/user/q/tla25/Gau-32750.chk"
 ------------------------
 2_iteration/TS-106-2.out
 ------------------------
 Charge =  0 Multiplicity = 1

                         Standard orientation:
 ---------------------------------------------------------------------
 Center     Atomic      Atomic             Coordinates (Angstroms)
 Number     Number       Type             X           Y           Z
 ---------------------------------------------------------------------
      1          6           0       -1.200110   -0.113133    0.222540
      2          6           0       -2.572030   -0.050154    0.621180
      3          8           0       -3.371259   -0.965655    0.393260
      4          6           0       -0.153461    0.831138    0.316080
      5          6           0        0.509847    3.060969   -1.586710
      6          1           0        0.357477    3.423009   -2.604000
      7          1           0        0.177737    3.824029   -0.887180
      8          1           0        1.570047    2.877370   -1.427450
      9          7           0       -0.245642    1.827278   -1.344510
     10          1           0       -1.242692    2.010627   -1.353120
     11          1           0       -0.083771    1.138259   -2.070750
     12          6           0        1.259190    0.277710    0.334160
     13          6           0        2.152570    0.264531   -0.728190
     14          6           0        3.429080   -0.261188   -0.576980
     15          6           0        3.835011   -0.784678    0.638550
     16          6           0        2.948061   -0.783619    1.705820
     17          6           0        1.676970   -0.257560    1.553550
     18          1           0        1.876410    0.637790   -1.702780
     19          1           0        4.104030   -0.262717   -1.423350
     20          1           0        4.830071   -1.194717    0.753440
     21          1           0        3.244051   -1.196638    2.661800
     22          1           0        0.990780   -0.278500    2.390900
     23          6           0       -0.242952    2.025668    1.252000
     24          1           0       -0.308151    1.682028    2.283670
     25          1           0        0.663698    2.620569    1.159830
     26          1           0       -1.096162    2.665078    1.051350
     27         35           0       -0.793458   -1.702012   -0.799160
     28          6           0       -3.112801    1.157016    1.371160
     29          1           0       -3.085012    2.057286    0.755520
     30          1           0       -4.149821    0.943245    1.619530
     31          1           0       -2.564361    1.357786    2.289740
 ---------------------------------------------------------------------

 SCF Done:  E(RwB97XD) =  -3171.08479501     A.U. after    1 cycles

 The electronic state is 1-A.
 Alpha  occ. eigenvalues -- -483.11205 -62.66033 -56.45131 -56.44811 -56.44795
 Alpha  occ. eigenvalues --  -19.20285 -14.48948 -10.37246 -10.35794 -10.32113
 Alpha  occ. eigenvalues --  -10.31230 -10.30461 -10.29665 -10.29424 -10.29355
 Alpha  occ. eigenvalues --  -10.29332 -10.29139 -10.29078 -10.27559  -8.80139
 Alpha  occ. eigenvalues --   -6.62226  -6.61205  -6.61156  -2.72625  -2.72336
 Alpha  occ. eigenvalues --   -2.72297  -2.71470  -2.71469  -1.11263  -1.04501
 Alpha  occ. eigenvalues --   -0.97892  -0.93400  -0.87670  -0.85671  -0.85043
 Alpha  occ. eigenvalues --   -0.82657  -0.79867  -0.77289  -0.72968  -0.71053
 Alpha  occ. eigenvalues --   -0.67726  -0.64262  -0.61549  -0.59381  -0.57468
 Alpha  occ. eigenvalues --   -0.56499  -0.55724  -0.54664  -0.53807  -0.53042
 Alpha  occ. eigenvalues --   -0.51945  -0.51170  -0.50127  -0.50046  -0.49388
 Alpha  occ. eigenvalues --   -0.48185  -0.46677  -0.45950  -0.45137  -0.43809
 Alpha  occ. eigenvalues --   -0.43539  -0.42248  -0.41343  -0.38078  -0.36567
 Alpha  occ. eigenvalues --   -0.34052  -0.33740  -0.31590  -0.27469
 Alpha virt. eigenvalues --    0.04025   0.04707   0.05118   0.08341   0.09313
 Alpha virt. eigenvalues --    0.12274   0.12874   0.13437   0.13968   0.15693
 Alpha virt. eigenvalues --    0.16319   0.16651   0.17654   0.18189   0.18377

 Mulliken charges:
               1
     1  C   -0.166886
     2  C    0.185621
     3  O   -0.500095
     4  C    0.161182
     5  C   -0.295038
     6  H    0.160240
     7  H    0.165187
     8  H    0.163684
     9  N   -0.343128
    10  H    0.283703
    11  H    0.283107
    12  C    0.236511
    13  C   -0.217822
    14  C   -0.163019
    15  C   -0.146304
    16  C   -0.136300
    17  C   -0.313241
    18  H    0.158275
    19  H    0.144129
    20  H    0.145287
    21  H    0.144974
    22  H    0.154691
    23  C   -0.463355
    24  H    0.173570
    25  H    0.178322
    26  H    0.166445
    27  Br  -0.186296
    28  C   -0.391138
    29  H    0.139573
    30  H    0.131241
    31  H    0.146881
 Sum of Mulliken charges =   0.00000

 Dipole moment (field-independent basis, Debye):
    X=              6.5224    Y=             10.6660    Z=             -1.9181  Tot=             12.6485
 Quadrupole moment (field-independent basis, Debye-Ang):
   XX=           -117.3862   YY=            -96.1736   ZZ=            -90.0519
   XY=            -16.7095   XZ=             -0.4718   YZ=             -7.6867

  Exact polarizability: 283.116   3.295 227.728 -20.266 -10.417 225.172
 Approx polarizability: 215.825   1.238 186.025 -12.682  -7.954 193.929

 ******    1 imaginary frequencies (negative Signs) ******

                      1                      2                      3
                      A                      A                      A
 Frequencies --   -327.9924                32.1255                43.8058
 Red. masses --      5.6935                 3.4742                 4.8176
 Frc consts  --      0.3609                 0.0021                 0.0054
 IR Inten    --    811.2028                 1.3139                 0.7564

                      4                      5                      6
                      A                      A                      A
 Frequencies --     65.8804                75.3802               110.9625
 Red. masses --      7.2399                 5.7022                 2.9640
 Frc consts  --      0.0185                 0.0191                 0.0215
 IR Inten    --      6.9521                 2.8735                 1.5825

                      7                      8                      9
                      A                      A                      A
 Frequencies --    138.3558               148.5997               191.9158
 Red. masses --      2.9315                 1.3900                 5.4759
 Frc consts  --      0.0331                 0.0181                 0.1188
 IR Inten    --      0.0436                 6.0604                 1.9788

                     10                     11                     12
                      A                      A                      A
 Frequencies --    219.8183               232.8593               237.2250
 Red. masses --      3.3384                 2.7938                 1.1135
 Frc consts  --      0.0950                 0.0893                 0.0369
 IR Inten    --      0.4118                 5.5546                 2.6941

                     13                     14                     15
                      A                      A                      A
 Frequencies --    282.3740               289.4815               315.0537
 Red. masses --      3.2300                 3.8309                 2.7160
 Frc consts  --      0.1517                 0.1891                 0.1588
 IR Inten    --     17.0166                16.3436                 9.8244

                     16                     17                     18
                      A                      A                      A
 Frequencies --    331.0659               354.2606               374.7400
 Red. masses --      1.9471                 3.2403                 2.3788
 Frc consts  --      0.1257                 0.2396                 0.1968
 IR Inten    --      2.7764                10.1853                 6.0547

                     19                     20                     21
                      A                      A                      A
 Frequencies --    400.8047               420.8543               445.4633
 Red. masses --      2.3091                 2.8615                 3.8000
 Frc consts  --      0.2186                 0.2986                 0.4443
 IR Inten    --      6.5232                 0.4631                 4.9464

                     22                     23                     24
                      A                      A                      A
 Frequencies --    527.2474               562.6312               602.7049
 Red. masses --      3.7719                 3.5789                 3.6697
 Frc consts  --      0.6178                 0.6675                 0.7854
 IR Inten    --    165.1830                92.3465                37.0952

                     25                     26                     27
                      A                      A                      A
 Frequencies --    631.5175               638.5252               649.9983
 Red. masses --      3.0535                 6.1738                 2.0583
 Frc consts  --      0.7175                 1.4831                 0.5124
 IR Inten    --     49.9739                 7.1492                64.0924

                     28                     29                     30
                      A                      A                      A
 Frequencies --    685.0045               725.4472               794.3682
 Red. masses --      2.0500                 1.5556                 2.2224
 Frc consts  --      0.5668                 0.4824                 0.8263
 IR Inten    --     36.6653                96.3973                25.7763

                     31                     32                     33
                      A                      A                      A
 Frequencies --    817.8719               870.2306               873.3690
 Red. masses --      3.4393                 1.2575                 4.2634
 Frc consts  --      1.3555                 0.5611                 1.9160
 IR Inten    --     29.2365                 0.6001                41.1132

                     34                     35                     36
                      A                      A                      A
 Frequencies --    949.7956              1002.2602              1009.1149
 Red. masses --      1.4246                 1.6948                 1.3749
 Frc consts  --      0.7572                 1.0031                 0.8249
 IR Inten    --      2.8435                42.9909                19.3404

                     37                     38                     39
                      A                      A                      A
 Frequencies --   1016.2377              1024.5665              1028.8297
 Red. masses --      1.2735                 4.2911                 2.0243
 Frc consts  --      0.7749                 2.6540                 1.2624
 IR Inten    --     74.0954                63.1821               118.1403

                     40                     41                     42
                      A                      A                      A
 Frequencies --   1031.4333              1043.2085              1053.3590
 Red. masses --      1.3624                 1.7221                 1.5683
 Frc consts  --      0.8539                 1.1042                 1.0253
 IR Inten    --      7.1323                28.1456                39.2136

                     43                     44                     45
                      A                      A                      A
 Frequencies --   1062.9240              1070.1547              1088.5301
 Red. masses --      2.0612                 1.7578                 2.1517
 Frc consts  --      1.3721                 1.1861                 1.5021
 IR Inten    --      9.6865                18.2606                79.1909

                     46                     47                     48
                      A                      A                      A
 Frequencies --   1111.2032              1136.3066              1187.7109
 Red. masses --      1.9059                 1.6568                 1.1364
 Frc consts  --      1.3866                 1.2604                 0.9445
 IR Inten    --      9.1380                 5.8948                 0.3807

                     49                     50                     51
                      A                      A                      A
 Frequencies --   1233.5874              1239.6685              1255.0265
 Red. masses --      1.2233                 1.4421                 3.0231
 Frc consts  --      1.0968                 1.3057                 2.8055
 IR Inten    --      4.0480                52.9332                29.4760

                     52                     53                     54
                      A                      A                      A
 Frequencies --   1315.1496              1325.0441              1343.5807
 Red. masses --      4.7732                 4.9936                 1.3194
 Frc consts  --      4.8642                 5.1656                 1.4033
 IR Inten    --     71.1847                 3.0208                 4.6250

                     55                     56                     57
                      A                      A                      A
 Frequencies --   1381.4601              1388.1787              1417.0231
 Red. masses --      1.3360                 1.3997                 3.4390
 Frc consts  --      1.5022                 1.5891                 4.0685
 IR Inten    --      5.5584                98.1809              1080.2412

                     58                     59                     60
                      A                      A                      A
 Frequencies --   1421.6292              1462.2965              1470.7537
 Red. masses --      1.2310                 1.1003                 1.1959
 Frc consts  --      1.4659                 1.3862                 1.5241
 IR Inten    --     42.3669                13.6446                13.6736

                     61                     62                     63
                      A                      A                      A
 Frequencies --   1480.7452              1489.5158              1498.6867
 Red. masses --      1.0731                 2.1307                 1.0452
 Frc consts  --      1.3863                 2.7853                 1.3832
 IR Inten    --     15.5255                26.0661                23.8417

                     64                     65                     66
                      A                      A                      A
 Frequencies --   1503.7027              1513.2871              1519.7381
 Red. masses --      1.0506                 1.0817                 1.0589
 Frc consts  --      1.3997                 1.4594                 1.4409
 IR Inten    --     14.3462                59.0611                 9.0067

                     67                     68                     69
                      A                      A                      A
 Frequencies --   1551.2742              1629.7621              1650.1040
 Red. masses --      2.1966                 8.3262                 1.9583
 Frc consts  --      3.1144                13.0300                 3.1416
 IR Inten    --     12.3693               799.5279                28.7047

                     70                     71                     72
                      A                      A                      A
 Frequencies --   1659.8923              1678.8319              3070.2587
 Red. masses --      1.7655                 4.9888                 1.0376
 Frc consts  --      2.8661                 8.2844                 5.7625
 IR Inten    --     28.8430                 3.1656                11.7709

                     73                     74                     75
                      A                      A                      A
 Frequencies --   3073.9418              3087.3001              3148.6434
 Red. masses --      1.0366                 1.0379                 1.0991
 Frc consts  --      5.7713                 5.8285                 6.4202
 IR Inten    --     46.8798                14.4466                17.9924

                     76                     77                     78
                      A                      A                      A
 Frequencies --   3154.3988              3157.8130              3169.5948
 Red. masses --      1.1017                 1.1021                 1.1037
 Frc consts  --      6.4588                 6.4751                 6.5332
 IR Inten    --     13.6518                20.3162                23.3643

                     79                     80                     81
                      A                      A                      A
 Frequencies --   3180.3686              3190.9216              3197.0311
 Red. masses --      1.1054                 1.1010                 1.0861
 Frc consts  --      6.5876                 6.6050                 6.5406
 IR Inten    --     14.6621                15.7269                 1.5808

                     82                     83                     84
                      A                      A                      A
 Frequencies --   3203.7058              3212.6349              3223.4108
 Red. masses --      1.0890                 1.0935                 1.0979
 Frc consts  --      6.5852                 6.6497                 6.7211
 IR Inten    --      1.8560                26.8339                24.5026

                     85                     86                     87
                      A                      A                      A
 Frequencies --   3245.4498              3527.1399              3598.1546
 Red. masses --      1.0920                 1.0521                 1.0946
 Frc consts  --      6.7765                 7.7118                 8.3494
 IR Inten    --     14.6942                17.4011                36.4094

 - Thermochemistry -
 -------------------
 Temperature   298.150 Kelvin.  Pressure   1.00000 Atm.
 Atom     1 has atomic number  6 and mass  12.00000

 Molecular mass:   269.04153 amu.
 Principal axes and moments of inertia in atomic units:
                           1         2         3
     Eigenvalues --  3005.201624861.471715832.77285
           X            0.99783  -0.06321  -0.01834
           Y            0.06162   0.99512  -0.07712
           Z            0.02312   0.07582   0.99685
 This molecule is an asymmetric top.
 Rotational symmetry number  1.
 Warning -- assumption of classical behavior for rotation
           may cause significant error
 Rotational temperatures (Kelvin)      0.02882     0.01782     0.01485
 Rotational constants (GHZ):           0.60054     0.37123     0.30941
    1 imaginary frequencies ignored.
 Zero-point vibrational energy     680527.3 (Joules/Mol)
                                  162.64993 (Kcal/Mol)
 Warning -- explicit consideration of  23 degrees of freedom as
           vibrations may cause significant error
 Vibrational temperatures:     46.22    63.03    94.79   108.46   159.65
          (Kelvin)            199.06   213.80   276.12   316.27   335.03
                              341.31   406.27   416.50   453.29   476.33
                              509.70   539.17   576.67   605.52   640.92
                              758.59   809.50   867.16   908.61   918.70
                              935.20   985.57  1043.76  1142.92  1176.74
                             1252.07  1256.58  1366.54  1442.03  1451.89
                             1462.14  1474.12  1480.26  1484.00  1500.94
                             1515.55  1529.31  1539.71  1566.15  1598.77
                             1634.89  1708.85  1774.86  1783.61  1805.70
                             1892.21  1906.44  1933.11  1987.61  1997.28
                             2038.78  2045.41  2103.92  2116.09  2130.46
                             2143.08  2156.28  2163.49  2177.28  2186.56
                             2231.94  2344.86  2374.13  2388.21  2415.46
                             4417.42  4422.72  4441.94  4530.20  4538.48
                             4543.39  4560.34  4575.84  4591.02  4599.81
                             4609.42  4622.27  4637.77  4669.48  5074.77
                             5176.94

 Zero-point correction=                           0.259199 (Hartree/Particle)
 Thermal correction to Energy=                    0.274771
 Thermal correction to Enthalpy=                  0.275715
 Thermal correction to Gibbs Free Energy=         0.215292
 Sum of electronic and zero-point Energies=          -3170.825596
 Sum of electronic and thermal Energies=             -3170.810024
 Sum of electronic and thermal Enthalpies=           -3170.809080
 Sum of electronic and thermal Free Energies=        -3170.869503

                     E (Thermal)             CV                S
                      KCal/Mol        Cal/Mol-Kelvin    Cal/Mol-Kelvin
 Total                  172.421             58.136            127.171
 Electronic               0.000              0.000              0.000
 Translational            0.889              2.981             42.668
 Rotational               0.889              2.981             32.810
 Vibrational            170.644             52.174             51.693
 Vibration     1          0.594              1.983              5.694
 Vibration     2          0.595              1.980              5.079
 Vibration     3          0.597              1.971              4.273
 Vibration     4          0.599              1.965              4.008
 Vibration     5          0.607              1.940              3.252
 Vibration     6          0.614              1.915              2.826
 Vibration     7          0.618              1.904              2.690
 Vibration     8          0.634              1.851              2.209
 Vibration     9          0.647              1.811              1.961
 Vibration    10          0.654              1.791              1.857
 Vibration    11          0.656              1.784              1.824
 Vibration    12          0.681              1.706              1.519
 Vibration    13          0.686              1.693              1.477
 Vibration    14          0.702              1.645              1.336
 Vibration    15          0.713              1.613              1.255
 Vibration    16          0.730              1.567              1.147
 Vibration    17          0.746              1.524              1.060
 Vibration    18          0.767              1.468              0.960
 Vibration    19          0.783              1.425              0.889
 Vibration    20          0.805              1.371              0.810
 Vibration    21          0.882              1.190              0.593
 Vibration    22          0.918              1.112              0.519
 Vibration    23          0.961              1.026              0.445

 Optimization completed.
    -- Stationary point found.
 Normal termination of Gaussian 16 at Sun Feb  7 17:00:17 2021.
