 Gaussian 16, Revision A.03,
 Gaussian 16:  ES64L-G16RevA.03 25-Dec-2016

 ----------------------------------------------------------------------
 # wB97XD def2tzvp, opt=(ts, noeigen, calcfc, maxcycles=70, maxstep=8),
  freq=noraman, scrf=(iefpcm, solvent=water)
 ----------------------------------------------------------------------

 ------------------------
 1_iteration/TS-115-1.out
 ------------------------
 Symbolic Z-matrix:
 Charge =  0 Multiplicity = 1

 SCF Done:  E(RwB97XD) =  -1073.14837319     A.U. after   15 cycles
 SCF Done:  E(RwB97XD) =  -1073.14914759     A.U. after   11 cycles
 SCF Done:  E(RwB97XD) =  -1073.14950987     A.U. after   12 cycles
 SCF Done:  E(RwB97XD) =  -1073.14953885     A.U. after   10 cycles
 SCF Done:  E(RwB97XD) =  -1073.14954794     A.U. after   11 cycles
 SCF Done:  E(RwB97XD) =  -1073.14954920     A.U. after   10 cycles
 SCF Done:  E(RwB97XD) =  -1073.14954969     A.U. after    9 cycles
 SCF Done:  E(RwB97XD) =  -1073.14954973     A.U. after    6 cycles
 SCF Done:  E(RwB97XD) =  -1073.14954976     A.U. after    6 cycles
 Optimization completed.
    -- Stationary point found.
 Normal termination of Gaussian 16 at Sat Feb  6 23:40:56 2021.

 ---------------------------------------------------------------------
 #N Geom=AllCheck Guess=TCheck SCRF=Check GenChk RwB97XD/def2TZVP Freq
 ---------------------------------------------------------------------

 Structure from the checkpoint file:  "/beegfs/scratch/user/q/tla25/Gau-5497.chk"
 ------------------------
 1_iteration/TS-115-1.out
 ------------------------
 Charge =  0 Multiplicity = 1

                         Standard orientation:
 ---------------------------------------------------------------------
 Center     Atomic      Atomic             Coordinates (Angstroms)
 Number     Number       Type             X           Y           Z
 ---------------------------------------------------------------------
      1          6           0       -1.289454   -0.522340    0.184114
      2          6           0       -2.690834   -0.218605    0.194696
      3          8           0       -3.120612    0.947334    0.322250
      4          6           0       -0.291149    0.456128    0.423038
      5          6           0        0.303552    2.941973   -1.062341
      6          1           0        0.049291    3.532394   -1.943749
      7          1           0        0.162241    3.556570   -0.176491
      8          1           0        1.348878    2.641823   -1.123731
      9          7           0       -0.533629    1.748719   -0.962612
     10          1           0       -1.508380    1.964935   -0.760658
     11          1           0       -0.520206    1.211187   -1.820315
     12          6           0        1.151723    0.049497    0.249124
     13          6           0        1.692798   -0.225911   -1.005382
     14          6           0        3.019850   -0.593027   -1.147395
     15          6           0        3.836224   -0.708376   -0.031022
     16          6           0        3.309897   -0.448086    1.223152
     17          6           0        1.982743   -0.064923    1.359809
     18          1           0        1.076659   -0.168062   -1.892410
     19          1           0        3.415614   -0.793663   -2.134801
     20          1           0        4.873394   -0.998413   -0.140149
     21          1           0        3.932404   -0.536102    2.104493
     22          1           0        1.599617    0.136637    2.350294
     23          6           0       -0.507670    1.399633    1.596117
     24          1           0       -0.448038    0.825667    2.521066
     25          1           0        0.259520    2.172173    1.628198
     26          1           0       -1.491909    1.852307    1.551656
     27         17           0       -0.834318   -2.107688   -0.466275
     28          7           0       -3.592696   -1.238163    0.060602
     29          1           0       -3.288534   -2.146472   -0.239612
     30          1           0       -4.534045   -0.968629   -0.164503
 ---------------------------------------------------------------------

 SCF Done:  E(RwB97XD) =  -1073.14954976     A.U. after    1 cycles

 The electronic state is 1-A.
 Alpha  occ. eigenvalues -- -101.68395 -19.19786 -14.47975 -14.43339 -10.37780
 Alpha  occ. eigenvalues --  -10.36202 -10.31667 -10.30850 -10.29985 -10.29540
 Alpha  occ. eigenvalues --  -10.29442 -10.29298 -10.29261 -10.29205 -10.27587
 Alpha  occ. eigenvalues --   -9.56931  -7.31543  -7.30741  -7.30704  -1.12180
 Alpha  occ. eigenvalues --   -1.03749  -0.99304  -0.97694  -0.94837  -0.89874
 Alpha  occ. eigenvalues --   -0.85595  -0.84147  -0.79468  -0.77888  -0.73715
 Alpha  occ. eigenvalues --   -0.70741  -0.68460  -0.64785  -0.62689  -0.61682
 Alpha  occ. eigenvalues --   -0.59373  -0.57174  -0.56045  -0.55953  -0.54552
 Alpha  occ. eigenvalues --   -0.54011  -0.52489  -0.51243  -0.50449  -0.49401
 Alpha  occ. eigenvalues --   -0.48692  -0.47778  -0.47547  -0.46447  -0.45890
 Alpha  occ. eigenvalues --   -0.43880  -0.42831  -0.42450  -0.40488  -0.39715
 Alpha  occ. eigenvalues --   -0.34928  -0.34061  -0.33591  -0.33397  -0.26106
 Alpha virt. eigenvalues --    0.03007   0.05018   0.07374   0.10374   0.11757
 Alpha virt. eigenvalues --    0.13194   0.13833   0.13917   0.14964   0.15883
 Alpha virt. eigenvalues --    0.16981   0.17625   0.17854   0.18652   0.19032

 Mulliken charges:
               1
     1  C   -0.248991
     2  C    0.337070
     3  O   -0.586561
     4  C    0.261556
     5  C   -0.287940
     6  H    0.153728
     7  H    0.157886
     8  H    0.154314
     9  N   -0.328312
    10  H    0.278322
    11  H    0.271778
    12  C    0.230596
    13  C   -0.321824
    14  C   -0.121070
    15  C   -0.152051
    16  C   -0.147964
    17  C   -0.248733
    18  H    0.145047
    19  H    0.145070
    20  H    0.145446
    21  H    0.143912
    22  H    0.148969
    23  C   -0.446217
    24  H    0.147767
    25  H    0.153740
    26  H    0.168261
    27  Cl  -0.193445
    28  N   -0.482301
    29  H    0.258212
    30  H    0.263738
 Sum of Mulliken charges =   0.00000

 Dipole moment (field-independent basis, Debye):
    X=              4.0690    Y=              3.2992    Z=             -3.2707  Tot=              6.1757
 Quadrupole moment (field-independent basis, Debye-Ang):
   XX=            -97.0399   YY=            -92.8182   ZZ=            -87.9019
   XY=              6.0118   XZ=              6.6363   YZ=             -3.1111

  Exact polarizability: 270.662   1.898 209.437  -4.819   1.485 201.380
 Approx polarizability: 203.416  -5.436 173.499  -2.236   2.948 176.448

 ******    1 imaginary frequencies (negative Signs) ******

                      1                      2                      3
                      A                      A                      A
 Frequencies --   -368.7419                25.2409                57.6188
 Red. masses --      5.6321                 4.1969                 6.5475
 Frc consts  --      0.4512                 0.0016                 0.0128
 IR Inten    --    866.9492                 1.6542                 6.1802

                      4                      5                      6
                      A                      A                      A
 Frequencies --     76.4096                84.3236                95.3693
 Red. masses --      3.2083                 5.0991                 3.3196
 Frc consts  --      0.0110                 0.0214                 0.0178
 IR Inten    --      8.0273                 9.9783                 5.1939

                      7                      8                      9
                      A                      A                      A
 Frequencies --    119.1474               154.6313               212.2467
 Red. masses --      2.6257                 1.5845                 2.1247
 Frc consts  --      0.0220                 0.0223                 0.0564
 IR Inten    --     23.0800                 3.2470                 0.2859

                     10                     11                     12
                      A                      A                      A
 Frequencies --    227.9808               244.3184               272.2140
 Red. masses --      5.7538                 4.6648                 3.1211
 Frc consts  --      0.1762                 0.1641                 0.1363
 IR Inten    --     37.6603                 1.5533                13.5776

                     13                     14                     15
                      A                      A                      A
 Frequencies --    284.3573               302.3437               318.3152
 Red. masses --      2.7506                 1.4849                 1.3506
 Frc consts  --      0.1310                 0.0800                 0.0806
 IR Inten    --     16.5801                18.1035               357.6687

                     16                     17                     18
                      A                      A                      A
 Frequencies --    334.8149               352.5080               375.9660
 Red. masses --      3.4687                 3.5819                 3.2901
 Frc consts  --      0.2291                 0.2622                 0.2740
 IR Inten    --     11.5212                10.2406                19.3625

                     19                     20                     21
                      A                      A                      A
 Frequencies --    418.9772               452.6420               468.5738
 Red. masses --      2.8591                 3.9381                 4.4939
 Frc consts  --      0.2957                 0.4754                 0.5813
 IR Inten    --      0.3259                 9.9871                30.7161

                     22                     23                     24
                      A                      A                      A
 Frequencies --    500.2910               519.0677               567.9951
 Red. masses --      1.3659                 2.7932                 3.6053
 Frc consts  --      0.2014                 0.4434                 0.6853
 IR Inten    --     23.9961                37.7140               113.7239

                     25                     26                     27
                      A                      A                      A
 Frequencies --    600.3756               637.8290               683.3792
 Red. masses --      3.0881                 6.3549                 3.8924
 Frc consts  --      0.6558                 1.5232                 1.0710
 IR Inten    --     68.2827                 1.5307                20.2424

                     28                     29                     30
                      A                      A                      A
 Frequencies --    712.9943               729.3061               777.7343
 Red. masses --      1.4573                 1.4043                10.0700
 Frc consts  --      0.4365                 0.4401                 3.5888
 IR Inten    --     51.1265                77.6575                64.4801

                     31                     32                     33
                      A                      A                      A
 Frequencies --    797.0684               832.2494               872.8838
 Red. masses --      2.2360                 3.2624                 1.2519
 Frc consts  --      0.8370                 1.3314                 0.5620
 IR Inten    --     13.0914                11.9839                 0.7042

                     34                     35                     36
                      A                      A                      A
 Frequencies --    956.4687               983.2871              1010.6153
 Red. masses --      1.4280                 3.1053                 1.3932
 Frc consts  --      0.7697                 1.7689                 0.8384
 IR Inten    --      1.8531                63.0475                 0.2442

                     37                     38                     39
                      A                      A                      A
 Frequencies --   1025.6074              1027.4097              1030.9354
 Red. masses --      1.3816                 3.4431                 1.3300
 Frc consts  --      0.8562                 2.1413                 0.8329
 IR Inten    --     14.1889                 9.9341                 0.0374

                     40                     41                     42
                      A                      A                      A
 Frequencies --   1041.0424              1054.1314              1065.7155
 Red. masses --      1.9229                 1.5368                 1.9959
 Frc consts  --      1.2279                 1.0061                 1.3356
 IR Inten    --    105.2454                40.9341                64.3512

                     43                     44                     45
                      A                      A                      A
 Frequencies --   1069.7897              1087.8549              1109.1814
 Red. masses --      2.0359                 1.9855                 1.8683
 Frc consts  --      1.3728                 1.3844                 1.3543
 IR Inten    --     17.3195                91.4863                72.7616

                     46                     47                     48
                      A                      A                      A
 Frequencies --   1130.6100              1138.5115              1187.9112
 Red. masses --      1.9310                 2.1108                 1.1300
 Frc consts  --      1.4543                 1.6120                 0.9395
 IR Inten    --     15.0140                 5.8688                 0.0324

                     49                     50                     51
                      A                      A                      A
 Frequencies --   1224.1105              1232.7658              1265.9910
 Red. masses --      1.2411                 1.2461                 4.5846
 Frc consts  --      1.0957                 1.1158                 4.3292
 IR Inten    --     31.2950                33.3963                41.7385

                     52                     53                     54
                      A                      A                      A
 Frequencies --   1323.8057              1340.8501              1372.5850
 Red. masses --      4.6609                 1.3575                 1.3824
 Frc consts  --      4.8124                 1.4379                 1.5345
 IR Inten    --      7.8012                11.8651                 5.0425

                     55                     56                     57
                      A                      A                      A
 Frequencies --   1379.9696              1401.4803              1411.2785
 Red. masses --      3.2840                 3.1372                 1.4588
 Frc consts  --      3.6846                 3.6305                 1.7119
 IR Inten    --     26.3300              1142.5344               257.2192

                     58                     59                     60
                      A                      A                      A
 Frequencies --   1460.2878              1484.2055              1493.7289
 Red. masses --      1.2166                 1.2069                 1.2077
 Frc consts  --      1.5285                 1.5665                 1.5877
 IR Inten    --     42.2957                42.5758                 1.7924

                     61                     62                     63
                      A                      A                      A
 Frequencies --   1495.3365              1504.2519              1514.3970
 Red. masses --      1.4777                 1.0344                 1.0837
 Frc consts  --      1.9467                 1.3791                 1.4644
 IR Inten    --     28.9573                13.9862                13.9229

                     64                     65                     66
                      A                      A                      A
 Frequencies --   1551.0606              1591.3900              1629.1945
 Red. masses --      2.2589                 2.4690                 1.8338
 Frc consts  --      3.2019                 3.6841                 2.8677
 IR Inten    --      6.3614               483.9412               422.8520

                     67                     68                     69
                      A                      A                      A
 Frequencies --   1653.6944              1666.2876              1679.1933
 Red. masses --      4.7967                 1.1647                 4.9814
 Frc consts  --      7.7286                 1.9053                 8.2756
 IR Inten    --      3.3138                65.8429                 1.8570

                     70                     71                     72
                      A                      A                      A
 Frequencies --   3066.4259              3078.4235              3141.9371
 Red. masses --      1.0351                 1.0392                 1.1036
 Frc consts  --      5.7346                 5.8021                 6.4186
 IR Inten    --     52.6180                27.9774                19.2293

                     73                     74                     75
                      A                      A                      A
 Frequencies --   3146.3202              3170.9382              3198.0424
 Red. masses --      1.1018                 1.1046                 1.0860
 Frc consts  --      6.4263                 6.5438                 6.5439
 IR Inten    --     26.1158                14.6732                 0.9661

                     76                     77                     78
                      A                      A                      A
 Frequencies --   3200.8089              3206.1168              3216.3419
 Red. masses --      1.1000                 1.0892                 1.0930
 Frc consts  --      6.6401                 6.5967                 6.6618
 IR Inten    --      1.8511                 6.3817                33.8420

                     79                     80                     81
                      A                      A                      A
 Frequencies --   3224.7169              3232.5214              3464.6304
 Red. masses --      1.0961                 1.0945                 1.0619
 Frc consts  --      6.7153                 6.7386                 7.5100
 IR Inten    --     22.4277                 8.5252                73.7109

                     82                     83                     84
                      A                      A                      A
 Frequencies --   3590.0225              3623.1787              3744.8115
 Red. masses --      1.0866                 1.0457                 1.1033
 Frc consts  --      8.2508                 8.0879                 9.1161
 IR Inten    --     42.9392                73.0833                80.3162

 - Thermochemistry -
 -------------------
 Temperature   298.150 Kelvin.  Pressure   1.00000 Atm.
 Atom     1 has atomic number  6 and mass  12.00000

 Molecular mass:   226.08729 amu.
 Principal axes and moments of inertia in atomic units:
                           1         2         3
     Eigenvalues --  2183.542864507.924885427.06341
           X            1.00000  -0.00216   0.00069
           Y            0.00217   0.99984  -0.01770
           Z           -0.00065   0.01770   0.99984
 This molecule is an asymmetric top.
 Rotational symmetry number  1.
 Warning -- assumption of classical behavior for rotation
           may cause significant error
 Rotational temperatures (Kelvin)      0.03967     0.01921     0.01596
 Rotational constants (GHZ):           0.82652     0.40035     0.33254
    1 imaginary frequencies ignored.
 Zero-point vibrational energy     652020.7 (Joules/Mol)
                                  155.83668 (Kcal/Mol)
 Warning -- explicit consideration of  24 degrees of freedom as
           vibrations may cause significant error
 Vibrational temperatures:     36.32    82.90   109.94   121.32   137.22
          (Kelvin)            171.43   222.48   305.38   328.01   351.52
                              391.66   409.13   435.01   457.98   481.72
                              507.18   540.93   602.81   651.25   674.17
                              719.81   746.82   817.22   863.81   917.69
                              983.23  1025.84  1049.31  1118.99  1146.80
                             1197.42  1255.89  1376.15  1414.73  1454.05
                             1475.62  1478.21  1483.29  1497.83  1516.66
                             1533.33  1539.19  1565.18  1595.86  1626.70
                             1638.06  1709.14  1761.22  1773.68  1821.48
                             1904.66  1929.18  1974.84  1985.47  2016.42
                             2030.51  2101.03  2135.44  2149.14  2151.46
                             2164.28  2178.88  2231.63  2289.66  2344.05
                             2379.30  2397.42  2415.98  4411.90  4429.16
                             4520.55  4526.85  4562.27  4601.27  4605.25
                             4612.89  4627.60  4639.65  4650.88  4984.83
                             5165.24  5212.95  5387.95

 Zero-point correction=                           0.248342 (Hartree/Particle)
 Thermal correction to Energy=                    0.263765
 Thermal correction to Enthalpy=                  0.264709
 Thermal correction to Gibbs Free Energy=         0.205141
 Sum of electronic and zero-point Energies=          -1072.901208
 Sum of electronic and thermal Energies=             -1072.885785
 Sum of electronic and thermal Enthalpies=           -1072.884841
 Sum of electronic and thermal Free Energies=        -1072.944409

                     E (Thermal)             CV                S
                      KCal/Mol        Cal/Mol-Kelvin    Cal/Mol-Kelvin
 Total                  165.515             57.799            125.372
 Electronic               0.000              0.000              0.000
 Translational            0.889              2.981             42.150
 Rotational               0.889              2.981             32.346
 Vibrational            163.737             51.838             50.876
 Vibration     1          0.593              1.985              6.172
 Vibration     2          0.596              1.974              4.537
 Vibration     3          0.599              1.965              3.981
 Vibration     4          0.601              1.960              3.788
 Vibration     5          0.603              1.952              3.547
 Vibration     6          0.609              1.933              3.114
 Vibration     7          0.620              1.898              2.614
 Vibration     8          0.643              1.822              2.024
 Vibration     9          0.651              1.798              1.895
 Vibration    10          0.660              1.772              1.771
 Vibration    11          0.675              1.725              1.582
 Vibration    12          0.683              1.703              1.507
 Vibration    13          0.694              1.669              1.404
 Vibration    14          0.705              1.639              1.319
 Vibration    15          0.716              1.606              1.237
 Vibration    16          0.729              1.570              1.155
 Vibration    17          0.747              1.521              1.055
 Vibration    18          0.782              1.429              0.895
 Vibration    19          0.811              1.355              0.788
 Vibration    20          0.826              1.320              0.742
 Vibration    21          0.856              1.249              0.657
 Vibration    22          0.874              1.208              0.612
 Vibration    23          0.924              1.100              0.508
 Vibration    24          0.959              1.031              0.449

 Optimization completed.
    -- Stationary point found.
 Normal termination of Gaussian 16 at Sun Feb  7 00:43:03 2021.
