 Gaussian 16, Revision A.03,
 Gaussian 16:  ES64L-G16RevA.03 25-Dec-2016

 ----------------------------------------------------------------------
 # wB97XD def2tzvp, opt=(ts, noeigen, calcfc, maxcycles=70, maxstep=5),
  freq=noraman, scrf=(iefpcm, solvent=water)
 ----------------------------------------------------------------------

 ------------------------
 2_iteration/TS-136-2.out
 ------------------------
 Symbolic Z-matrix:
 Charge =  0 Multiplicity = 1

 SCF Done:  E(RwB97XD) =  -3323.50805307     A.U. after   15 cycles
 SCF Done:  E(RwB97XD) =  -3323.50805311     A.U. after    7 cycles
 Optimization completed.
    -- Stationary point found.
 Normal termination of Gaussian 16 at Sun Feb  7 14:16:08 2021.

 ---------------------------------------------------------------------
 #N Geom=AllCheck Guess=TCheck SCRF=Check GenChk RwB97XD/def2TZVP Freq
 ---------------------------------------------------------------------

 Structure from the checkpoint file:  "/beegfs/scratch/user/q/tla25/Gau-120653.chk"
 ------------------------
 2_iteration/TS-136-2.out
 ------------------------
 Charge =  0 Multiplicity = 1

                         Standard orientation:
 ---------------------------------------------------------------------
 Center     Atomic      Atomic             Coordinates (Angstroms)
 Number     Number       Type             X           Y           Z
 ---------------------------------------------------------------------
      1          6           0       -0.469455    0.284382   -0.025138
      2          6           0       -1.628500   -0.517005    0.195960
      3          8           0       -1.585179   -1.703393    0.548203
      4          6           0        0.829704   -0.195300   -0.045152
      5          6           0        2.440947   -1.546849    2.148503
      6          1           0        2.455474   -1.943506    3.165716
      7          1           0        2.695904   -2.346659    1.455349
      8          1           0        3.188124   -0.757998    2.064797
      9          7           0        1.137240   -1.006491    1.793965
     10          1           0        0.395880   -1.700226    1.787017
     11          1           0        0.858172   -0.249452    2.405696
     12          6           0        1.961360    0.776434   -0.073450
     13          6           0        1.902558    1.870959    0.793881
     14          6           0        2.915566    2.812203    0.817182
     15          6           0        4.010237    2.679948   -0.026734
     16          6           0        4.079941    1.597385   -0.887378
     17          6           0        3.067129    0.648920   -0.906800
     18          1           0        1.059005    1.984554    1.462865
     19          1           0        2.851562    3.649557    1.499995
     20          1           0        4.804290    3.415307   -0.008598
     21          1           0        4.927923    1.482749   -1.550210
     22          1           0        3.140378   -0.189924   -1.583591
     23         35           0        1.154178   -1.853076   -1.025596
     24          1           0       -0.581626    1.358663   -0.027001
     25          6           0       -2.971721    0.143259    0.045407
     26          6           0       -4.055277   -0.370638    0.753573
     27          6           0       -5.311345    0.201143    0.634624
     28          6           0       -5.502715    1.288447   -0.207984
     29          6           0       -4.432171    1.800231   -0.927219
     30          6           0       -3.172767    1.233955   -0.797091
     31          1           0       -3.898022   -1.223189    1.401535
     32          1           0       -6.143742   -0.201050    1.198340
     33          1           0       -6.484883    1.733600   -0.306024
     34          1           0       -4.578163    2.640638   -1.593991
     35          1           0       -2.346716    1.632323   -1.372515
 ---------------------------------------------------------------------

 SCF Done:  E(RwB97XD) =  -3323.50805311     A.U. after    1 cycles

 The electronic state is 1-A.
 Alpha  occ. eigenvalues -- -483.12819 -62.67656 -56.46773 -56.46425 -56.46405
 Alpha  occ. eigenvalues --  -19.21473 -14.47096 -10.40062 -10.36038 -10.31672
 Alpha  occ. eigenvalues --  -10.31333 -10.30065 -10.29873 -10.29734 -10.29674
 Alpha  occ. eigenvalues --  -10.29642 -10.29605 -10.29393 -10.29340 -10.29168
 Alpha  occ. eigenvalues --  -10.29154 -10.29090 -10.26312  -8.81755  -6.63899
 Alpha  occ. eigenvalues --   -6.62799  -6.62732  -2.74286  -2.73983  -2.73930
 Alpha  occ. eigenvalues --   -2.73039  -2.73039  -1.12136  -1.02846  -0.98206
 Alpha  occ. eigenvalues --   -0.96755  -0.93285  -0.87200  -0.86527  -0.85760
 Alpha  occ. eigenvalues --   -0.85306  -0.83423  -0.78356  -0.75595  -0.71801
 Alpha  occ. eigenvalues --   -0.71114  -0.70344  -0.67225  -0.63918  -0.62307
 Alpha  occ. eigenvalues --   -0.60899  -0.60239  -0.56753  -0.56377  -0.55962
 Alpha  occ. eigenvalues --   -0.55213  -0.54331  -0.54034  -0.53089  -0.51790
 Alpha  occ. eigenvalues --   -0.51264  -0.51112  -0.50637  -0.48553  -0.47662
 Alpha  occ. eigenvalues --   -0.47424  -0.46487  -0.45639  -0.44528  -0.43831
 Alpha  occ. eigenvalues --   -0.43419  -0.43064  -0.42578  -0.37565  -0.37000
 Alpha  occ. eigenvalues --   -0.34535  -0.34111  -0.34011  -0.33772  -0.32620
 Alpha  occ. eigenvalues --   -0.28681
 Alpha virt. eigenvalues --   -0.00861   0.03169   0.04567   0.05071   0.06538
 Alpha virt. eigenvalues --    0.08364   0.10849   0.13224   0.13460   0.13984
 Alpha virt. eigenvalues --    0.15165   0.15532   0.16227   0.16958   0.17095

 Mulliken charges:
               1
     1  C   -0.471239
     2  C    0.361079
     3  O   -0.521158
     4  C    0.271527
     5  C   -0.273177
     6  H    0.150145
     7  H    0.146425
     8  H    0.151248
     9  N   -0.367271
    10  H    0.276926
    11  H    0.267636
    12  C    0.099675
    13  C   -0.276632
    14  C   -0.148593
    15  C   -0.133513
    16  C   -0.138270
    17  C   -0.207364
    18  H    0.175391
    19  H    0.147891
    20  H    0.148867
    21  H    0.147029
    22  H    0.150155
    23  Br  -0.110366
    24  H    0.179939
    25  C    0.133230
    26  C   -0.232787
    27  C   -0.131914
    28  C   -0.134139
    29  C   -0.146707
    30  C   -0.244577
    31  H    0.139985
    32  H    0.143511
    33  H    0.146416
    34  H    0.143793
    35  H    0.156839
 Sum of Mulliken charges =   0.00000

 Dipole moment (field-independent basis, Debye):
    X=              4.6029    Y=              4.0777    Z=              3.9908  Tot=              7.3308
 Quadrupole moment (field-independent basis, Debye-Ang):
   XX=           -106.5821   YY=           -121.9248   ZZ=           -114.9190
   XY=             -4.5459   XZ=              3.4370   YZ=             -3.6313

  Exact polarizability: 411.777   4.158 301.757 -11.104 -10.170 254.575
 Approx polarizability: 289.494   3.202 254.320 -14.853  -6.836 219.692

 ******    1 imaginary frequencies (negative Signs) ******

                      1                      2                      3
                      A                      A                      A
 Frequencies --   -372.6131                30.4480                34.7396
 Red. masses --      5.8216                 4.1330                 4.9947
 Frc consts  --      0.4762                 0.0023                 0.0036
 IR Inten    --    808.0828                 0.3161                 2.3198

                      4                      5                      6
                      A                      A                      A
 Frequencies --     39.7363                59.7787                66.3384
 Red. masses --      4.7762                 4.2129                 2.9239
 Frc consts  --      0.0044                 0.0089                 0.0076
 IR Inten    --      0.2095                 1.1609                 5.9694

                      7                      8                      9
                      A                      A                      A
 Frequencies --    103.9280               111.5421               132.6762
 Red. masses --      7.3601                 2.3469                 3.6815
 Frc consts  --      0.0468                 0.0172                 0.0382
 IR Inten    --     12.0512                 4.7491                 2.9431

                     10                     11                     12
                      A                      A                      A
 Frequencies --    143.2192               157.3951               181.3037
 Red. masses --      9.2018                 1.7742                 3.4268
 Frc consts  --      0.1112                 0.0259                 0.0664
 IR Inten    --      1.7741                 3.7118                 3.1567

                     13                     14                     15
                      A                      A                      A
 Frequencies --    216.0829               243.8534               257.7052
 Red. masses --      3.6395                 3.4273                 4.2914
 Frc consts  --      0.1001                 0.1201                 0.1679
 IR Inten    --     20.9342                 1.6594                12.3354

                     16                     17                     18
                      A                      A                      A
 Frequencies --    293.6171               307.8310               340.1149
 Red. masses --      5.5924                 8.1506                 4.6468
 Frc consts  --      0.2841                 0.4551                 0.3167
 IR Inten    --     11.2337                34.0216                 3.3221

                     19                     20                     21
                      A                      A                      A
 Frequencies --    385.8069               420.3794               421.2182
 Red. masses --      5.1556                 2.8737                 2.9058
 Frc consts  --      0.4521                 0.2992                 0.3038
 IR Inten    --     27.5222                 0.1465                 1.2141

                     22                     23                     24
                      A                      A                      A
 Frequencies --    440.7356               495.7978               549.2743
 Red. masses --      4.4595                 4.6740                 2.8418
 Frc consts  --      0.5104                 0.6769                 0.5051
 IR Inten    --     34.9458                20.0157               110.2872

                     25                     26                     27
                      A                      A                      A
 Frequencies --    587.5942               609.9181               635.8829
 Red. masses --      4.6065                 2.3745                 6.4078
 Frc consts  --      0.9371                 0.5204                 1.5265
 IR Inten    --     20.3330                16.4607                 0.7053

                     28                     29                     30
                      A                      A                      A
 Frequencies --    636.8444               671.4325               691.3841
 Red. masses --      5.5368                 1.5274                 4.7532
 Frc consts  --      1.3231                 0.4057                 1.3387
 IR Inten    --      0.7573               108.5530                19.5747

                     31                     32                     33
                      A                      A                      A
 Frequencies --    716.0879               722.1969               724.4981
 Red. masses --      2.9507                 1.6608                 1.4919
 Frc consts  --      0.8915                 0.5103                 0.4614
 IR Inten    --     37.2199                54.4387                63.7684

                     34                     35                     36
                      A                      A                      A
 Frequencies --    752.0814               798.3316               829.5646
 Red. masses --      2.0350                 2.0538                 4.3041
 Frc consts  --      0.6782                 0.7712                 1.7451
 IR Inten    --    274.2848                14.8924                39.2924

                     37                     38                     39
                      A                      A                      A
 Frequencies --    835.1799               877.6317               880.9237
 Red. masses --      3.5159                 1.2469                 1.2494
 Frc consts  --      1.4449                 0.5659                 0.5712
 IR Inten    --     22.2237                 1.0946                 0.5631

                     40                     41                     42
                      A                      A                      A
 Frequencies --    947.1944               969.7540               972.5468
 Red. masses --      3.6460                 1.4906                 1.4811
 Frc consts  --      1.9273                 0.8259                 0.8254
 IR Inten    --    159.8228                 7.5186                 3.3327

                     43                     44                     45
                      A                      A                      A
 Frequencies --   1001.0209              1005.8911              1017.7533
 Red. masses --      1.1040                 1.1921                 1.3827
 Frc consts  --      0.6518                 0.7106                 0.8438
 IR Inten    --     50.3952                85.2325                 1.8245

                     46                     47                     48
                      A                      A                      A
 Frequencies --   1019.2866              1024.8712              1025.9946
 Red. masses --      1.3640                 5.7781                 5.9734
 Frc consts  --      0.8350                 3.5758                 3.7048
 IR Inten    --      1.5636                 5.5115                 1.8104

                     49                     50                     51
                      A                      A                      A
 Frequencies --   1033.8132              1036.9572              1057.6661
 Red. masses --      1.3168                 1.3203                 2.3504
 Frc consts  --      0.8292                 0.8364                 1.5491
 IR Inten    --      1.0400                 0.6783                16.0651

                     52                     53                     54
                      A                      A                      A
 Frequencies --   1063.4164              1083.1162              1099.0156
 Red. masses --      2.1813                 4.7118                 2.3176
 Frc consts  --      1.4534                 3.2568                 1.6493
 IR Inten    --     26.3559               115.2194                41.3516

                     55                     56                     57
                      A                      A                      A
 Frequencies --   1113.6421              1121.5446              1183.3955
 Red. masses --      1.6972                 1.6229                 1.1355
 Frc consts  --      1.2402                 1.2028                 0.9369
 IR Inten    --     19.0874                 9.3161                 1.9043

                     58                     59                     60
                      A                      A                      A
 Frequencies --   1185.7087              1191.3751              1201.2297
 Red. masses --      1.1298                 1.4283                 1.2845
 Frc consts  --      0.9359                 1.1944                 1.0920
 IR Inten    --      2.7262                48.9819                12.9460

                     61                     62                     63
                      A                      A                      A
 Frequencies --   1207.4194              1218.2352              1251.6927
 Red. masses --      1.4303                 1.7967                 1.7494
 Frc consts  --      1.2286                 1.5711                 1.6148
 IR Inten    --     79.4914                66.4044               574.9185

                     64                     65                     66
                      A                      A                      A
 Frequencies --   1307.1023              1328.9872              1333.0553
 Red. masses --      3.7524                 3.2685                 1.3786
 Frc consts  --      3.7772                 3.4012                 1.4434
 IR Inten    --      5.2003                13.4617                 3.6856

                     67                     68                     69
                      A                      A                      A
 Frequencies --   1345.9855              1355.6769              1358.4595
 Red. masses --      4.1614                 1.6772                 1.4683
 Frc consts  --      4.4419                 1.8162                 1.5965
 IR Inten    --      1.3980                10.1848                 5.3984

                     70                     71                     72
                      A                      A                      A
 Frequencies --   1455.7054              1478.1952              1488.9171
 Red. masses --      1.2232                 2.4720                 1.0680
 Frc consts  --      1.5272                 3.1825                 1.3950
 IR Inten    --    117.1396               909.9007                21.2164

                     73                     74                     75
                      A                      A                      A
 Frequencies --   1490.8855              1499.1721              1501.2655
 Red. masses --      2.1609                 1.7773                 1.2793
 Frc consts  --      2.8299                 2.3534                 1.6987
 IR Inten    --     16.7383               614.0353               327.5549

                     76                     77                     78
                      A                      A                      A
 Frequencies --   1539.4903              1542.8225              1632.7468
 Red. masses --      2.3089                 2.4079                 6.5210
 Frc consts  --      3.2241                 3.3769                10.2425
 IR Inten    --      6.8921                92.7942               260.4673

                     79                     80                     81
                      A                      A                      A
 Frequencies --   1649.7620              1650.7460              1665.3729
 Red. masses --      1.3115                 3.3157                 6.6812
 Frc consts  --      2.1030                 5.3234                10.9177
 IR Inten    --     56.8442                23.1613               153.6470

                     82                     83                     84
                      A                      A                      A
 Frequencies --   1672.4809              1673.2819              3055.8869
 Red. masses --      5.9621                 6.1066                 1.0361
 Frc consts  --      9.8259                10.0737                 5.7006
 IR Inten    --      1.5421                33.3883                63.7673

                     85                     86                     87
                      A                      A                      A
 Frequencies --   3130.3392              3159.9143              3195.0134
 Red. masses --      1.1018                 1.1044                 1.0859
 Frc consts  --      6.3609                 6.4969                 6.5309
 IR Inten    --     17.2899                13.1718                 1.2469

                     88                     89                     90
                      A                      A                      A
 Frequencies --   3200.0773              3202.1902              3206.8536
 Red. masses --      1.0864                 1.0885                 1.0892
 Frc consts  --      6.5549                 6.5762                 6.5993
 IR Inten    --      1.6677                 4.2405                 2.7908

                     91                     92                     93
                      A                      A                      A
 Frequencies --   3210.4791              3215.8218              3218.3794
 Red. masses --      1.0921                 1.0933                 1.0944
 Frc consts  --      6.6323                 6.6615                 6.6789
 IR Inten    --     17.9297                23.1175                26.1260

                     94                     95                     96
                      A                      A                      A
 Frequencies --   3224.0370              3225.6199              3228.8503
 Red. masses --      1.0975                 1.0971                 1.0885
 Frc consts  --      6.7211                 6.7252                 6.6859
 IR Inten    --     17.8961                16.7653                 3.9881

                     97                     98                     99
                      A                      A                      A
 Frequencies --   3238.0335              3506.8168              3599.9379
 Red. masses --      1.0936                 1.0528                 1.0951
 Frc consts  --      6.7560                 7.6285                 8.3615
 IR Inten    --      5.2681                29.7699                47.7378

 - Thermochemistry -
 -------------------
 Temperature   298.150 Kelvin.  Pressure   1.00000 Atm.
 Atom     1 has atomic number  6 and mass  12.00000

 Molecular mass:   317.04153 amu.
 Principal axes and moments of inertia in atomic units:
                           1         2         3
     Eigenvalues --  3799.61517********************
           X            0.99989   0.01085   0.01003
           Y           -0.01014   0.99763  -0.06802
           Z           -0.01075   0.06791   0.99763
 This molecule is an asymmetric top.
 Rotational symmetry number  1.
 Warning -- assumption of classical behavior for rotation
           may cause significant error
 Rotational temperatures (Kelvin)      0.02280     0.00853     0.00730
 Rotational constants (GHZ):           0.47498     0.17768     0.15213
    1 imaginary frequencies ignored.
 Zero-point vibrational energy     743024.4 (Joules/Mol)
                                  177.58709 (Kcal/Mol)
 Warning -- explicit consideration of  25 degrees of freedom as
           vibrations may cause significant error
 Vibrational temperatures:     43.81    49.98    57.17    86.01    95.45
          (Kelvin)            149.53   160.48   190.89   206.06   226.46
                              260.86   310.90   350.85   370.78   422.45
                              442.90   489.35   555.09   604.83   606.04
                              634.12   713.34   790.28   845.42   877.54
                              914.89   916.28   966.04   994.75  1030.29
                             1039.08  1042.39  1082.08  1148.62  1193.56
                             1201.64  1262.72  1267.45  1362.80  1395.26
                             1399.28  1440.25  1447.25  1464.32  1466.53
                             1474.56  1476.18  1487.43  1491.95  1521.75
                             1530.02  1558.36  1581.24  1602.28  1613.65
                             1702.64  1705.97  1714.12  1728.30  1737.21
                             1752.77  1800.91  1880.63  1912.12  1917.97
                             1936.57  1950.52  1954.52  2094.44  2126.79
                             2142.22  2145.05  2156.97  2159.99  2214.98
                             2219.78  2349.16  2373.64  2375.06  2396.10
                             2406.33  2407.48  4396.74  4503.86  4546.41
                             4596.91  4604.20  4607.24  4613.95  4619.16
                             4626.85  4630.53  4638.67  4640.95  4645.60
                             4658.81  5045.53  5179.51

 Zero-point correction=                           0.283003 (Hartree/Particle)
 Thermal correction to Energy=                    0.300722
 Thermal correction to Enthalpy=                  0.301666
 Thermal correction to Gibbs Free Energy=         0.234789
 Sum of electronic and zero-point Energies=          -3323.225050
 Sum of electronic and thermal Energies=             -3323.207331
 Sum of electronic and thermal Enthalpies=           -3323.206387
 Sum of electronic and thermal Free Energies=        -3323.273264

                     E (Thermal)             CV                S
                      KCal/Mol        Cal/Mol-Kelvin    Cal/Mol-Kelvin
 Total                  188.706             66.357            140.753
 Electronic               0.000              0.000              0.000
 Translational            0.889              2.981             43.157
 Rotational               0.889              2.981             34.481
 Vibrational            186.928             60.395             63.115
 Vibration     1          0.594              1.984              5.800
 Vibration     2          0.594              1.983              5.539
 Vibration     3          0.594              1.981              5.272
 Vibration     4          0.597              1.973              4.464
 Vibration     5          0.598              1.970              4.259
 Vibration     6          0.605              1.946              3.379
 Vibration     7          0.607              1.940              3.242
 Vibration     8          0.613              1.921              2.907
 Vibration     9          0.616              1.910              2.760
 Vibration    10          0.621              1.894              2.581
 Vibration    11          0.630              1.865              2.315
 Vibration    12          0.645              1.817              1.992
 Vibration    13          0.659              1.773              1.775
 Vibration    14          0.667              1.750              1.677
 Vibration    15          0.688              1.686              1.453
 Vibration    16          0.698              1.659              1.374
 Vibration    17          0.720              1.595              1.212
 Vibration    18          0.754              1.500              1.016
 Vibration    19          0.783              1.426              0.891
 Vibration    20          0.784              1.424              0.888
 Vibration    21          0.801              1.381              0.824
 Vibration    22          0.851              1.259              0.669
 Vibration    23          0.905              1.141              0.546
 Vibration    24          0.945              1.058              0.471
 Vibration    25          0.969              1.011              0.433

 Optimization completed.
    -- Stationary point found.
 Normal termination of Gaussian 16 at Sun Feb  7 16:03:41 2021.
