 Gaussian 16, Revision A.03,
 Gaussian 16:  ES64L-G16RevA.03 25-Dec-2016

 ----------------------------------------------------------------------
 # wB97XD def2tzvp, opt=(ts, noeigen, calcfc, maxcycles=70, maxstep=8),
  freq=noraman, scrf=(iefpcm, solvent=water)
 ----------------------------------------------------------------------

 ------------------------
 1_iteration/TS-194-1.out
 ------------------------
 Symbolic Z-matrix:
 Charge =  0 Multiplicity = 1

 SCF Done:  E(RwB97XD) =  -1477.35377848     A.U. after   15 cycles
 SCF Done:  E(RwB97XD) =  -1477.35723615     A.U. after   13 cycles
 SCF Done:  E(RwB97XD) =  -1477.36084516     A.U. after   13 cycles
 SCF Done:  E(RwB97XD) =  -1477.36394719     A.U. after   13 cycles
 SCF Done:  E(RwB97XD) =  -1477.36457157     A.U. after   13 cycles
 SCF Done:  E(RwB97XD) =  -1477.36492081     A.U. after   12 cycles
 SCF Done:  E(RwB97XD) =  -1477.36536331     A.U. after   12 cycles
 SCF Done:  E(RwB97XD) =  -1477.36552054     A.U. after   12 cycles
 SCF Done:  E(RwB97XD) =  -1477.36556604     A.U. after   11 cycles
 SCF Done:  E(RwB97XD) =  -1477.36507499     A.U. after   13 cycles
 SCF Done:  E(RwB97XD) =  -1477.36552378     A.U. after   12 cycles
 SCF Done:  E(RwB97XD) =  -1477.36559146     A.U. after   12 cycles
 SCF Done:  E(RwB97XD) =  -1477.36559900     A.U. after   10 cycles
 SCF Done:  E(RwB97XD) =  -1477.36560037     A.U. after   10 cycles
 SCF Done:  E(RwB97XD) =  -1477.36556637     A.U. after   12 cycles
 SCF Done:  E(RwB97XD) =  -1477.36559275     A.U. after   12 cycles
 SCF Done:  E(RwB97XD) =  -1477.36560008     A.U. after   10 cycles
 SCF Done:  E(RwB97XD) =  -1477.36559981     A.U. after    9 cycles
 SCF Done:  E(RwB97XD) =  -1477.36559988     A.U. after    7 cycles
 Optimization completed.
    -- Stationary point found.
 Normal termination of Gaussian 16 at Sun Feb  7 07:47:42 2021.

 ---------------------------------------------------------------------
 #N Geom=AllCheck Guess=TCheck SCRF=Check GenChk RwB97XD/def2TZVP Freq
 ---------------------------------------------------------------------

 Structure from the checkpoint file:  "/beegfs/scratch/user/q/tla25/Gau-22561.chk"
 ------------------------
 1_iteration/TS-194-1.out
 ------------------------
 Charge =  0 Multiplicity = 1

                         Standard orientation:
 ---------------------------------------------------------------------
 Center     Atomic      Atomic             Coordinates (Angstroms)
 Number     Number       Type             X           Y           Z
 ---------------------------------------------------------------------
      1          6           0        1.101274   -0.578491   -0.246929
      2          6           0        2.513000   -0.606100   -0.514137
      3          8           0        3.116147   -1.665228   -0.695104
      4          6           0        0.233228    0.508784   -0.048641
      5          6           0        1.096446    0.383225    2.630508
      6          1           0        1.514794    0.930279    3.473509
      7          1           0        0.332728   -0.303985    2.984719
      8          1           0        1.884862   -0.193203    2.147073
      9          7           0        0.529484    1.303458    1.648274
     10          1           0       -0.331627    1.733954    1.968542
     11          1           0        1.176584    2.058412    1.450607
     12          6           0       -1.255755    0.247074   -0.068026
     13          6           0       -1.883179    0.186955   -1.310884
     14          6           0       -3.233531   -0.098411   -1.407971
     15          6           0       -3.983886   -0.325655   -0.262766
     16          6           0       -3.366485   -0.274091    0.975184
     17          6           0       -2.010675    0.005575    1.072026
     18          1           0       -1.307711    0.359971   -2.210602
     19          1           0       -3.700647   -0.141425   -2.383367
     20          1           0       -5.041343   -0.543831   -0.336787
     21          1           0       -3.935552   -0.456797    1.877384
     22          1           0       -1.562533    0.000304    2.054588
     23         17           0        0.570516    2.003776   -0.996344
     24         17           0        0.399200   -2.176639    0.011052
     25          6           0        3.325357    0.674287   -0.564614
     26          1           0        3.018779    1.423931    0.161629
     27          1           0        4.363494    0.403704   -0.382373
     28          1           0        3.252685    1.126056   -1.554557
 ---------------------------------------------------------------------

 SCF Done:  E(RwB97XD) =  -1477.36559988     A.U. after    1 cycles

 The electronic state is 1-A.
 Alpha  occ. eigenvalues -- -101.70627-101.68494 -19.21034 -14.50659 -10.42332
 Alpha  occ. eigenvalues --  -10.36469 -10.32624 -10.32131 -10.31815 -10.30339
 Alpha  occ. eigenvalues --  -10.29969 -10.29762 -10.29709 -10.29631 -10.27798
 Alpha  occ. eigenvalues --   -9.59242  -9.57020  -7.33892  -7.33019  -7.32977
 Alpha  occ. eigenvalues --   -7.31662  -7.30805  -7.30788  -1.12159  -1.06385
 Alpha  occ. eigenvalues --   -1.00034  -0.96651  -0.94656  -0.87481  -0.86110
 Alpha  occ. eigenvalues --   -0.84969  -0.80957  -0.80189  -0.74236  -0.71665
 Alpha  occ. eigenvalues --   -0.68675  -0.65639  -0.62208  -0.60326  -0.59086
 Alpha  occ. eigenvalues --   -0.57358  -0.56657  -0.56282  -0.54446  -0.53325
 Alpha  occ. eigenvalues --   -0.52214  -0.51704  -0.50943  -0.49584  -0.48833
 Alpha  occ. eigenvalues --   -0.47645  -0.46931  -0.46562  -0.44927  -0.44377
 Alpha  occ. eigenvalues --   -0.43665  -0.41397  -0.40505  -0.40037  -0.38854
 Alpha  occ. eigenvalues --   -0.34604  -0.34283  -0.32547  -0.28224
 Alpha virt. eigenvalues --    0.02169   0.03649   0.04913   0.06951   0.09928
 Alpha virt. eigenvalues --    0.11513   0.13449   0.14079   0.14339   0.14724
 Alpha virt. eigenvalues --    0.16247   0.16823   0.17697   0.18323   0.18966

 Mulliken charges:
               1
     1  C   -0.185779
     2  C    0.163984
     3  O   -0.485854
     4  C    0.272447
     5  C   -0.280943
     6  H    0.170473
     7  H    0.159522
     8  H    0.161291
     9  N   -0.322622
    10  H    0.300464
    11  H    0.286777
    12  C    0.179513
    13  C   -0.285949
    14  C   -0.129865
    15  C   -0.137717
    16  C   -0.175008
    17  C   -0.200980
    18  H    0.154200
    19  H    0.148369
    20  H    0.148765
    21  H    0.147281
    22  H    0.142691
    23  Cl  -0.100476
    24  Cl  -0.169141
    25  C   -0.352919
    26  H    0.107672
    27  H    0.132168
    28  H    0.151637
 Sum of Mulliken charges =  -0.00000

 Dipole moment (field-independent basis, Debye):
    X=             -4.9082    Y=              8.5188    Z=              6.6301  Tot=             11.8583
 Quadrupole moment (field-independent basis, Debye-Ang):
   XX=           -105.4503   YY=           -112.3627   ZZ=            -86.0988
   XY=             18.3525   XZ=              7.5596   YZ=              3.2194

  Exact polarizability: 271.500  -1.238 209.617 -12.652   3.173 221.217
 Approx polarizability: 208.469  -0.112 180.998  -8.674   1.291 191.858

 ******    1 imaginary frequencies (negative Signs) ******

                      1                      2                      3
                      A                      A                      A
 Frequencies --   -326.5869                29.9154                56.1044
 Red. masses --      5.6497                 4.0906                 4.6528
 Frc consts  --      0.3550                 0.0022                 0.0086
 IR Inten    --    743.6635                 2.1299                 1.9790

                      4                      5                      6
                      A                      A                      A
 Frequencies --     72.9719                80.5561               102.8643
 Red. masses --      6.4545                 6.9820                 1.5809
 Frc consts  --      0.0203                 0.0267                 0.0099
 IR Inten    --      6.3391                 6.5024                 1.3736

                      7                      8                      9
                      A                      A                      A
 Frequencies --    130.7083               133.1462               201.7062
 Red. masses --      1.8058                 3.2253                 4.3329
 Frc consts  --      0.0182                 0.0337                 0.1039
 IR Inten    --      0.6286                 1.8136                 0.4646

                     10                     11                     12
                      A                      A                      A
 Frequencies --    205.5035               220.9742               239.5570
 Red. masses --      5.5484                 1.5791                 5.3713
 Frc consts  --      0.1381                 0.0454                 0.1816
 IR Inten    --     10.3192                 0.5133                 2.0890

                     13                     14                     15
                      A                      A                      A
 Frequencies --    264.4230               281.3254               311.6190
 Red. masses --      2.2297                 4.1020                 4.3339
 Frc consts  --      0.0919                 0.1913                 0.2480
 IR Inten    --      4.8429                 3.4161                15.4568

                     16                     17                     18
                      A                      A                      A
 Frequencies --    333.4448               346.8428               373.3058
 Red. masses --      4.8309                 5.6330                10.5980
 Frc consts  --      0.3165                 0.3993                 0.8702
 IR Inten    --     21.1828                20.0449                15.2659

                     19                     20                     21
                      A                      A                      A
 Frequencies --    415.9358               419.8842               515.9007
 Red. masses --      4.2390                 2.9343                 4.2923
 Frc consts  --      0.4321                 0.3048                 0.6731
 IR Inten    --      9.3799                 0.4284                37.0943

                     22                     23                     24
                      A                      A                      A
 Frequencies --    576.6971               596.9993               630.3940
 Red. masses --      4.0814                 4.2044                 2.7376
 Frc consts  --      0.7998                 0.8829                 0.6410
 IR Inten    --    103.4214                81.0268                10.2320

                     25                     26                     27
                      A                      A                      A
 Frequencies --    637.5000               660.3906               703.2846
 Red. masses --      6.1473                 3.4047                 1.8007
 Frc consts  --      1.4720                 0.8749                 0.5248
 IR Inten    --      4.0625                99.1962                50.3537

                     28                     29                     30
                      A                      A                      A
 Frequencies --    728.8945               761.4669               811.3532
 Red. masses --      1.6620                 3.2497                 3.2084
 Frc consts  --      0.5202                 1.1102                 1.2444
 IR Inten    --     74.6568               268.1176                39.2104

                     31                     32                     33
                      A                      A                      A
 Frequencies --    873.1878               894.9543               928.6530
 Red. masses --      1.2674                 4.0851                 3.1287
 Frc consts  --      0.5693                 1.9278                 1.5897
 IR Inten    --      0.5543                21.9235                38.4120

                     34                     35                     36
                      A                      A                      A
 Frequencies --    963.3058              1007.3569              1013.8818
 Red. masses --      1.5156                 1.1825                 1.3245
 Frc consts  --      0.8286                 0.7070                 0.8022
 IR Inten    --      1.4989                 9.9852                 1.5223

                     37                     38                     39
                      A                      A                      A
 Frequencies --   1026.5362              1033.7902              1035.5033
 Red. masses --      4.8039                 1.4677                 1.6109
 Frc consts  --      2.9826                 0.9242                 1.0177
 IR Inten    --     12.0832                22.4513                43.7166

                     40                     41                     42
                      A                      A                      A
 Frequencies --   1044.0907              1068.3838              1072.8998
 Red. masses --      1.7621                 1.7907                 2.1919
 Frc consts  --      1.1318                 1.2043                 1.4866
 IR Inten    --     27.9473                12.8839                 3.4555

                     43                     44                     45
                      A                      A                      A
 Frequencies --   1075.7848              1130.5820              1187.9311
 Red. masses --      2.1260                 1.5824                 1.1435
 Frc consts  --      1.4496                 1.1917                 0.9507
 IR Inten    --    123.3186                 5.7962                 0.9187

                     46                     47                     48
                      A                      A                      A
 Frequencies --   1211.5170              1227.5880              1239.6905
 Red. masses --      3.4254                 1.1535                 1.4207
 Frc consts  --      2.9623                 1.0241                 1.2864
 IR Inten    --    104.1018                 8.4060                31.2086

                     49                     50                     51
                      A                      A                      A
 Frequencies --   1303.7825              1323.1666              1336.1857
 Red. masses --      4.8874                 4.5897                 1.3473
 Frc consts  --      4.8948                 4.7344                 1.4173
 IR Inten    --    122.5848                 4.6064                 8.9310

                     52                     53                     54
                      A                      A                      A
 Frequencies --   1371.5186              1388.1070              1401.7383
 Red. masses --      1.3784                 1.7290                 2.6547
 Frc consts  --      1.5277                 1.9629                 3.0732
 IR Inten    --      5.6006               364.0861               872.5208

                     55                     56                     57
                      A                      A                      A
 Frequencies --   1459.9948              1466.7707              1490.0270
 Red. masses --      1.1993                 1.0975                 1.2187
 Frc consts  --      1.5062                 1.3912                 1.5942
 IR Inten    --     29.9677                 3.9535                 2.1365

                     58                     59                     60
                      A                      A                      A
 Frequencies --   1491.3864              1491.5971              1500.7148
 Red. masses --      1.6760                 1.0581                 1.0614
 Frc consts  --      2.1963                 1.3870                 1.4084
 IR Inten    --     37.4924                18.9458                21.3092

                     61                     62                     63
                      A                      A                      A
 Frequencies --   1547.5511              1651.3763              1653.7794
 Red. masses --      2.2427                 4.3261                 3.6491
 Frc consts  --      3.1646                 6.9509                 5.8802
 IR Inten    --     10.1236               580.4526               205.5402

                     64                     65                     66
                      A                      A                      A
 Frequencies --   1659.1869              1676.3549              3076.9026
 Red. masses --      1.4613                 5.5232                 1.0365
 Frc consts  --      2.3702                 9.1447                 5.7817
 IR Inten    --     42.6008                 0.6701                 9.9664

                     67                     68                     69
                      A                      A                      A
 Frequencies --   3080.3980              3153.8500              3159.7290
 Red. masses --      1.0334                 1.0998                 1.1041
 Frc consts  --      5.7773                 6.4451                 6.4948
 IR Inten    --     21.5586                13.8864                 4.0252

                     70                     71                     72
                      A                      A                      A
 Frequencies --   3171.3417              3181.9030              3201.7762
 Red. masses --      1.1036                 1.1060                 1.0863
 Frc consts  --      6.5393                 6.5975                 6.5614
 IR Inten    --     33.1770                10.5997                 0.1990

                     73                     74                     75
                      A                      A                      A
 Frequencies --   3210.3932              3219.1427              3226.8838
 Red. masses --      1.0895                 1.0935                 1.0977
 Frc consts  --      6.6161                 6.6767                 6.7347
 IR Inten    --      5.9212                18.2879                16.3240

                     76                     77                     78
                      A                      A                      A
 Frequencies --   3246.4624              3521.4835              3595.6370
 Red. masses --      1.0922                 1.0517                 1.0955
 Frc consts  --      6.7824                 7.6843                 8.3446
 IR Inten    --      9.9448                64.8306                63.9073

 - Thermochemistry -
 -------------------
 Temperature   298.150 Kelvin.  Pressure   1.00000 Atm.
 Atom     1 has atomic number  6 and mass  12.00000

 Molecular mass:   245.03742 amu.
 Principal axes and moments of inertia in atomic units:
                           1         2         3
     Eigenvalues --  2508.832414914.474565325.49947
           X            0.99964   0.02381   0.01201
           Y           -0.02458   0.99735   0.06841
           Z           -0.01035  -0.06868   0.99758
 This molecule is an asymmetric top.
 Rotational symmetry number  1.
 Warning -- assumption of classical behavior for rotation
           may cause significant error
 Rotational temperatures (Kelvin)      0.03452     0.01762     0.01626
 Rotational constants (GHZ):           0.71936     0.36723     0.33889
    1 imaginary frequencies ignored.
 Zero-point vibrational energy     581016.9 (Joules/Mol)
                                  138.86638 (Kcal/Mol)
 Warning -- explicit consideration of  22 degrees of freedom as
           vibrations may cause significant error
 Vibrational temperatures:     43.04    80.72   104.99   115.90   148.00
          (Kelvin)            188.06   191.57   290.21   295.67   317.93
                              344.67   380.45   404.76   448.35   479.75
                              499.03   537.10   598.44   604.12   742.27
                              829.74   858.95   907.00   917.22   950.15
                             1011.87  1048.72  1095.58  1167.36  1256.32
                             1287.64  1336.12  1385.98  1449.36  1458.75
                             1476.96  1487.39  1489.86  1502.21  1537.17
                             1543.66  1547.81  1626.66  1709.17  1743.10
                             1766.23  1783.64  1875.85  1903.74  1922.47
                             1973.31  1997.18  2016.79  2100.61  2110.36
                             2143.82  2145.77  2146.08  2159.19  2226.58
                             2375.96  2379.42  2387.20  2411.90  4426.98
                             4432.01  4537.69  4546.15  4562.85  4578.05
                             4606.64  4619.04  4631.63  4642.77  4670.94
                             5066.63  5173.32

 Zero-point correction=                           0.221298 (Hartree/Particle)
 Thermal correction to Energy=                    0.236606
 Thermal correction to Enthalpy=                  0.237550
 Thermal correction to Gibbs Free Energy=         0.177811
 Sum of electronic and zero-point Energies=          -1477.144302
 Sum of electronic and thermal Energies=             -1477.128994
 Sum of electronic and thermal Enthalpies=           -1477.128050
 Sum of electronic and thermal Free Energies=        -1477.187789

                     E (Thermal)             CV                S
                      KCal/Mol        Cal/Mol-Kelvin    Cal/Mol-Kelvin
 Total                  148.472             56.108            125.730
 Electronic               0.000              0.000              0.000
 Translational            0.889              2.981             42.390
 Rotational               0.889              2.981             32.551
 Vibrational            146.695             50.147             50.790
 Vibration     1          0.594              1.984              5.835
 Vibration     2          0.596              1.975              4.590
 Vibration     3          0.599              1.967              4.072
 Vibration     4          0.600              1.962              3.877
 Vibration     5          0.605              1.947              3.399
 Vibration     6          0.612              1.923              2.936
 Vibration     7          0.613              1.920              2.900
 Vibration     8          0.639              1.837              2.117
 Vibration     9          0.640              1.832              2.083
 Vibration    10          0.648              1.809              1.951
 Vibration    11          0.657              1.780              1.806
 Vibration    12          0.671              1.738              1.632
 Vibration    13          0.681              1.708              1.526
 Vibration    14          0.700              1.652              1.354
 Vibration    15          0.715              1.609              1.243
 Vibration    16          0.725              1.582              1.180
 Vibration    17          0.745              1.527              1.066
 Vibration    18          0.779              1.436              0.906
 Vibration    19          0.783              1.427              0.892
 Vibration    20          0.871              1.215              0.620
 Vibration    21          0.933              1.082              0.492
 Vibration    22          0.955              1.038              0.455

 Optimization completed.
    -- Stationary point found.
 Normal termination of Gaussian 16 at Sun Feb  7 08:43:58 2021.
