 Gaussian 16, Revision A.03,
 Gaussian 16:  ES64L-G16RevA.03 25-Dec-2016

 ----------------------------------------------------------------------
 # wB97XD def2tzvp, opt=(ts, noeigen, calcfc, maxcycles=70, maxstep=5),
  freq=noraman, scrf=(iefpcm, solvent=water)
 ----------------------------------------------------------------------

 -----------------------
 2_iteration/TS-19-2.out
 -----------------------
 Symbolic Z-matrix:
 Charge =  0 Multiplicity = 1

 SCF Done:  E(RwB97XD) =  -844.584009040     A.U. after   14 cycles
 SCF Done:  E(RwB97XD) =  -844.584009064     A.U. after    6 cycles
 Optimization completed.
    -- Stationary point found.
 Normal termination of Gaussian 16 at Tue Mar 30 11:52:40 2021.

 ---------------------------------------------------------------------
 #N Geom=AllCheck Guess=TCheck SCRF=Check GenChk RwB97XD/def2TZVP Freq
 ---------------------------------------------------------------------

 Structure from the checkpoint file:  "/beegfs/scratch/user/q/tla25/Gau-9232.chk"
 -----------------------
 2_iteration/TS-19-2.out
 -----------------------
 Charge =  0 Multiplicity = 1

                         Standard orientation:
 ---------------------------------------------------------------------
 Center     Atomic      Atomic             Coordinates (Angstroms)
 Number     Number       Type             X           Y           Z
 ---------------------------------------------------------------------
      1          6           0        0.662146   -1.441072   -0.555303
      2          6           0        2.053193   -1.656600   -0.349803
      3          8           0        2.733608   -1.074074    0.533553
      4          6           0        0.059766   -0.350511    0.140291
      5          6           0       -0.022736   -2.096223    2.328388
      6          1           0        0.593312   -2.436987    3.160040
      7          1           0       -1.070886   -2.150492    2.611470
      8          1           0        0.153297   -2.746186    1.470338
      9          7           0        0.337521   -0.737638    1.937665
     10          1           0        0.022758   -0.047605    2.608350
     11          1           0        1.356576   -0.674774    1.834922
     12          6           0       -1.428580   -0.153900   -0.065899
     13          6           0       -2.382021   -0.186459    0.941692
     14          6           0       -3.722021    0.060356    0.663098
     15          6           0       -4.128462    0.350303   -0.626966
     16          6           0       -3.180684    0.398493   -1.642097
     17          6           0       -1.849343    0.152648   -1.361854
     18          1           0       -2.106009   -0.398751    1.963606
     19          1           0       -4.446003    0.024738    1.467349
     20          1           0       -5.171833    0.541500   -0.842688
     21          1           0       -3.480543    0.629812   -2.656482
     22          1           0       -1.115846    0.194018   -2.157691
     23          6           0        0.720557    1.026835    0.093733
     24          6           0        1.589650    1.352329   -0.942029
     25          6           0        2.120765    2.627735   -1.054934
     26          6           0        1.784996    3.610783   -0.135775
     27          6           0        0.899460    3.307384    0.887392
     28          6           0        0.366016    2.031990    0.991204
     29          1           0        1.847679    0.592141   -1.666806
     30          1           0        2.798958    2.853731   -1.868455
     31          1           0        2.199167    4.607252   -0.223148
     32          1           0        0.611004    4.067669    1.602312
     33          1           0       -0.357837    1.839841    1.773638
     34          6           0       -0.147755   -2.487004   -1.288556
     35          1           0       -0.102776   -2.386401   -2.380390
     36          1           0        0.182408   -3.502901   -1.046785
     37          1           0       -1.201342   -2.439494   -1.017765
     38          7           0        2.705449   -2.567679   -1.152640
     39          1           0        3.572043   -2.930101   -0.794221
     40          1           0        2.176540   -3.189720   -1.736688
 ---------------------------------------------------------------------

 SCF Done:  E(RwB97XD) =  -844.584009064     A.U. after    1 cycles

 The electronic state is 1-A.
 Alpha  occ. eigenvalues --  -19.18945 -14.48113 -14.42705 -10.36007 -10.35440
 Alpha  occ. eigenvalues --  -10.31296 -10.30718 -10.30234 -10.29367 -10.29197
 Alpha  occ. eigenvalues --  -10.29168 -10.29090 -10.29061 -10.28983 -10.28960
 Alpha  occ. eigenvalues --  -10.28849 -10.28788 -10.28597 -10.26765 -10.24422
 Alpha  occ. eigenvalues --   -1.10938  -1.03932  -0.97996  -0.97728  -0.96357
 Alpha  occ. eigenvalues --   -0.91114  -0.85580  -0.85196  -0.85058  -0.84508
 Alpha  occ. eigenvalues --   -0.79172  -0.77325  -0.73519  -0.71072  -0.70001
 Alpha  occ. eigenvalues --   -0.69774  -0.67686  -0.65014  -0.62095  -0.61948
 Alpha  occ. eigenvalues --   -0.60750  -0.58454  -0.57205  -0.56042  -0.55324
 Alpha  occ. eigenvalues --   -0.54122  -0.54048  -0.53080  -0.52440  -0.51492
 Alpha  occ. eigenvalues --   -0.50945  -0.50717  -0.50213  -0.48675  -0.47943
 Alpha  occ. eigenvalues --   -0.46934  -0.46715  -0.46211  -0.45490  -0.45085
 Alpha  occ. eigenvalues --   -0.44253  -0.43422  -0.42277  -0.41704  -0.41390
 Alpha  occ. eigenvalues --   -0.35022  -0.34444  -0.34020  -0.33662  -0.32743
 Alpha  occ. eigenvalues --   -0.31513  -0.25215
 Alpha virt. eigenvalues --    0.03205   0.04492   0.05410   0.06342   0.08548
 Alpha virt. eigenvalues --    0.10522   0.11976   0.13541   0.13673   0.14910
 Alpha virt. eigenvalues --    0.15358   0.15564   0.15958   0.16789   0.17006

 Mulliken charges:
               1
     1  C   -0.414979
     2  C    0.323195
     3  O   -0.606609
     4  C    0.538502
     5  C   -0.286218
     6  H    0.155794
     7  H    0.144184
     8  H    0.156673
     9  N   -0.308360
    10  H    0.270952
    11  H    0.278586
    12  C    0.105930
    13  C   -0.235532
    14  C   -0.165238
    15  C   -0.151301
    16  C   -0.115231
    17  C   -0.287460
    18  H    0.145322
    19  H    0.141827
    20  H    0.143401
    21  H    0.142062
    22  H    0.157346
    23  C    0.133012
    24  C   -0.242830
    25  C   -0.150028
    26  C   -0.140740
    27  C   -0.175790
    28  C   -0.269735
    29  H    0.156215
    30  H    0.139393
    31  H    0.142354
    32  H    0.140316
    33  H    0.152864
    34  C   -0.450500
    35  H    0.131839
    36  H    0.124187
    37  H    0.142565
    38  N   -0.486003
    39  H    0.256116
    40  H    0.263917
 Sum of Mulliken charges =  -0.00000

 Dipole moment (field-independent basis, Debye):
    X=             -4.5603    Y=             -1.3693    Z=              2.7927  Tot=              5.5200
 Quadrupole moment (field-independent basis, Debye-Ang):
   XX=           -125.1733   YY=           -107.8766   ZZ=           -102.4633
   XY=             -1.1847   XZ=             -6.8524   YZ=              0.1089

  Exact polarizability: 321.596  -4.289 285.149 -28.563  11.333 297.757
 Approx polarizability: 251.680  -2.067 226.372 -21.865   8.708 256.902

 ******    1 imaginary frequencies (negative Signs) ******

                      1                      2                      3
                      A                      A                      A
 Frequencies --   -391.5539                41.4053                58.6935
 Red. masses --      4.8320                 3.4740                 4.2212
 Frc consts  --      0.4365                 0.0035                 0.0086
 IR Inten    --    693.6980                 1.0699                 0.4443

                      4                      5                      6
                      A                      A                      A
 Frequencies --     62.5195                82.0835                90.3310
 Red. masses --      4.2482                 2.9031                 3.7741
 Frc consts  --      0.0098                 0.0115                 0.0181
 IR Inten    --      0.5681                 1.3711                17.0778

                      7                      8                      9
                      A                      A                      A
 Frequencies --    103.2649               134.5356               139.1460
 Red. masses --      3.5398                 1.9833                 1.6601
 Frc consts  --      0.0222                 0.0212                 0.0189
 IR Inten    --      5.1445                 4.2932                 7.7201

                     10                     11                     12
                      A                      A                      A
 Frequencies --    151.1262               171.7583               178.1457
 Red. masses --      1.6557                 2.8136                 2.1891
 Frc consts  --      0.0223                 0.0489                 0.0409
 IR Inten    --      2.7894                 7.7799                13.1850

                     13                     14                     15
                      A                      A                      A
 Frequencies --    227.3790               257.3786               265.1535
 Red. masses --      4.6721                 3.9875                 3.0435
 Frc consts  --      0.1423                 0.1556                 0.1261
 IR Inten    --     19.6698                34.9450                 3.9779

                     16                     17                     18
                      A                      A                      A
 Frequencies --    271.7141               303.5020               321.8180
 Red. masses --      4.7310                 3.8829                 3.2313
 Frc consts  --      0.2058                 0.2107                 0.1972
 IR Inten    --      3.1236                30.6673               107.5617

                     19                     20                     21
                      A                      A                      A
 Frequencies --    342.5875               365.2171               371.6314
 Red. masses --      1.7604                 3.3951                 3.1808
 Frc consts  --      0.1217                 0.2668                 0.2588
 IR Inten    --    205.4300                10.8095                24.5601

                     22                     23                     24
                      A                      A                      A
 Frequencies --    385.1463               424.9384               429.1842
 Red. masses --      2.0160                 2.8745                 2.9706
 Frc consts  --      0.1762                 0.3058                 0.3224
 IR Inten    --     68.9160                 0.1381                 0.1086

                     25                     26                     27
                      A                      A                      A
 Frequencies --    473.5876               493.4999               537.8837
 Red. masses --      1.2247                 3.6753                 3.3158
 Frc consts  --      0.1618                 0.5274                 0.5652
 IR Inten    --     24.0004                 5.0850                 1.9297

                     28                     29                     30
                      A                      A                      A
 Frequencies --    569.1372               599.9703               629.6890
 Red. masses --      4.8657                 3.0867                 4.1175
 Frc consts  --      0.9286                 0.6547                 0.9619
 IR Inten    --     33.1381                35.9352                72.9899

                     31                     32                     33
                      A                      A                      A
 Frequencies --    638.3344               645.2088               656.6521
 Red. masses --      6.3716                 4.6801                 5.8505
 Frc consts  --      1.5297                 1.1479                 1.4863
 IR Inten    --      0.3252                54.9109                16.1777

                     34                     35                     36
                      A                      A                      A
 Frequencies --    716.8830               728.5476               732.2050
 Red. masses --      3.6802                 1.6599                 1.5492
 Frc consts  --      1.1143                 0.5191                 0.4894
 IR Inten    --     75.8101                87.8119                99.1409

                     37                     38                     39
                      A                      A                      A
 Frequencies --    750.5898               777.2611               796.8130
 Red. masses --      1.8181                 2.3209                 3.2007
 Frc consts  --      0.6035                 0.8261                 1.1973
 IR Inten    --     54.4171                42.0910                48.3482

                     40                     41                     42
                      A                      A                      A
 Frequencies --    805.2904               876.2181               880.9668
 Red. masses --      3.0913                 1.2474                 1.2735
 Frc consts  --      1.1811                 0.5643                 0.5823
 IR Inten    --     66.8651                 0.2524                 0.7797

                     43                     44                     45
                      A                      A                      A
 Frequencies --    891.0786               925.0720               961.1554
 Red. masses --      2.4825                 3.1244                 1.5915
 Frc consts  --      1.1614                 1.5753                 0.8662
 IR Inten    --      2.0322                 4.9633                14.7274

                     46                     47                     48
                      A                      A                      A
 Frequencies --    966.3978              1005.1801              1013.8296
 Red. masses --      1.5292                 1.2041                 1.3637
 Frc consts  --      0.8415                 0.7168                 0.8258
 IR Inten    --      9.9910                55.3974                 4.5160

                     49                     50                     51
                      A                      A                      A
 Frequencies --   1019.9222              1025.8722              1026.8803
 Red. masses --      1.4371                 5.2273                 4.1516
 Frc consts  --      0.8808                 3.2413                 2.5793
 IR Inten    --     14.2154                13.7982                16.2948

                     52                     53                     54
                      A                      A                      A
 Frequencies --   1029.4024              1030.2203              1033.6906
 Red. masses --      1.6018                 1.3989                 1.5321
 Frc consts  --      1.0001                 0.8748                 0.9645
 IR Inten    --     70.9279                19.6165                54.7735

                     55                     56                     57
                      A                      A                      A
 Frequencies --   1065.8965              1067.1513              1071.2877
 Red. masses --      1.9559                 1.4829                 1.9737
 Frc consts  --      1.3093                 0.9950                 1.3345
 IR Inten    --      4.0694                 5.0618                13.5876

                     58                     59                     60
                      A                      A                      A
 Frequencies --   1085.1936              1089.4254              1119.5109
 Red. masses --      3.7793                 1.8490                 1.5756
 Frc consts  --      2.6223                 1.2930                 1.1634
 IR Inten    --     31.6915                27.7052                 2.0659

                     61                     62                     63
                      A                      A                      A
 Frequencies --   1126.6540              1129.4694              1183.5382
 Red. masses --      1.4345                 1.3584                 1.3453
 Frc consts  --      1.0729                 1.0210                 1.1103
 IR Inten    --      8.0381                70.0756                 4.0488

                     64                     65                     66
                      A                      A                      A
 Frequencies --   1184.4563              1188.1869              1205.6082
 Red. masses --      1.1291                 2.1496                 3.6866
 Frc consts  --      0.9333                 1.7880                 3.1571
 IR Inten    --      0.0568                12.7241                21.0285

                     67                     68                     69
                      A                      A                      A
 Frequencies --   1214.6992              1219.2459              1250.6716
 Red. masses --      1.1290                 1.1541                 1.5395
 Frc consts  --      0.9815                 1.0108                 1.4188
 IR Inten    --      0.5904                 4.0203                92.9439

                     70                     71                     72
                      A                      A                      A
 Frequencies --   1277.6631              1318.5787              1325.8070
 Red. masses --      3.0035                 4.2184                 4.7582
 Frc consts  --      2.8888                 4.3213                 4.9278
 IR Inten    --     43.9472                 4.7503                 4.2740

                     73                     74                     75
                      A                      A                      A
 Frequencies --   1359.3488              1363.3375              1372.5860
 Red. masses --      1.4849                 1.7278                 1.8168
 Frc consts  --      1.6166                 1.8922                 2.0167
 IR Inten    --      3.4642                47.9421                13.7193

                     76                     77                     78
                      A                      A                      A
 Frequencies --   1391.9915              1408.3586              1431.2236
 Red. masses --      1.7187                 2.9185                 1.4309
 Frc consts  --      1.9621                 3.4107                 1.7270
 IR Inten    --     26.5242               810.7387               186.4937

                     79                     80                     81
                      A                      A                      A
 Frequencies --   1441.1725              1487.0625              1488.9697
 Red. masses --      1.2165                 2.0472                 1.0619
 Frc consts  --      1.4887                 2.6673                 1.3871
 IR Inten    --     21.6330                11.1586                12.1303

                     82                     83                     84
                      A                      A                      A
 Frequencies --   1490.1292              1492.2602              1506.7817
 Red. masses --      1.2560                 1.7135                 1.0486
 Frc consts  --      1.6432                 2.2481                 1.4027
 IR Inten    --     15.0467                48.1144                 0.4642

                     85                     86                     87
                      A                      A                      A
 Frequencies --   1509.4653              1541.4923              1544.4547
 Red. masses --      1.0879                 2.2375                 2.2824
 Frc consts  --      1.4604                 3.1325                 3.2077
 IR Inten    --    136.9792                25.7947                 6.8749

                     88                     89                     90
                      A                      A                      A
 Frequencies --   1583.3047              1622.3684              1647.5009
 Red. masses --      4.0145                 1.2020                 1.6097
 Frc consts  --      5.9295                 1.8641                 2.5743
 IR Inten    --    584.7226               329.3054                 6.7823

                     91                     92                     93
                      A                      A                      A
 Frequencies --   1651.5208              1655.0961              1672.5099
 Red. masses --      4.2087                 3.4354                 5.8925
 Frc consts  --      6.7633                 5.5447                 9.7116
 IR Inten    --      2.2618                 6.9830                 9.8964

                     94                     95                     96
                      A                      A                      A
 Frequencies --   1677.0609              2998.9929              3047.2162
 Red. masses --      5.9196                 1.0494                 1.0946
 Frc consts  --      9.8093                 5.5607                 5.9884
 IR Inten    --      2.1548               141.5343                73.4086

                     97                     98                     99
                      A                      A                      A
 Frequencies --   3067.5357              3134.2919              3140.7553
 Red. masses --      1.0338                 1.0923                 1.1035
 Frc consts  --      5.7316                 6.3221                 6.4134
 IR Inten    --     55.8056                25.8995                10.5945

                    100                    101                    102
                      A                      A                      A
 Frequencies --   3169.9328              3192.3076              3194.7882
 Red. masses --      1.1049                 1.0856                 1.0860
 Frc consts  --      6.5414                 6.5181                 6.5306
 IR Inten    --     23.4585                 4.3661                 1.5452

                    103                    104                    105
                      A                      A                      A
 Frequencies --   3198.4928              3201.9198              3208.0293
 Red. masses --      1.0884                 1.0889                 1.0927
 Frc consts  --      6.5606                 6.5773                 6.6257
 IR Inten    --      3.6559                 3.0026                32.4578

                    106                    107                    108
                      A                      A                      A
 Frequencies --   3210.8006              3219.0515              3221.3349
 Red. masses --      1.0936                 1.0962                 1.0978
 Frc consts  --      6.6427                 6.6926                 6.7118
 IR Inten    --     25.4911                26.4139                25.8049

                    109                    110                    111
                      A                      A                      A
 Frequencies --   3227.0245              3242.1207              3333.6407
 Red. masses --      1.0946                 1.0920                 1.0694
 Frc consts  --      6.7163                 6.7631                 7.0022
 IR Inten    --     10.6366                17.5131               196.9704

                    112                    113                    114
                      A                      A                      A
 Frequencies --   3582.9365              3618.2199              3737.3538
 Red. masses --      1.0808                 1.0465                 1.1019
 Frc consts  --      8.1749                 8.0716                 9.0684
 IR Inten    --     53.6395                47.2535                50.1457

 - Thermochemistry -
 -------------------
 Temperature   298.150 Kelvin.  Pressure   1.00000 Atm.
 Atom     1 has atomic number  6 and mass  12.00000

 Molecular mass:   268.15756 amu.
 Principal axes and moments of inertia in atomic units:
                           1         2         3
     Eigenvalues --  4409.403195385.977487234.77051
           X            0.99995   0.00477  -0.00821
           Y           -0.00477   0.99999   0.00015
           Z            0.00821  -0.00011   0.99997
 This molecule is an asymmetric top.
 Rotational symmetry number  1.
 Warning -- assumption of classical behavior for rotation
           may cause significant error
 Rotational temperatures (Kelvin)      0.01964     0.01608     0.01197
 Rotational constants (GHZ):           0.40929     0.33508     0.24945
    1 imaginary frequencies ignored.
 Zero-point vibrational energy     890164.5 (Joules/Mol)
                                  212.75442 (Kcal/Mol)
 Warning -- explicit consideration of  28 degrees of freedom as
           vibrations may cause significant error
 Vibrational temperatures:     59.57    84.45    89.95   118.10   129.97
          (Kelvin)            148.58   193.57   200.20   217.44   247.12
                              256.31   327.15   370.31   381.50   390.94
                              436.67   463.02   492.91   525.47   534.69
                              554.14   611.39   617.50   681.39   710.04
                              773.89   818.86   863.22   905.98   918.42
                              928.31   944.78  1031.43  1048.22  1053.48
                             1079.93  1118.31  1146.44  1158.63  1260.68
                             1267.51  1282.06  1330.97  1382.89  1390.43
                             1446.23  1458.67  1467.44  1476.00  1477.45
                             1481.08  1482.26  1487.25  1533.59  1535.39
                             1541.34  1561.35  1567.44  1610.73  1621.00
                             1625.05  1702.85  1704.17  1709.54  1734.60
                             1747.68  1754.22  1799.44  1838.27  1897.14
                             1907.54  1955.80  1961.54  1974.85  2002.77
                             2026.31  2059.21  2073.53  2139.55  2142.30
                             2143.96  2147.03  2167.92  2171.78  2217.86
                             2222.13  2278.02  2334.23  2370.39  2376.17
                             2381.31  2406.37  2412.92  4314.88  4384.26
                             4413.50  4509.55  4518.85  4560.83  4593.02
                             4596.59  4601.92  4606.85  4615.64  4619.63
                             4631.50  4634.78  4642.97  4664.69  4796.37
                             5155.05  5205.81  5377.22

 Zero-point correction=                           0.339046 (Hartree/Particle)
 Thermal correction to Energy=                    0.357700
 Thermal correction to Enthalpy=                  0.358644
 Thermal correction to Gibbs Free Energy=         0.292768
 Sum of electronic and zero-point Energies=           -844.244963
 Sum of electronic and thermal Energies=              -844.226309
 Sum of electronic and thermal Enthalpies=            -844.225365
 Sum of electronic and thermal Free Energies=         -844.291241

                     E (Thermal)             CV                S
                      KCal/Mol        Cal/Mol-Kelvin    Cal/Mol-Kelvin
 Total                  224.460             72.722            138.648
 Electronic               0.000              0.000              0.000
 Translational            0.889              2.981             42.658
 Rotational               0.889              2.981             33.507
 Vibrational            222.683             66.761             62.483
 Vibration     1          0.594              1.981              5.191
 Vibration     2          0.596              1.974              4.501
 Vibration     3          0.597              1.972              4.376
 Vibration     4          0.600              1.961              3.840
 Vibration     5          0.602              1.956              3.653
 Vibration     6          0.605              1.947              3.392
 Vibration     7          0.613              1.919              2.880
 Vibration     8          0.615              1.914              2.816
 Vibration     9          0.619              1.901              2.658
 Vibration    10          0.626              1.877              2.416
 Vibration    11          0.629              1.869              2.348
 Vibration    12          0.651              1.799              1.900
 Vibration    13          0.667              1.750              1.679
 Vibration    14          0.671              1.737              1.628
 Vibration    15          0.675              1.725              1.585
 Vibration    16          0.695              1.667              1.398
 Vibration    17          0.707              1.632              1.301
 Vibration    18          0.722              1.590              1.200
 Vibration    19          0.738              1.544              1.100
 Vibration    20          0.743              1.530              1.073
 Vibration    21          0.754              1.502              1.019
 Vibration    22          0.787              1.416              0.875
 Vibration    23          0.791              1.407              0.861
 Vibration    24          0.830              1.309              0.728
 Vibration    25          0.849              1.264              0.675
 Vibration    26          0.893              1.166              0.570
 Vibration    27          0.925              1.098              0.506
 Vibration    28          0.958              1.032              0.450

 Optimization completed.
    -- Stationary point found.
 Normal termination of Gaussian 16 at Tue Mar 30 14:47:44 2021.
