 Gaussian 16, Revision A.03,
 Gaussian 16:  ES64L-G16RevA.03 25-Dec-2016

 ----------------------------------------------------------------------
 # wB97XD def2tzvp, opt=(ts, noeigen, calcfc, maxcycles=70, maxstep=5),
  freq=noraman, scrf=(iefpcm, solvent=water)
 ----------------------------------------------------------------------

 ------------------------
 2_iteration/TS-173-2.out
 ------------------------
 Symbolic Z-matrix:
 Charge =  0 Multiplicity = 1

 SCF Done:  E(RwB97XD) =  -1073.13753766     A.U. after   15 cycles
 SCF Done:  E(RwB97XD) =  -1073.13753767     A.U. after    6 cycles
 Optimization completed.
    -- Stationary point found.
 Normal termination of Gaussian 16 at Sun Feb  7 11:42:03 2021.

 ---------------------------------------------------------------------
 #N Geom=AllCheck Guess=TCheck SCRF=Check GenChk RwB97XD/def2TZVP Freq
 ---------------------------------------------------------------------

 Structure from the checkpoint file:  "/beegfs/scratch/user/q/tla25/Gau-66401.chk"
 ------------------------
 2_iteration/TS-173-2.out
 ------------------------
 Charge =  0 Multiplicity = 1

                         Standard orientation:
 ---------------------------------------------------------------------
 Center     Atomic      Atomic             Coordinates (Angstroms)
 Number     Number       Type             X           Y           Z
 ---------------------------------------------------------------------
      1          6           0        0.855025   -0.613547   -0.774909
      2          6           0        2.291354   -0.733722   -0.721979
      3          8           0        2.878298   -1.698513   -1.233900
      4          6           0        0.018078    0.266255   -0.103932
      5          6           0        0.142610   -1.202396    2.239583
      6          1           0        0.613699   -1.303698    3.215787
      7          1           0       -0.909937   -1.462265    2.313937
      8          1           0        0.633793   -1.870182    1.529461
      9          7           0        0.276331    0.160225    1.737674
     10          1           0       -0.355120    0.809091    2.194506
     11          1           0        1.224909    0.496744    1.865624
     12          6           0       -1.467018    0.056890   -0.220918
     13          6           0       -1.961951   -1.249356   -0.266938
     14          6           0       -3.321995   -1.492191   -0.353581
     15          6           0       -4.221339   -0.436766   -0.388871
     16          6           0       -3.743718    0.861893   -0.331596
     17          6           0       -2.381046    1.106684   -0.244126
     18          1           0       -1.282163   -2.088289   -0.224606
     19          1           0       -3.678286   -2.513697   -0.388758
     20          1           0       -5.284815   -0.626620   -0.456571
     21          1           0       -4.431994    1.696977   -0.355788
     22          1           0       -2.035064    2.128640   -0.201386
     23         17           0        0.464886    2.066493   -0.169801
     24          1           0        0.376075   -1.427565   -1.296260
     25          7           0        3.015718    0.209940   -0.034541
     26          6           0        4.461544    0.171890   -0.047715
     27          1           0        2.599231    1.122088    0.048157
     28          1           0        4.817465   -0.780481    0.342623
     29          1           0        4.874579    0.301749   -1.052452
     30          1           0        4.834576    0.970287    0.591509
 ---------------------------------------------------------------------

 SCF Done:  E(RwB97XD) =  -1073.13753767     A.U. after    1 cycles

 The electronic state is 1-A.
 Alpha  occ. eigenvalues -- -101.69385 -19.19405 -14.50165 -14.44033 -10.40835
 Alpha  occ. eigenvalues --  -10.37080 -10.32059 -10.31667 -10.30293 -10.29869
 Alpha  occ. eigenvalues --  -10.29717 -10.29583 -10.29521 -10.29486 -10.25051
 Alpha  occ. eigenvalues --   -9.58021  -7.32593  -7.31831  -7.31804  -1.11980
 Alpha  occ. eigenvalues --   -1.05851  -1.00655  -0.98378  -0.95215  -0.88197
 Alpha  occ. eigenvalues --   -0.85833  -0.84328  -0.79730  -0.79024  -0.73322
 Alpha  occ. eigenvalues --   -0.71068  -0.67743  -0.65779  -0.64545  -0.61704
 Alpha  occ. eigenvalues --   -0.59492  -0.58433  -0.56168  -0.55932  -0.55339
 Alpha  occ. eigenvalues --   -0.53331  -0.52551  -0.52188  -0.51392  -0.49332
 Alpha  occ. eigenvalues --   -0.48729  -0.48423  -0.47041  -0.46416  -0.45745
 Alpha  occ. eigenvalues --   -0.45356  -0.44009  -0.43101  -0.39939  -0.39540
 Alpha  occ. eigenvalues --   -0.34564  -0.34358  -0.33898  -0.32834  -0.27545
 Alpha virt. eigenvalues --    0.02045   0.04641   0.06620   0.08978   0.10262
 Alpha virt. eigenvalues --    0.12982   0.13137   0.14114   0.15434   0.16260
 Alpha virt. eigenvalues --    0.16747   0.17163   0.17798   0.18700   0.18987

 Mulliken charges:
               1
     1  C   -0.433690
     2  C    0.326193
     3  O   -0.560261
     4  C    0.228034
     5  C   -0.309209
     6  H    0.167926
     7  H    0.167212
     8  H    0.160672
     9  N   -0.263844
    10  H    0.294404
    11  H    0.278757
    12  C    0.138223
    13  C   -0.306928
    14  C   -0.127470
    15  C   -0.150874
    16  C   -0.121578
    17  C   -0.248419
    18  H    0.175073
    19  H    0.146781
    20  H    0.147387
    21  H    0.146724
    22  H    0.147786
    23  Cl  -0.173531
    24  H    0.136527
    25  N   -0.327173
    26  C   -0.263668
    27  H    0.238337
    28  H    0.129366
    29  H    0.120282
    30  H    0.136961
 Sum of Mulliken charges =  -0.00000

 Dipole moment (field-independent basis, Debye):
    X=             -5.2117    Y=              3.3194    Z=              8.6018  Tot=             10.5911
 Quadrupole moment (field-independent basis, Debye-Ang):
   XX=            -94.0124   YY=            -98.9778   ZZ=            -94.1658
   XY=             15.1201   XZ=             11.2298   YZ=             -4.7919

  Exact polarizability: 286.813  -8.802 233.283  -9.186  10.148 176.545
 Approx polarizability: 209.896  -6.800 202.322  -4.673  10.378 151.261

 ******    1 imaginary frequencies (negative Signs) ******

                      1                      2                      3
                      A                      A                      A
 Frequencies --   -397.4416                34.9906                58.7637
 Red. masses --      5.0706                 4.2818                 3.5674
 Frc consts  --      0.4719                 0.0031                 0.0073
 IR Inten    --    466.4702                 1.0123                 1.7456

                      4                      5                      6
                      A                      A                      A
 Frequencies --     81.3746                94.9130               100.0393
 Red. masses --      3.9738                 3.1364                 3.9180
 Frc consts  --      0.0155                 0.0166                 0.0231
 IR Inten    --      7.5051                 2.7774                11.6369

                      7                      8                      9
                      A                      A                      A
 Frequencies --    134.5407               146.9828               173.5352
 Red. masses --      2.6065                 1.1577                 2.7751
 Frc consts  --      0.0278                 0.0147                 0.0492
 IR Inten    --      8.8223                 5.1201                14.0927

                     10                     11                     12
                      A                      A                      A
 Frequencies --    197.5741               213.2367               242.6747
 Red. masses --      3.8405                 4.3180                 1.4516
 Frc consts  --      0.0883                 0.1157                 0.0504
 IR Inten    --      1.2203                20.3141                 0.9181

                     13                     14                     15
                      A                      A                      A
 Frequencies --    251.6252               295.0491               304.9274
 Red. masses --      5.1150                 4.0938                 4.2874
 Frc consts  --      0.1908                 0.2100                 0.2349
 IR Inten    --      5.2672                 6.2317                14.0162

                     16                     17                     18
                      A                      A                      A
 Frequencies --    328.4849               336.3601               368.4516
 Red. masses --      3.6659                 6.1377                 7.1898
 Frc consts  --      0.2331                 0.4091                 0.5751
 IR Inten    --     29.6479                40.9011                29.0074

                     19                     20                     21
                      A                      A                      A
 Frequencies --    422.8031               468.4435               533.6407
 Red. masses --      2.8930                 4.3265                 1.5148
 Frc consts  --      0.3047                 0.5594                 0.2542
 IR Inten    --      0.5375                24.1631                61.8999

                     22                     23                     24
                      A                      A                      A
 Frequencies --    578.4252               596.2243               620.2599
 Red. masses --      2.5780                 1.8728                 3.1076
 Frc consts  --      0.5082                 0.3922                 0.7044
 IR Inten    --    228.6354               124.1937                11.7035

                     25                     26                     27
                      A                      A                      A
 Frequencies --    638.4413               697.3719               718.0431
 Red. masses --      5.5693                 1.8202                 2.7250
 Frc consts  --      1.3375                 0.5215                 0.8278
 IR Inten    --      3.7385                86.8755                19.3604

                     28                     29                     30
                      A                      A                      A
 Frequencies --    722.5514               739.4071               799.7870
 Red. masses --      2.0167                 2.1598                 5.5662
 Frc consts  --      0.6203                 0.6957                 2.0978
 IR Inten    --     90.3698               115.5159               100.0469

                     31                     32                     33
                      A                      A                      A
 Frequencies --    806.2269               874.9717               900.1266
 Red. masses --      2.1933                 1.2510                 3.5635
 Frc consts  --      0.8400                 0.5643                 1.7011
 IR Inten    --     15.9654                 0.0666                54.5707

                     34                     35                     36
                      A                      A                      A
 Frequencies --    917.0241               967.4669              1017.8871
 Red. masses --      3.1358                 1.4470                 1.3887
 Frc consts  --      1.5537                 0.7980                 0.8477
 IR Inten    --     12.8675                 2.2400                 0.0393

                     37                     38                     39
                      A                      A                      A
 Frequencies --   1025.0051              1030.6298              1035.9587
 Red. masses --      5.1320                 1.1383                 1.3190
 Frc consts  --      3.1768                 0.7124                 0.8340
 IR Inten    --      4.4650                28.9792                 0.5055

                     40                     41                     42
                      A                      A                      A
 Frequencies --   1066.2234              1079.8200              1086.1293
 Red. masses --      2.1571                 1.8286                 1.8946
 Frc consts  --      1.4449                 1.2562                 1.3168
 IR Inten    --     17.9540                 8.3218               101.8859

                     43                     44                     45
                      A                      A                      A
 Frequencies --   1117.6911              1140.8186              1155.3243
 Red. masses --      1.5973                 1.9601                 1.6484
 Frc consts  --      1.1756                 1.5030                 1.2963
 IR Inten    --     43.8840                32.3294                26.2623

                     46                     47                     48
                      A                      A                      A
 Frequencies --   1182.0597              1187.7505              1202.9135
 Red. masses --      2.1005                 1.1307                 1.8468
 Frc consts  --      1.7292                 0.9399                 1.5745
 IR Inten    --     56.5631                 0.1559               113.3077

                     49                     50                     51
                      A                      A                      A
 Frequencies --   1220.4100              1243.3621              1277.4665
 Red. masses --      1.4019                 1.4505                 1.6935
 Frc consts  --      1.2302                 1.3212                 1.6283
 IR Inten    --     33.9586                45.8458               154.6991

                     52                     53                     54
                      A                      A                      A
 Frequencies --   1311.1795              1331.2282              1350.1562
 Red. masses --      2.3799                 3.8795                 1.3043
 Frc consts  --      2.4107                 4.0507                 1.4009
 IR Inten    --    405.1897               158.9779                 4.7066

                     55                     56                     57
                      A                      A                      A
 Frequencies --   1359.1669              1453.1505              1457.2769
 Red. masses --      1.4846                 1.2745                 1.1843
 Frc consts  --      1.6158                 1.5856                 1.4819
 IR Inten    --     14.3149                64.1534                36.6135

                     58                     59                     60
                      A                      A                      A
 Frequencies --   1477.6520              1481.6992              1496.9857
 Red. masses --      1.1678                 1.9479                 2.1272
 Frc consts  --      1.5024                 2.5197                 2.8087
 IR Inten    --     98.3121               168.9463               204.5138

                     61                     62                     63
                      A                      A                      A
 Frequencies --   1498.3299              1504.6218              1510.1813
 Red. masses --      1.0763                 1.1314                 1.0744
 Frc consts  --      1.4236                 1.5091                 1.4437
 IR Inten    --     37.3523                75.1567                 6.6074

                     64                     65                     66
                      A                      A                      A
 Frequencies --   1543.9157              1556.7454              1630.3082
 Red. masses --      2.3917                 1.7040                 1.1467
 Frc consts  --      3.3590                 2.4330                 1.7957
 IR Inten    --      9.8794               431.6449               211.3331

                     67                     68                     69
                      A                      A                      A
 Frequencies --   1648.1083              1651.5092              1673.8098
 Red. masses --      5.1922                 5.1815                 5.9416
 Frc consts  --      8.3095                 8.3266                 9.8077
 IR Inten    --    675.2050               319.7094                 3.8066

                     70                     71                     72
                      A                      A                      A
 Frequencies --   3039.1682              3067.7956              3116.6326
 Red. masses --      1.0447                 1.0356                 1.0911
 Frc consts  --      5.6855                 5.7425                 6.2445
 IR Inten    --     99.3048                28.0500                41.5215

                     73                     74                     75
                      A                      A                      A
 Frequencies --   3148.0964              3155.9723              3181.5617
 Red. masses --      1.1020                 1.1043                 1.1055
 Frc consts  --      6.4348                 6.4806                 6.5929
 IR Inten    --      4.5318                24.2908                11.7165

                     76                     77                     78
                      A                      A                      A
 Frequencies --   3200.0411              3209.1865              3220.7947
 Red. masses --      1.0865                 1.0905                 1.0951
 Frc consts  --      6.5552                 6.6171                 6.6929
 IR Inten    --      0.1104                13.5812                23.4031

                     79                     80                     81
                      A                      A                      A
 Frequencies --   3230.9700              3237.9279              3242.8784
 Red. masses --      1.0942                 1.0933                 1.0874
 Frc consts  --      6.7297                 6.7537                 6.7378
 IR Inten    --      5.8881                 4.2175                 2.1121

                     82                     83                     84
                      A                      A                      A
 Frequencies --   3517.8554              3601.4620              3634.5615
 Red. masses --      1.0507                 1.0966                 1.0767
 Frc consts  --      7.6614                 8.3801                 8.3802
 IR Inten    --     40.9931                79.7163                88.8152

 - Thermochemistry -
 -------------------
 Temperature   298.150 Kelvin.  Pressure   1.00000 Atm.
 Atom     1 has atomic number  6 and mass  12.00000

 Molecular mass:   226.08729 amu.
 Principal axes and moments of inertia in atomic units:
                           1         2         3
     Eigenvalues --  1811.817225573.085896112.51817
           X            0.99996   0.00665   0.00606
           Y           -0.00645   0.99945  -0.03265
           Z           -0.00628   0.03261   0.99945
 This molecule is an asymmetric top.
 Rotational symmetry number  1.
 Warning -- assumption of classical behavior for rotation
           may cause significant error
 Rotational temperatures (Kelvin)      0.04780     0.01554     0.01417
 Rotational constants (GHZ):           0.99609     0.32383     0.29525
    1 imaginary frequencies ignored.
 Zero-point vibrational energy     653012.2 (Joules/Mol)
                                  156.07367 (Kcal/Mol)
 Warning -- explicit consideration of  23 degrees of freedom as
           vibrations may cause significant error
 Vibrational temperatures:     50.34    84.55   117.08   136.56   143.93
          (Kelvin)            193.57   211.48   249.68   284.27   306.80
                              349.15   362.03   424.51   438.72   472.62
                              483.95   530.12   608.32   673.99   767.79
                              832.22   857.83   892.42   918.57  1003.36
                             1033.10  1039.59  1063.84  1150.72  1159.98
                             1258.89  1295.08  1319.39  1391.97  1464.51
                             1474.75  1482.85  1490.51  1534.06  1553.62
                             1562.70  1608.11  1641.38  1662.25  1700.72
                             1708.91  1730.72  1755.90  1788.92  1837.99
                             1886.49  1915.34  1942.57  1955.54  2090.76
                             2096.70  2126.01  2131.83  2153.83  2155.76
                             2164.82  2172.81  2221.35  2239.81  2345.65
                             2371.26  2376.15  2408.24  4372.69  4413.87
                             4484.14  4529.41  4540.74  4577.56  4604.15
                             4617.30  4634.01  4648.65  4658.66  4665.78
                             5061.41  5181.70  5229.32

 Zero-point correction=                           0.248719 (Hartree/Particle)
 Thermal correction to Energy=                    0.264051
 Thermal correction to Enthalpy=                  0.264995
 Thermal correction to Gibbs Free Energy=         0.205695
 Sum of electronic and zero-point Energies=          -1072.888818
 Sum of electronic and thermal Energies=             -1072.873486
 Sum of electronic and thermal Enthalpies=           -1072.872542
 Sum of electronic and thermal Free Energies=        -1072.931843

                     E (Thermal)             CV                S
                      KCal/Mol        Cal/Mol-Kelvin    Cal/Mol-Kelvin
 Total                  165.695             56.812            124.809
 Electronic               0.000              0.000              0.000
 Translational            0.889              2.981             42.150
 Rotational               0.889              2.981             32.490
 Vibrational            163.917             50.851             50.170
 Vibration     1          0.594              1.982              5.524
 Vibration     2          0.596              1.974              4.498
 Vibration     3          0.600              1.962              3.857
 Vibration     4          0.603              1.953              3.556
 Vibration     5          0.604              1.949              3.454
 Vibration     6          0.613              1.919              2.880
 Vibration     7          0.617              1.906              2.711
 Vibration     8          0.627              1.875              2.397
 Vibration     9          0.637              1.843              2.156
 Vibration    10          0.644              1.821              2.016
 Vibration    11          0.659              1.775              1.783
 Vibration    12          0.664              1.760              1.719
 Vibration    13          0.689              1.683              1.445
 Vibration    14          0.696              1.664              1.390
 Vibration    15          0.712              1.619              1.268
 Vibration    16          0.717              1.603              1.229
 Vibration    17          0.741              1.537              1.086
 Vibration    18          0.785              1.421              0.882
 Vibration    19          0.826              1.320              0.742
 Vibration    20          0.889              1.176              0.579
 Vibration    21          0.935              1.078              0.488
 Vibration    22          0.954              1.040              0.456
 Vibration    23          0.980              0.989              0.416

 Optimization completed.
    -- Stationary point found.
 Normal termination of Gaussian 16 at Sun Feb  7 12:39:50 2021.
