 Gaussian 16, Revision A.03,
 Gaussian 16:  ES64L-G16RevA.03 25-Dec-2016

 ----------------------------------------------------------------------
 # wB97XD def2tzvp, opt=(ts, noeigen, calcfc, maxcycles=70, maxstep=8),
  freq=noraman, scrf=(iefpcm, solvent=water)
 ----------------------------------------------------------------------

 ------------------------
 1_iteration/TS-196-1.out
 ------------------------
 Symbolic Z-matrix:
 Charge =  0 Multiplicity = 1

 SCF Done:  E(RwB97XD) =  -1552.60694728     A.U. after   15 cycles
 SCF Done:  E(RwB97XD) =  -1552.60695744     A.U. after   12 cycles
 SCF Done:  E(RwB97XD) =  -1552.60696282     A.U. after   10 cycles
 SCF Done:  E(RwB97XD) =  -1552.60696333     A.U. after    8 cycles
 Optimization completed.
    -- Stationary point found.
 Normal termination of Gaussian 16 at Sun Feb  7 07:01:48 2021.

 ---------------------------------------------------------------------
 #N Geom=AllCheck Guess=TCheck SCRF=Check GenChk RwB97XD/def2TZVP Freq
 ---------------------------------------------------------------------

 Structure from the checkpoint file:  "/beegfs/scratch/user/q/tla25/Gau-116245.chk"
 ------------------------
 1_iteration/TS-196-1.out
 ------------------------
 Charge =  0 Multiplicity = 1

                         Standard orientation:
 ---------------------------------------------------------------------
 Center     Atomic      Atomic             Coordinates (Angstroms)
 Number     Number       Type             X           Y           Z
 ---------------------------------------------------------------------
      1          6           0        0.882027   -0.398381   -0.281338
      2          6           0        2.273291   -0.042806   -0.187012
      3          8           0        2.672179    1.059111    0.164276
      4          6           0       -0.130213    0.550381   -0.157979
      5          6           0        0.466310    0.567106    2.690163
      6          1           0       -0.421847    0.278696    3.245538
      7          1           0        0.945148   -0.327729    2.281278
      8          1           0        1.167926    1.053190    3.367274
      9          7           0        0.111822    1.443492    1.584090
     10          1           0       -0.694876    2.025836    1.771368
     11          1           0        0.898868    2.026472    1.324040
     12          6           0       -1.569739    0.133039   -0.133017
     13          6           0       -2.034487   -0.672163    0.905945
     14          6           0       -3.354895   -1.081852    0.946791
     15          6           0       -4.233483   -0.707094   -0.060571
     16          6           0       -3.776990    0.078729   -1.105406
     17          6           0       -2.455691    0.501345   -1.139429
     18          1           0       -1.358667   -0.998234    1.682498
     19          1           0       -3.696620   -1.700508    1.766448
     20          1           0       -5.266458   -1.029142   -0.030475
     21          1           0       -4.449540    0.372262   -1.901018
     22          1           0       -2.117650    1.117971   -1.959501
     23         17           0        0.100570    2.090755   -1.070486
     24         17           0        0.479208   -2.095628   -0.456894
     25          8           0        3.120558   -1.039131   -0.486247
     26          6           0        4.506975   -0.748942   -0.339959
     27          1           0        4.808265    0.055509   -1.010665
     28          1           0        4.737749   -0.465746    0.686968
     29          1           0        5.028205   -1.666186   -0.600269
 ---------------------------------------------------------------------

 SCF Done:  E(RwB97XD) =  -1552.60696333     A.U. after    1 cycles

 The electronic state is 1-A.
 Alpha  occ. eigenvalues -- -101.69772-101.69186 -19.29152 -19.22564 -14.48481
 Alpha  occ. eigenvalues --  -10.41429 -10.41120 -10.33040 -10.32298 -10.31826
 Alpha  occ. eigenvalues --  -10.31771 -10.29994 -10.29913 -10.29678 -10.29574
 Alpha  occ. eigenvalues --  -10.29534  -9.58379  -9.57705  -7.33021  -7.32371
 Alpha  occ. eigenvalues --   -7.32164  -7.32121  -7.31473  -7.31464  -1.20834
 Alpha  occ. eigenvalues --   -1.11237  -1.04438  -0.99632  -0.96602  -0.94888
 Alpha  occ. eigenvalues --   -0.87388  -0.85893  -0.84427  -0.81404  -0.79083
 Alpha  occ. eigenvalues --   -0.74126  -0.71326  -0.68612  -0.65168  -0.63101
 Alpha  occ. eigenvalues --   -0.61407  -0.59491  -0.58280  -0.57590  -0.56865
 Alpha  occ. eigenvalues --   -0.55947  -0.55589  -0.53800  -0.52858  -0.51765
 Alpha  occ. eigenvalues --   -0.50957  -0.49459  -0.48767  -0.48122  -0.47725
 Alpha  occ. eigenvalues --   -0.45734  -0.44467  -0.43784  -0.43553  -0.42393
 Alpha  occ. eigenvalues --   -0.40926  -0.40779  -0.38917  -0.38370  -0.35773
 Alpha  occ. eigenvalues --   -0.34373  -0.33847  -0.28244
 Alpha virt. eigenvalues --    0.00567   0.04711   0.06393   0.06940   0.11027
 Alpha virt. eigenvalues --    0.12283   0.13355   0.14036   0.14678   0.15480
 Alpha virt. eigenvalues --    0.15869   0.16911   0.17242   0.18088   0.18637

 Mulliken charges:
               1
     1  C   -0.287031
     2  C    0.433558
     3  O   -0.500738
     4  C    0.331389
     5  C   -0.324533
     6  H    0.168294
     7  H    0.155695
     8  H    0.163796
     9  N   -0.337643
    10  H    0.289687
    11  H    0.283590
    12  C    0.108804
    13  C   -0.245259
    14  C   -0.139457
    15  C   -0.143657
    16  C   -0.132612
    17  C   -0.257925
    18  H    0.181170
    19  H    0.146628
    20  H    0.147950
    21  H    0.147071
    22  H    0.146625
    23  Cl  -0.116231
    24  Cl  -0.135034
    25  O   -0.295670
    26  C   -0.193893
    27  H    0.131608
    28  H    0.131167
    29  H    0.142650
 Sum of Mulliken charges =  -0.00000

 Dipole moment (field-independent basis, Debye):
    X=             -3.1452    Y=              1.7081    Z=              5.1527  Tot=              6.2738
 Quadrupole moment (field-independent basis, Debye-Ang):
   XX=            -93.1124   YY=           -111.1362   ZZ=            -95.8612
   XY=             -2.9764   XZ=              0.9315   YZ=              1.4433

  Exact polarizability: 284.310   4.434 220.173   1.120 -10.881 214.250
 Approx polarizability: 213.060   6.672 192.700   2.759 -10.638 184.410

 ******    1 imaginary frequencies (negative Signs) ******

                      1                      2                      3
                      A                      A                      A
 Frequencies --   -335.3710                23.2457                50.7842
 Red. masses --      6.1271                 3.8937                 4.3576
 Frc consts  --      0.4060                 0.0012                 0.0066
 IR Inten    --    520.0504                 0.2310                 1.7942

                      4                      5                      6
                      A                      A                      A
 Frequencies --     73.8163                83.4534               101.6108
 Red. masses --      4.4285                 5.5349                 3.0161
 Frc consts  --      0.0142                 0.0227                 0.0183
 IR Inten    --      1.6385                 3.6284                 3.1112

                      7                      8                      9
                      A                      A                      A
 Frequencies --    122.0447               141.3006               159.4684
 Red. masses --      2.2443                 3.1697                 2.6685
 Frc consts  --      0.0197                 0.0373                 0.0400
 IR Inten    --      2.9275                20.1212                 2.5735

                     10                     11                     12
                      A                      A                      A
 Frequencies --    168.2476               177.6793               199.8728
 Red. masses --      1.7242                 5.2936                 3.7640
 Frc consts  --      0.0288                 0.0985                 0.0886
 IR Inten    --      0.6146                13.1867                 1.8501

                     13                     14                     15
                      A                      A                      A
 Frequencies --    230.8624               235.7450               269.1707
 Red. masses --      3.5883                 1.8607                 7.3917
 Frc consts  --      0.1127                 0.0609                 0.3155
 IR Inten    --      0.4896                 3.2269                 0.3055

                     16                     17                     18
                      A                      A                      A
 Frequencies --    272.2601               309.6361               339.4730
 Red. masses --      5.2818                 3.0764                 6.1930
 Frc consts  --      0.2307                 0.1738                 0.4205
 IR Inten    --      3.6824                16.7853                 3.2993

                     19                     20                     21
                      A                      A                      A
 Frequencies --    343.4965               373.9016               424.1766
 Red. masses --      4.7137                11.4211                 2.9103
 Frc consts  --      0.3277                 0.9407                 0.3085
 IR Inten    --     65.3410                22.1545                 1.4842

                     22                     23                     24
                      A                      A                      A
 Frequencies --    453.9756               486.2266               573.3367
 Red. masses --     10.1096                 5.3514                 2.9093
 Frc consts  --      1.2276                 0.7454                 0.5635
 IR Inten    --     10.2841                35.4111                89.7933

                     25                     26                     27
                      A                      A                      A
 Frequencies --    605.3087               638.0464               662.7439
 Red. masses --      3.1323                 6.2116                 2.3857
 Frc consts  --      0.6762                 1.4899                 0.6174
 IR Inten    --     97.4038                 8.8974                69.3363

                     28                     29                     30
                      A                      A                      A
 Frequencies --    725.2130               746.1431               783.0465
 Red. masses --      1.7184                 4.0865                 6.1667
 Frc consts  --      0.5325                 1.3404                 2.2278
 IR Inten    --     71.0478                76.7189               146.1507

                     31                     32                     33
                      A                      A                      A
 Frequencies --    794.2806               812.7379               878.2991
 Red. masses --      5.2821                 3.2180                 1.2455
 Frc consts  --      1.9634                 1.2524                 0.5661
 IR Inten    --     80.5852                72.1919                 0.5469

                     34                     35                     36
                      A                      A                      A
 Frequencies --    885.0876               969.8489              1007.5718
 Red. masses --      5.6330                 1.4156                 1.2146
 Frc consts  --      2.5999                 0.7845                 0.7265
 IR Inten    --     18.9471                 0.8914                35.1252

                     37                     38                     39
                      A                      A                      A
 Frequencies --   1018.2957              1023.2452              1028.7706
 Red. masses --      1.4636                 3.5348                 4.7145
 Frc consts  --      0.8942                 2.1806                 2.9398
 IR Inten    --      2.6750                34.5550                 3.4480

                     40                     41                     42
                      A                      A                      A
 Frequencies --   1037.0044              1061.2400              1068.2751
 Red. masses --      1.3421                 1.8218                 1.9509
 Frc consts  --      0.8504                 1.2089                 1.3117
 IR Inten    --      0.3977                86.9869                29.4677

                     43                     44                     45
                      A                      A                      A
 Frequencies --   1094.4550              1111.3188              1124.9455
 Red. masses --      2.1885                 4.4970                 1.7338
 Frc consts  --      1.5445                 3.2723                 1.2927
 IR Inten    --      6.4106               184.8176                24.7374

                     46                     47                     48
                      A                      A                      A
 Frequencies --   1182.8358              1187.1387              1194.4548
 Red. masses --      1.2822                 1.1282                 1.4307
 Frc consts  --      1.0569                 0.9368                 1.2026
 IR Inten    --      1.6023                 0.5878                34.8175

                     49                     50                     51
                      A                      A                      A
 Frequencies --   1213.5239              1216.9375              1226.1919
 Red. masses --      1.7966                 1.2805                 2.3492
 Frc consts  --      1.5588                 1.1173                 2.0811
 IR Inten    --     48.0831                91.3593                24.7874

                     52                     53                     54
                      A                      A                      A
 Frequencies --   1314.3888              1326.0024              1341.1778
 Red. masses --      6.0449                 4.9003                 1.3071
 Frc consts  --      6.1530                 5.0765                 1.3853
 IR Inten    --    943.0815               253.8069                26.7790

                     55                     56                     57
                      A                      A                      A
 Frequencies --   1362.1660              1424.4707              1456.5384
 Red. masses --      1.4539                 3.8332                 1.3380
 Frc consts  --      1.5894                 4.5826                 1.6725
 IR Inten    --      7.4913               621.3518                70.7072

                     58                     59                     60
                      A                      A                      A
 Frequencies --   1480.7219              1482.4096              1492.7821
 Red. masses --      1.2062                 1.0459                 2.2451
 Frc consts  --      1.5582                 1.3541                 2.9477
 IR Inten    --    101.5630                13.9599                32.6030

                     61                     62                     63
                      A                      A                      A
 Frequencies --   1495.5117              1498.8579              1503.5405
 Red. masses --      1.0839                 1.0462                 1.0381
 Frc consts  --      1.4283                 1.3848                 1.3826
 IR Inten    --     12.6518                12.9994                18.8114

                     64                     65                     66
                      A                      A                      A
 Frequencies --   1545.7627              1616.9454              1653.2270
 Red. masses --      2.3222                 1.1400                 5.7882
 Frc consts  --      3.2692                 1.7561                 9.3209
 IR Inten    --      1.5007               139.7993                 1.3432

                     67                     68                     69
                      A                      A                      A
 Frequencies --   1675.1746              1696.2168              3046.3141
 Red. masses --      5.8970                 7.9958                 1.0421
 Frc consts  --      9.7499                13.5542                 5.6980
 IR Inten    --      0.8223               402.3624                27.1066

                     70                     71                     72
                      A                      A                      A
 Frequencies --   3066.7215              3124.5833              3144.3140
 Red. masses --      1.0307                 1.0954                 1.1069
 Frc consts  --      5.7111                 6.3011                 6.4476
 IR Inten    --     55.3339                15.8098                33.4461

                     73                     74                     75
                      A                      A                      A
 Frequencies --   3177.0554              3177.8114              3201.5993
 Red. masses --      1.1038                 1.1057                 1.0866
 Frc consts  --      6.5645                 6.5788                 6.5623
 IR Inten    --     14.2951                22.8212                 0.1002

                     76                     77                     78
                      A                      A                      A
 Frequencies --   3211.6206              3222.8075              3239.0562
 Red. masses --      1.0908                 1.0960                 1.0934
 Frc consts  --      6.6292                 6.7069                 6.7586
 IR Inten    --     13.7868                22.2115                 5.4763

                     79                     80                     81
                      A                      A                      A
 Frequencies --   3247.6857              3524.9456              3618.6957
 Red. masses --      1.0926                 1.0509                 1.0974
 Frc consts  --      6.7901                 7.6937                 8.4670
 IR Inten    --      3.8921                50.3400                88.4361

 - Thermochemistry -
 -------------------
 Temperature   298.150 Kelvin.  Pressure   1.00000 Atm.
 Atom     1 has atomic number  6 and mass  12.00000

 Molecular mass:   261.03233 amu.
 Principal axes and moments of inertia in atomic units:
                           1         2         3
     Eigenvalues --  2533.591796025.233486597.31022
           X            0.99999   0.00060   0.00374
           Y           -0.00070   0.99964   0.02684
           Z           -0.00373  -0.02684   0.99963
 This molecule is an asymmetric top.
 Rotational symmetry number  1.
 Warning -- assumption of classical behavior for rotation
           may cause significant error
 Rotational temperatures (Kelvin)      0.03419     0.01438     0.01313
 Rotational constants (GHZ):           0.71233     0.29953     0.27356
    1 imaginary frequencies ignored.
 Zero-point vibrational energy     593825.4 (Joules/Mol)
                                  141.92767 (Kcal/Mol)
 Warning -- explicit consideration of  24 degrees of freedom as
           vibrations may cause significant error
 Vibrational temperatures:     33.45    73.07   106.21   120.07   146.20
          (Kelvin)            175.60   203.30   229.44   242.07   255.64
                              287.57   332.16   339.18   387.28   391.72
                              445.50   488.43   494.21   537.96   610.30
                              653.17   699.57   824.90   870.90   918.01
                              953.54  1043.42  1073.53  1126.63  1142.79
                             1169.35  1263.68  1273.44  1395.40  1449.67
                             1465.10  1472.22  1480.17  1492.02  1526.89
                             1537.01  1574.68  1598.94  1618.55  1701.84
                             1708.03  1718.55  1745.99  1750.90  1764.22
                             1891.11  1907.82  1929.66  1959.85  2049.50
                             2095.63  2130.43  2132.86  2147.78  2151.71
                             2156.52  2163.26  2224.01  2326.42  2378.62
                             2410.20  2440.48  4382.97  4412.33  4495.58
                             4523.97  4571.07  4572.16  4606.39  4620.81
                             4636.90  4660.28  4672.70  5071.61  5206.50

 Zero-point correction=                           0.226176 (Hartree/Particle)
 Thermal correction to Energy=                    0.242659
 Thermal correction to Enthalpy=                  0.243603
 Thermal correction to Gibbs Free Energy=         0.180948
 Sum of electronic and zero-point Energies=          -1552.380787
 Sum of electronic and thermal Energies=             -1552.364304
 Sum of electronic and thermal Enthalpies=           -1552.363360
 Sum of electronic and thermal Free Energies=        -1552.426016

                     E (Thermal)             CV                S
                      KCal/Mol        Cal/Mol-Kelvin    Cal/Mol-Kelvin
 Total                  152.271             59.323            131.870
 Electronic               0.000              0.000              0.000
 Translational            0.889              2.981             42.578
 Rotational               0.889              2.981             32.976
 Vibrational            150.493             53.361             56.316
 Vibration     1          0.593              1.985              6.336
 Vibration     2          0.595              1.977              4.787
 Vibration     3          0.599              1.966              4.049
 Vibration     4          0.600              1.961              3.808
 Vibration     5          0.604              1.948              3.423
 Vibration     6          0.610              1.931              3.068
 Vibration     7          0.615              1.912              2.786
 Vibration     8          0.621              1.892              2.556
 Vibration     9          0.625              1.882              2.455
 Vibration    10          0.628              1.870              2.353
 Vibration    11          0.638              1.840              2.134
 Vibration    12          0.653              1.794              1.872
 Vibration    13          0.655              1.786              1.835
 Vibration    14          0.674              1.730              1.602
 Vibration    15          0.675              1.724              1.582
 Vibration    16          0.699              1.655              1.364
 Vibration    17          0.719              1.597              1.215
 Vibration    18          0.722              1.588              1.196
 Vibration    19          0.745              1.526              1.064
 Vibration    20          0.786              1.418              0.878
 Vibration    21          0.812              1.352              0.784
 Vibration    22          0.842              1.281              0.693
 Vibration    23          0.930              1.089              0.498
 Vibration    24          0.964              1.021              0.441

 Optimization completed.
    -- Stationary point found.
 Normal termination of Gaussian 16 at Sun Feb  7 08:06:20 2021.
