 Gaussian 16, Revision A.03,
 Gaussian 16:  ES64L-G16RevA.03 25-Dec-2016

 ----------------------------------------------------------------------
 # wB97XD def2tzvp, opt=(ts, noeigen, calcfc, maxcycles=70, maxstep=8),
  freq=noraman, scrf=(iefpcm, solvent=water)
 ----------------------------------------------------------------------

 ------------------------
 1_iteration/TS-134-1.out
 ------------------------
 Symbolic Z-matrix:
 Charge =  0 Multiplicity = 1

 SCF Done:  E(RwB97XD) =  -3226.44285949     A.U. after   15 cycles
 SCF Done:  E(RwB97XD) =  -3226.44608944     A.U. after   14 cycles
 SCF Done:  E(RwB97XD) =  -3226.44819560     A.U. after   13 cycles
 SCF Done:  E(RwB97XD) =  -3226.44949735     A.U. after   12 cycles
 SCF Done:  E(RwB97XD) =  -3226.45001352     A.U. after   12 cycles
 SCF Done:  E(RwB97XD) =  -3226.45026979     A.U. after   13 cycles
 SCF Done:  E(RwB97XD) =  -3226.45015904     A.U. after   12 cycles
 SCF Done:  E(RwB97XD) =  -3226.45034062     A.U. after   12 cycles
 SCF Done:  E(RwB97XD) =  -3226.45020646     A.U. after   12 cycles
 SCF Done:  E(RwB97XD) =  -3226.45035004     A.U. after   12 cycles
 SCF Done:  E(RwB97XD) =  -3226.45023292     A.U. after   11 cycles
 SCF Done:  E(RwB97XD) =  -3226.45034393     A.U. after   11 cycles
 SCF Done:  E(RwB97XD) =  -3226.45035895     A.U. after   10 cycles
 SCF Done:  E(RwB97XD) =  -3226.45035914     A.U. after    9 cycles
 SCF Done:  E(RwB97XD) =  -3226.45035960     A.U. after    8 cycles
 SCF Done:  E(RwB97XD) =  -3226.45035947     A.U. after    8 cycles
 SCF Done:  E(RwB97XD) =  -3226.45035967     A.U. after    8 cycles
 SCF Done:  E(RwB97XD) =  -3226.45035966     A.U. after    6 cycles
 Optimization completed.
    -- Stationary point found.
 Normal termination of Gaussian 16 at Sun Feb  7 07:10:19 2021.

 ---------------------------------------------------------------------
 #N Geom=AllCheck Guess=TCheck SCRF=Check GenChk RwB97XD/def2TZVP Freq
 ---------------------------------------------------------------------

 Structure from the checkpoint file:  "/beegfs/scratch/user/q/tla25/Gau-112989.chk"
 ------------------------
 1_iteration/TS-134-1.out
 ------------------------
 Charge =  0 Multiplicity = 1

                         Standard orientation:
 ---------------------------------------------------------------------
 Center     Atomic      Atomic             Coordinates (Angstroms)
 Number     Number       Type             X           Y           Z
 ---------------------------------------------------------------------
      1          6           0        0.840123   -0.613092   -0.299009
      2          6           0        2.199969   -0.266652    0.052206
      3          8           0        2.461001    0.628910    0.880042
      4          6           0       -0.245413    0.181635   -0.002998
      5          6           0       -0.265667   -0.658233    2.727679
      6          1           0        0.145217   -0.509302    3.727201
      7          1           0       -1.296149   -0.997857    2.808528
      8          1           0        0.325309   -1.425444    2.220248
      9          7           0       -0.202697    0.552616    1.932779
     10          1           0       -0.886175    1.249856    2.197426
     11          1           0        0.738612    0.944048    1.925434
     12          6           0       -1.628495   -0.359376   -0.183139
     13          6           0       -2.721113    0.425180   -0.543645
     14          6           0       -3.985467   -0.129414   -0.676246
     15          6           0       -4.187499   -1.480002   -0.444469
     16          6           0       -3.111010   -2.272071   -0.072815
     17          6           0       -1.849260   -1.718831    0.060797
     18          1           0       -2.589312    1.480593   -0.730638
     19          1           0       -4.815058    0.503630   -0.964192
     20          1           0       -5.174623   -1.911971   -0.547993
     21          1           0       -3.252173   -3.327699    0.121007
     22          1           0       -1.030283   -2.352424    0.370025
     23         35           0       -0.071381    2.113754   -0.475664
     24          1           0        0.630712   -1.604318   -0.667220
     25          7           0        3.205603   -0.988623   -0.520309
     26          6           0        2.976410   -1.987730   -1.541352
     27          6           0        4.557265   -0.895718   -0.014934
     28          1           0        2.191319   -1.670844   -2.225336
     29          1           0        3.893047   -2.113563   -2.117437
     30          1           0        2.705269   -2.960843   -1.117397
     31          1           0        4.584891   -0.188446    0.807861
     32          1           0        4.899507   -1.872836    0.338914
     33          1           0        5.240809   -0.557386   -0.798258
 ---------------------------------------------------------------------

 SCF Done:  E(RwB97XD) =  -3226.45035966     A.U. after    1 cycles

 The electronic state is 1-A.
 Alpha  occ. eigenvalues -- -483.11881 -62.66729 -56.45832 -56.45499 -56.45487
 Alpha  occ. eigenvalues --  -19.19902 -14.46950 -14.45307 -10.39301 -10.37401
 Alpha  occ. eigenvalues --  -10.31425 -10.31107 -10.30734 -10.30165 -10.29691
 Alpha  occ. eigenvalues --  -10.29492 -10.29457 -10.29386 -10.29346 -10.25511
 Alpha  occ. eigenvalues --   -8.80829  -6.62928  -6.61884  -6.61841  -2.73315
 Alpha  occ. eigenvalues --   -2.73031  -2.72996  -2.72152  -2.72151  -1.12502
 Alpha  occ. eigenvalues --   -1.03100  -1.02494  -0.97742  -0.92338  -0.86206
 Alpha  occ. eigenvalues --   -0.85400  -0.84114  -0.81170  -0.78744  -0.77965
 Alpha  occ. eigenvalues --   -0.72849  -0.70795  -0.66852  -0.63574  -0.61642
 Alpha  occ. eigenvalues --   -0.60487  -0.58916  -0.56710  -0.56346  -0.55853
 Alpha  occ. eigenvalues --   -0.54809  -0.54750  -0.52908  -0.52215  -0.51244
 Alpha  occ. eigenvalues --   -0.48810  -0.48451  -0.48003  -0.47483  -0.47388
 Alpha  occ. eigenvalues --   -0.46805  -0.46229  -0.45047  -0.44090  -0.43028
 Alpha  occ. eigenvalues --   -0.42559  -0.36816  -0.36514  -0.34223  -0.33899
 Alpha  occ. eigenvalues --   -0.33415  -0.31696  -0.27468
 Alpha virt. eigenvalues --    0.01393   0.04776   0.05223   0.08672   0.10687
 Alpha virt. eigenvalues --    0.12325   0.13242   0.14405   0.15503   0.16205
 Alpha virt. eigenvalues --    0.16784   0.17153   0.17483   0.17770   0.18437

 Mulliken charges:
               1
     1  C   -0.570732
     2  C    0.365764
     3  O   -0.591581
     4  C    0.325799
     5  C   -0.297520
     6  H    0.155564
     7  H    0.154373
     8  H    0.144152
     9  N   -0.336025
    10  H    0.276755
    11  H    0.277823
    12  C    0.152186
    13  C   -0.253526
    14  C   -0.123548
    15  C   -0.152480
    16  C   -0.127430
    17  C   -0.301515
    18  H    0.146642
    19  H    0.145294
    20  H    0.146399
    21  H    0.145356
    22  H    0.164196
    23  Br  -0.174171
    24  H    0.180079
    25  N   -0.098573
    26  C   -0.311676
    27  C   -0.285160
    28  H    0.151252
    29  H    0.146258
    30  H    0.138400
    31  H    0.143973
    32  H    0.130337
    33  H    0.133332
 Sum of Mulliken charges =  -0.00000

 Dipole moment (field-independent basis, Debye):
    X=             -3.0189    Y=             -4.6855    Z=              2.2818  Tot=              6.0228
 Quadrupole moment (field-independent basis, Debye-Ang):
   XX=            -97.2303   YY=           -103.4330   ZZ=           -102.7559
   XY=             -8.4341   XZ=             -6.9727   YZ=              1.8688

  Exact polarizability: 322.067  -8.322 267.147  -3.370  -1.668 210.907
 Approx polarizability: 234.718  -4.918 223.039   0.666  -0.035 177.493

 ******    1 imaginary frequencies (negative Signs) ******

                      1                      2                      3
                      A                      A                      A
 Frequencies --   -418.7802                31.6170                43.3744
 Red. masses --      4.7367                 3.9789                 3.3322
 Frc consts  --      0.4894                 0.0023                 0.0037
 IR Inten    --    606.6291                 0.0237                 5.2413

                      4                      5                      6
                      A                      A                      A
 Frequencies --     70.0011                77.4189                98.2093
 Red. masses --      3.2460                 3.6202                 2.9698
 Frc consts  --      0.0094                 0.0128                 0.0169
 IR Inten    --      0.4198                 1.2131                 1.1929

                      7                      8                      9
                      A                      A                      A
 Frequencies --    112.7526               128.4519               152.3384
 Red. masses --      1.4999                 2.3716                 1.8443
 Frc consts  --      0.0112                 0.0231                 0.0252
 IR Inten    --      1.2477                 3.3647                 3.0436

                     10                     11                     12
                      A                      A                      A
 Frequencies --    157.2911               173.9746               181.4137
 Red. masses --      4.7690                 2.8115                 3.0270
 Frc consts  --      0.0695                 0.0501                 0.0587
 IR Inten    --     15.5786                33.3049                 2.3864

                     13                     14                     15
                      A                      A                      A
 Frequencies --    216.7543               220.5803               252.9689
 Red. masses --      1.6074                 2.1910                 2.6709
 Frc consts  --      0.0445                 0.0628                 0.1007
 IR Inten    --      1.3810                 2.2760                 3.5397

                     16                     17                     18
                      A                      A                      A
 Frequencies --    257.2090               271.2060               302.6238
 Red. masses --      3.0659                 4.0237                 4.5103
 Frc consts  --      0.1195                 0.1744                 0.2434
 IR Inten    --     16.6912                14.6225                42.8523

                     19                     20                     21
                      A                      A                      A
 Frequencies --    328.4236               393.7734               414.5841
 Red. masses --      3.9057                 4.9731                 3.4031
 Frc consts  --      0.2482                 0.4543                 0.3446
 IR Inten    --      5.4609                49.8609                 2.0667

                     22                     23                     24
                      A                      A                      A
 Frequencies --    423.8864               465.3479               552.5309
 Red. masses --      2.9333                 3.0382                 2.7571
 Frc consts  --      0.3105                 0.3876                 0.4959
 IR Inten    --      0.1849                14.5522                49.7194

                     25                     26                     27
                      A                      A                      A
 Frequencies --    593.7429               602.9923               637.4945
 Red. masses --      2.8313                 2.6316                 5.6579
 Frc consts  --      0.5881                 0.5638                 1.3547
 IR Inten    --     25.6469                67.4949                 4.8822

                     28                     29                     30
                      A                      A                      A
 Frequencies --    650.7722               683.6839               721.0054
 Red. masses --      3.6888                 1.7108                 1.6734
 Frc consts  --      0.9204                 0.4712                 0.5125
 IR Inten    --     81.5676                99.5148                86.9940

                     31                     32                     33
                      A                      A                      A
 Frequencies --    723.5029               787.9887               800.2177
 Red. masses --      2.2725                 7.1166                 2.0739
 Frc consts  --      0.7009                 2.6035                 0.7825
 IR Inten    --    137.6668                93.7938                 6.8852

                     34                     35                     36
                      A                      A                      A
 Frequencies --    831.9617               875.2954               938.7213
 Red. masses --      5.2601                 1.2502                 4.2640
 Frc consts  --      2.1451                 0.5643                 2.2138
 IR Inten    --     36.7426                 0.0333                38.6654

                     37                     38                     39
                      A                      A                      A
 Frequencies --    967.0110               983.6553              1017.1623
 Red. masses --      1.4665                 1.0948                 1.4043
 Frc consts  --      0.8079                 0.6241                 0.8560
 IR Inten    --      1.0884               117.0918                 3.7676

                     40                     41                     42
                      A                      A                      A
 Frequencies --   1023.6787              1028.3531              1035.4377
 Red. masses --      4.6391                 2.3995                 1.3781
 Frc consts  --      2.8642                 1.4951                 0.8705
 IR Inten    --     12.2810                72.7269                12.1184

                     43                     44                     45
                      A                      A                      A
 Frequencies --   1066.5550              1071.4077              1089.0208
 Red. masses --      1.9971                 1.2820                 1.3819
 Frc consts  --      1.3385                 0.8671                 0.9656
 IR Inten    --     29.5607                89.6730                16.4060

                     46                     47                     48
                      A                      A                      A
 Frequencies --   1096.0659              1122.7168              1131.6302
 Red. masses --      4.0754                 1.5595                 1.2338
 Frc consts  --      2.8847                 1.1582                 0.9309
 IR Inten    --     25.4182                29.0660                 3.8951

                     49                     50                     51
                      A                      A                      A
 Frequencies --   1163.4399              1181.0304              1188.0125
 Red. masses --      1.6326                 1.6590                 1.1504
 Frc consts  --      1.3020                 1.3634                 0.9566
 IR Inten    --    280.5254               120.9843                 2.9808

                     52                     53                     54
                      A                      A                      A
 Frequencies --   1192.8620              1209.9745              1221.9689
 Red. masses --      1.4224                 2.0769                 1.2668
 Frc consts  --      1.1924                 1.7915                 1.1145
 IR Inten    --     48.3448               267.9070                76.8022

                     55                     56                     57
                      A                      A                      A
 Frequencies --   1283.2726              1315.7730              1328.5895
 Red. masses --      2.0642                 5.5307                 3.7119
 Frc consts  --      2.0028                 5.6414                 3.8604
 IR Inten    --     38.2709                13.1064                10.0581

                     58                     59                     60
                      A                      A                      A
 Frequencies --   1356.3434              1362.7116              1432.0684
 Red. masses --      1.2977                 1.4569                 1.8216
 Frc consts  --      1.4066                 1.5940                 2.2011
 IR Inten    --      9.5794                 5.1925               250.8764

                     61                     62                     63
                      A                      A                      A
 Frequencies --   1439.5974              1451.8253              1474.5023
 Red. masses --      1.3090                 1.2041                 1.3084
 Frc consts  --      1.5983                 1.4953                 1.6760
 IR Inten    --     24.4926                91.4160                12.2722

                     64                     65                     66
                      A                      A                      A
 Frequencies --   1486.0416              1491.0537              1492.3371
 Red. masses --      1.6887                 1.0832                 1.1823
 Frc consts  --      2.1972                 1.4189                 1.5513
 IR Inten    --    389.3540                29.1332                18.9528

                     67                     68                     69
                      A                      A                      A
 Frequencies --   1493.8556              1500.1411              1505.1871
 Red. masses --      1.1213                 1.2682                 1.0564
 Frc consts  --      1.4743                 1.6815                 1.4101
 IR Inten    --     53.4701               269.7910                52.0166

                     70                     71                     72
                      A                      A                      A
 Frequencies --   1511.8644              1536.4107              1546.2277
 Red. masses --      1.6949                 1.4955                 2.4394
 Frc consts  --      2.2825                 2.0800                 3.4362
 IR Inten    --    368.6476               287.2193                23.5480

                     73                     74                     75
                      A                      A                      A
 Frequencies --   1610.4302              1644.6647              1650.8000
 Red. masses --      2.1587                 1.7119                 5.2214
 Frc consts  --      3.2986                 2.7282                 8.3834
 IR Inten    --    617.5843                95.5468                43.3506

                     76                     77                     78
                      A                      A                      A
 Frequencies --   1673.4423              3025.4649              3032.6779
 Red. masses --      5.9192                 1.0458                 1.0414
 Frc consts  --      9.7664                 5.6399                 5.6430
 IR Inten    --      0.3266                71.1451               146.1679

                     79                     80                     81
                      A                      A                      A
 Frequencies --   3048.4649              3084.1522              3109.8211
 Red. masses --      1.0358                 1.1031                 1.0898
 Frc consts  --      5.6714                 6.1823                 6.2096
 IR Inten    --     51.8239                63.2017                35.9968

                     82                     83                     84
                      A                      A                      A
 Frequencies --   3116.6547              3151.7258              3160.2698
 Red. masses --      1.1020                 1.1033                 1.1035
 Frc consts  --      6.3071                 6.4570                 6.4935
 IR Inten    --     18.7405                17.9952                19.6628

                     85                     86                     87
                      A                      A                      A
 Frequencies --   3187.6313              3199.7610              3208.9695
 Red. masses --      1.0961                 1.0864                 1.0905
 Frc consts  --      6.5621                 6.5534                 6.6163
 IR Inten    --      4.8729                 0.1188                14.2400

                     88                     89                     90
                      A                      A                      A
 Frequencies --   3220.9409              3232.2486              3241.1065
 Red. masses --      1.0953                 1.0942                 1.0925
 Frc consts  --      6.6948                 6.7354                 6.7619
 IR Inten    --     27.1757                 9.5909                 3.7702

                     91                     92                     93
                      A                      A                      A
 Frequencies --   3246.5292              3441.1666              3606.3277
 Red. masses --      1.0877                 1.0603                 1.0890
 Frc consts  --      6.7545                 7.3978                 8.3449
 IR Inten    --      1.5892               113.0861               100.5867

 - Thermochemistry -
 -------------------
 Temperature   298.150 Kelvin.  Pressure   1.00000 Atm.
 Atom     1 has atomic number  6 and mass  12.00000

 Molecular mass:   284.05242 amu.
 Principal axes and moments of inertia in atomic units:
                           1         2         3
     Eigenvalues --  3163.233266369.472297631.36838
           X            0.99981  -0.01738  -0.00826
           Y            0.01772   0.99895   0.04236
           Z            0.00752  -0.04250   0.99907
 This molecule is an asymmetric top.
 Rotational symmetry number  1.
 Warning -- assumption of classical behavior for rotation
           may cause significant error
 Rotational temperatures (Kelvin)      0.02738     0.01360     0.01135
 Rotational constants (GHZ):           0.57054     0.28334     0.23649
    1 imaginary frequencies ignored.
 Zero-point vibrational energy     722934.1 (Joules/Mol)
                                  172.78540 (Kcal/Mol)
 Warning -- explicit consideration of  25 degrees of freedom as
           vibrations may cause significant error
 Vibrational temperatures:     45.49    62.41   100.72   111.39   141.30
          (Kelvin)            162.23   184.81   219.18   226.31   250.31
                              261.01   311.86   317.37   363.97   370.07
                              390.20   435.41   472.53   566.55   596.49
                              609.88   669.53   794.97   854.26   867.57
                              917.21   936.32   983.67  1037.37  1040.96
                             1133.74  1151.33  1197.01  1259.35  1350.61
                             1391.31  1415.26  1463.47  1472.85  1479.57
                             1489.76  1534.53  1541.52  1566.86  1576.99
                             1615.34  1628.16  1673.93  1699.24  1709.28
                             1716.26  1740.88  1758.14  1846.34  1893.10
                             1911.54  1951.48  1960.64  2060.43  2071.26
                             2088.85  2121.48  2138.08  2145.29  2147.14
                             2149.33  2158.37  2165.63  2175.24  2210.55
                             2224.68  2317.05  2366.31  2375.13  2407.71
                             4352.97  4363.35  4386.06  4437.41  4474.34
                             4484.17  4534.63  4546.92  4586.29  4603.74
                             4616.99  4634.22  4650.48  4663.23  4671.03
                             4951.07  5188.70

 Zero-point correction=                           0.275351 (Hartree/Particle)
 Thermal correction to Energy=                    0.292550
 Thermal correction to Enthalpy=                  0.293494
 Thermal correction to Gibbs Free Energy=         0.229186
 Sum of electronic and zero-point Energies=          -3226.175009
 Sum of electronic and thermal Energies=             -3226.157809
 Sum of electronic and thermal Enthalpies=           -3226.156865
 Sum of electronic and thermal Free Energies=        -3226.221173

                     E (Thermal)             CV                S
                      KCal/Mol        Cal/Mol-Kelvin    Cal/Mol-Kelvin
 Total                  183.578             62.488            135.348
 Electronic               0.000              0.000              0.000
 Translational            0.889              2.981             42.830
 Rotational               0.889              2.981             33.397
 Vibrational            181.801             56.526             59.121
 Vibration     1          0.594              1.983              5.725
 Vibration     2          0.595              1.980              5.099
 Vibration     3          0.598              1.968              4.153
 Vibration     4          0.599              1.964              3.955
 Vibration     5          0.604              1.950              3.490
 Vibration     6          0.607              1.939              3.221
 Vibration     7          0.611              1.925              2.969
 Vibration     8          0.619              1.900              2.643
 Vibration     9          0.621              1.894              2.582
 Vibration    10          0.627              1.874              2.392
 Vibration    11          0.630              1.865              2.314
 Vibration    12          0.646              1.816              1.986
 Vibration    13          0.647              1.810              1.954
 Vibration    14          0.664              1.758              1.710
 Vibration    15          0.667              1.751              1.681
 Vibration    16          0.675              1.726              1.589
 Vibration    17          0.694              1.669              1.402
 Vibration    18          0.712              1.619              1.268
 Vibration    19          0.761              1.483              0.986
 Vibration    20          0.778              1.439              0.911
 Vibration    21          0.786              1.418              0.879
 Vibration    22          0.823              1.327              0.751
 Vibration    23          0.908              1.134              0.539
 Vibration    24          0.951              1.045              0.461
 Vibration    25          0.961              1.025              0.445

 Optimization completed.
    -- Stationary point found.
 Normal termination of Gaussian 16 at Sun Feb  7 08:30:14 2021.
