 Gaussian 16, Revision A.03,
 Gaussian 16:  ES64L-G16RevA.03 25-Dec-2016

 ----------------------------------------------------------------------
 # wB97XD def2tzvp, opt=(ts, noeigen, calcfc, maxcycles=70, maxstep=3),
  freq=noraman, scrf=(iefpcm, solvent=water)
 ----------------------------------------------------------------------

 ------------------------
 3_iteration/TS-102-3.out
 ------------------------
 Symbolic Z-matrix:
 Charge =  0 Multiplicity = 1

 SCF Done:  E(RwB97XD) =  -731.445486202     A.U. after   14 cycles
 Optimization completed.
    -- Stationary point found.
 Normal termination of Gaussian 16 at Sun Feb  7 20:08:00 2021.

 ---------------------------------------------------------------------
 #N Geom=AllCheck Guess=TCheck SCRF=Check GenChk RwB97XD/def2TZVP Freq
 ---------------------------------------------------------------------

 Structure from the checkpoint file:  "/beegfs/scratch/user/q/tla25/Gau-60229.chk"
 ------------------------
 3_iteration/TS-102-3.out
 ------------------------
 Charge =  0 Multiplicity = 1

                         Standard orientation:
 ---------------------------------------------------------------------
 Center     Atomic      Atomic             Coordinates (Angstroms)
 Number     Number       Type             X           Y           Z
 ---------------------------------------------------------------------
      1          6           0        0.736660   -0.317790    0.773470
      2          6           0        2.159120   -0.290220    0.800860
      3          8           0        2.817800   -0.206820    1.860000
      4          6           0       -0.088740    0.281940   -0.269120
      5          6           0       -0.685200    2.986640   -0.813820
      6          1           0       -0.659070    3.964810   -0.336350
      7          1           0       -0.166740    3.038010   -1.766520
      8          1           0       -1.717550    2.690180   -0.979360
      9          7           0       -0.019260    1.989890    0.045390
     10          1           0        0.985450    2.138120    0.042430
     11          1           0       -0.303750    2.095780    1.013590
     12          6           0       -1.562440   -0.094170   -0.155530
     13          6           0       -2.519460    0.635571    0.540500
     14          6           0       -3.834300    0.197531    0.630310
     15          6           0       -4.219591   -0.989129    0.030960
     16          6           0       -3.272321   -1.737159   -0.654020
     17          6           0       -1.964041   -1.292920   -0.744920
     18          1           0       -2.267350    1.555751    1.049600
     19          1           0       -4.554750    0.790361    1.179520
     20          1           0       -5.243811   -1.332099    0.101260
     21          1           0       -3.551281   -2.674089   -1.119620
     22          1           0       -1.239461   -1.903140   -1.267910
     23          6           0        0.328810    0.277860   -1.735440
     24          1           0        0.372500   -0.739290   -2.113140
     25          1           0       -0.403640    0.815200   -2.337600
     26          1           0        1.313960    0.717360   -1.869610
     27          6           0        0.091280   -0.507090    2.131980
     28          1           0       -0.855101   -1.048170    2.067400
     29          1           0        0.760029   -1.076840    2.775740
     30          1           0       -0.121880    0.428390    2.673110
     31          7           0        2.885570   -0.359420   -0.417360
     32          6           0        2.737249   -1.568620   -1.208160
     33          6           0        4.266780    0.067310   -0.347320
     34          1           0        1.756319   -2.005060   -1.041820
     35          1           0        2.852729   -1.355720   -2.274430
     36          1           0        3.494679   -2.315310   -0.928380
     37          1           0        4.343330    1.014030    0.184000
     38          1           0        4.915030   -0.661770    0.157740
     39          1           0        4.640970    0.206240   -1.364310
 ---------------------------------------------------------------------

 SCF Done:  E(RwB97XD) =  -731.445486202     A.U. after    1 cycles

 The electronic state is 1-A.
 Alpha  occ. eigenvalues --  -19.17760 -14.51339 -14.42373 -10.35737 -10.34543
 Alpha  occ. eigenvalues --  -10.32675 -10.30592 -10.29534 -10.29442 -10.29221
 Alpha  occ. eigenvalues --  -10.29177 -10.29077 -10.29033 -10.28965 -10.27514
 Alpha  occ. eigenvalues --  -10.25463 -10.23592  -1.09900  -1.06867  -1.00065
 Alpha  occ. eigenvalues --   -0.97285  -0.91186  -0.85465  -0.84632  -0.82575
 Alpha  occ. eigenvalues --   -0.80627  -0.79699  -0.76657  -0.73546  -0.70866
 Alpha  occ. eigenvalues --   -0.70174  -0.66520  -0.65192  -0.60975  -0.60299
 Alpha  occ. eigenvalues --   -0.59086  -0.57131  -0.55664  -0.54757  -0.54385
 Alpha  occ. eigenvalues --   -0.53936  -0.52572  -0.51755  -0.51055  -0.49852
 Alpha  occ. eigenvalues --   -0.49472  -0.48306  -0.47906  -0.47353  -0.47111
 Alpha  occ. eigenvalues --   -0.46800  -0.45946  -0.45080  -0.43969  -0.43885
 Alpha  occ. eigenvalues --   -0.42327  -0.42143  -0.41790  -0.40966  -0.34001
 Alpha  occ. eigenvalues --   -0.33596  -0.32277  -0.29386  -0.24094
 Alpha virt. eigenvalues --    0.04900   0.04992   0.09089   0.09250   0.11811
 Alpha virt. eigenvalues --    0.12869   0.13049   0.14006   0.14397   0.15179
 Alpha virt. eigenvalues --    0.16299   0.17115   0.17346   0.17756   0.18312

 Mulliken charges:
               1
     1  C   -0.280650
     2  C    0.172824
     3  O   -0.559071
     4  C    0.205059
     5  C   -0.321242
     6  H    0.169311
     7  H    0.174917
     8  H    0.177177
     9  N   -0.236245
    10  H    0.297263
    11  H    0.287289
    12  C    0.265284
    13  C   -0.286624
    14  C   -0.150483
    15  C   -0.150889
    16  C   -0.142840
    17  C   -0.317942
    18  H    0.153059
    19  H    0.143106
    20  H    0.143665
    21  H    0.142163
    22  H    0.149883
    23  C   -0.424898
    24  H    0.147208
    25  H    0.160793
    26  H    0.157224
    27  C   -0.419054
    28  H    0.127449
    29  H    0.124892
    30  H    0.087081
    31  N   -0.163747
    32  C   -0.294477
    33  C   -0.278749
    34  H    0.138678
    35  H    0.135832
    36  H    0.114495
    37  H    0.125696
    38  H    0.102179
    39  H    0.124384
 Sum of Mulliken charges =  -0.00000

 Dipole moment (field-independent basis, Debye):
    X=             -6.2357    Y=              6.7144    Z=             -6.2790  Tot=             11.1082
 Quadrupole moment (field-independent basis, Debye-Ang):
   XX=           -112.8026   YY=            -85.0163   ZZ=           -114.6882
   XY=              1.3637   XZ=            -17.1437   YZ=              5.3720

  Exact polarizability: 310.513  -5.713 242.254  -1.499  14.245 223.058
 Approx polarizability: 230.433  -0.778 202.374  -0.940  14.446 187.892

 ******    1 imaginary frequencies (negative Signs) ******

                      1                      2                      3
                      A                      A                      A
 Frequencies --   -270.0972                17.7164                36.7218
 Red. masses --      5.8450                 3.7856                 3.4342
 Frc consts  --      0.2512                 0.0007                 0.0027
 IR Inten    --    588.1027                 2.4221                 1.5276

                      4                      5                      6
                      A                      A                      A
 Frequencies --     76.1375                78.9455               104.1573
 Red. masses --      3.9372                 5.7241                 3.1251
 Frc consts  --      0.0134                 0.0210                 0.0200
 IR Inten    --      1.6780                 1.4937                 4.8160

                      7                      8                      9
                      A                      A                      A
 Frequencies --    131.8684               139.7876               152.7643
 Red. masses --      2.3582                 1.6829                 1.3022
 Frc consts  --      0.0242                 0.0194                 0.0179
 IR Inten    --      3.7198                 1.5804                 1.2500

                     10                     11                     12
                      A                      A                      A
 Frequencies --    168.0030               173.0004               216.3155
 Red. masses --      2.1603                 1.5008                 2.1246
 Frc consts  --      0.0359                 0.0265                 0.0586
 IR Inten    --      5.5888                 8.0561                 0.9265

                     13                     14                     15
                      A                      A                      A
 Frequencies --    233.7711               247.5469               261.0194
 Red. masses --      1.0960                 3.3136                 2.0946
 Frc consts  --      0.0353                 0.1196                 0.0841
 IR Inten    --      3.8085                16.9939                 3.4394

                     16                     17                     18
                      A                      A                      A
 Frequencies --    282.3781               313.7875               333.8310
 Red. masses --      2.5911                 1.6483                 2.5379
 Frc consts  --      0.1217                 0.0956                 0.1666
 IR Inten    --     10.8647                35.1618                17.9948

                     19                     20                     21
                      A                      A                      A
 Frequencies --    346.1149               352.2853               366.0948
 Red. masses --      2.9072                 2.6127                 1.5404
 Frc consts  --      0.2052                 0.1910                 0.1216
 IR Inten    --      3.7083                20.5849                16.7139

                     22                     23                     24
                      A                      A                      A
 Frequencies --    395.5796               413.5862               419.2942
 Red. masses --      2.5569                 2.3161                 2.7818
 Frc consts  --      0.2357                 0.2334                 0.2881
 IR Inten    --     22.6744                 3.5628                 0.7443

                     25                     26                     27
                      A                      A                      A
 Frequencies --    450.0732               485.8219               530.2122
 Red. masses --      3.3754                 3.1960                 3.5628
 Frc consts  --      0.4029                 0.4444                 0.5901
 IR Inten    --      4.9062                 7.6894                21.3039

                     28                     29                     30
                      A                      A                      A
 Frequencies --    563.9692               597.5055               629.6729
 Red. masses --      3.7658                 3.7653                 3.9145
 Frc consts  --      0.7057                 0.7920                 0.9144
 IR Inten    --    125.4545                88.6094                23.6757

                     31                     32                     33
                      A                      A                      A
 Frequencies --    638.4380               697.7485               723.7082
 Red. masses --      6.3396                 4.6938                 1.5185
 Frc consts  --      1.5225                 1.3464                 0.4686
 IR Inten    --      4.3516                28.4164                90.9769

                     34                     35                     36
                      A                      A                      A
 Frequencies --    747.2622               796.6461               810.6493
 Red. masses --      1.5219                 2.4524                 5.2403
 Frc consts  --      0.5007                 0.9170                 2.0290
 IR Inten    --     31.8117                23.8942                24.3195

                     37                     38                     39
                      A                      A                      A
 Frequencies --    830.2382               869.4502               917.1123
 Red. masses --      2.9847                 1.2566                 2.1547
 Frc consts  --      1.2122                 0.5597                 1.0678
 IR Inten    --     41.0697                 0.7306                43.2693

                     40                     41                     42
                      A                      A                      A
 Frequencies --    947.8086               982.6760              1008.1538
 Red. masses --      1.4538                 2.1519                 1.3801
 Frc consts  --      0.7695                 1.2243                 0.8265
 IR Inten    --      3.7135                34.4483                 0.0838

                     43                     44                     45
                      A                      A                      A
 Frequencies --   1024.4239              1026.7381              1028.0363
 Red. masses --      3.7204                 3.0617                 1.4049
 Frc consts  --      2.3004                 1.9016                 0.8748
 IR Inten    --     28.3201                63.2706                16.1298

                     46                     47                     48
                      A                      A                      A
 Frequencies --   1039.5647              1056.7644              1066.7660
 Red. masses --      1.6551                 1.6910                 1.9326
 Frc consts  --      1.0539                 1.1126                 1.2958
 IR Inten    --     72.6739                57.2814                34.7345

                     49                     50                     51
                      A                      A                      A
 Frequencies --   1072.6939              1078.5134              1090.3815
 Red. masses --      1.4037                 1.4013                 1.8412
 Frc consts  --      0.9517                 0.9604                 1.2897
 IR Inten    --     20.1088                33.2754               139.3777

                     52                     53                     54
                      A                      A                      A
 Frequencies --   1100.5921              1127.0048              1128.7092
 Red. masses --      1.6167                 1.5191                 1.3349
 Frc consts  --      1.1538                 1.1368                 1.0020
 IR Inten    --     21.6036                 9.6738                15.7537

                     55                     56                     57
                      A                      A                      A
 Frequencies --   1134.5689              1149.2080              1174.4765
 Red. masses --      1.7401                 2.0805                 1.4285
 Frc consts  --      1.3197                 1.6189                 1.1609
 IR Inten    --     27.2405                96.9217                20.9845

                     58                     59                     60
                      A                      A                      A
 Frequencies --   1186.1745              1227.5615              1246.6611
 Red. masses --      1.1305                 1.1415                 3.5227
 Frc consts  --      0.9372                 1.0134                 3.2256
 IR Inten    --      0.6138                 1.2955                69.6829

                     61                     62                     63
                      A                      A                      A
 Frequencies --   1269.1055              1303.3202              1313.4484
 Red. masses --      4.2265                 2.8041                 1.6177
 Frc consts  --      4.0107                 2.8063                 1.6443
 IR Inten    --      1.5679                44.4858               109.7020

                     64                     65                     66
                      A                      A                      A
 Frequencies --   1325.0274              1347.7587              1353.9480
 Red. masses --      4.2224                 2.8010                 1.4930
 Frc consts  --      4.3677                 2.9977                 1.6126
 IR Inten    --      1.5374               239.2575                25.8073

                     67                     68                     69
                      A                      A                      A
 Frequencies --   1371.7999              1392.7455              1406.4948
 Red. masses --      1.3785                 2.8570                 1.3273
 Frc consts  --      1.5285                 3.2651                 1.5470
 IR Inten    --      6.2455               495.7942               134.8767

                     70                     71                     72
                      A                      A                      A
 Frequencies --   1423.4695              1437.7758              1458.8416
 Red. masses --      1.2417                 1.1668                 1.1616
 Frc consts  --      1.4824                 1.4211                 1.4565
 IR Inten    --     21.8927                 4.6623                 6.8797

                     73                     74                     75
                      A                      A                      A
 Frequencies --   1466.3835              1477.2453              1479.2925
 Red. masses --      1.1767                 1.0741                 1.0651
 Frc consts  --      1.4908                 1.3810                 1.3733
 IR Inten    --     49.7545                 3.2194                14.4556

                     76                     77                     78
                      A                      A                      A
 Frequencies --   1483.7061              1490.2433              1497.7708
 Red. masses --      1.1096                 2.0052                 1.0583
 Frc consts  --      1.4392                 2.6237                 1.3988
 IR Inten    --     25.1063                12.3435                 7.8231

                     79                     80                     81
                      A                      A                      A
 Frequencies --   1498.5462              1500.6172              1501.6480
 Red. masses --      1.0595                 1.0670                 1.0573
 Frc consts  --      1.4018                 1.4157                 1.4047
 IR Inten    --     12.8516                11.8104                23.3205

                     82                     83                     84
                      A                      A                      A
 Frequencies --   1507.2567              1517.0018              1525.8369
 Red. masses --      1.0526                 1.1312                 1.0777
 Frc consts  --      1.4089                 1.5338                 1.4783
 IR Inten    --     47.6664               114.2254                41.3605

                     85                     86                     87
                      A                      A                      A
 Frequencies --   1548.5462              1572.8955              1639.9137
 Red. masses --      2.1915                 7.4845                 1.1894
 Frc consts  --      3.0963                10.9097                 1.8846
 IR Inten    --     13.7895              1119.5870                69.0328

                     88                     89                     90
                      A                      A                      A
 Frequencies --   1655.2340              1677.7528              2955.0517
 Red. masses --      3.8671                 5.6581                 1.0643
 Frc consts  --      6.2425                 9.3837                 5.4757
 IR Inten    --     11.4044                 4.1379               172.6259

                     91                     92                     93
                      A                      A                      A
 Frequencies --   2977.9818              2992.9221              3065.4863
 Red. masses --      1.0552                 1.0528                 1.0851
 Frc consts  --      5.5138                 5.5561                 6.0077
 IR Inten    --    153.3611               172.6400                83.4248

                     94                     95                     96
                      A                      A                      A
 Frequencies --   3070.7981              3079.1288              3083.5746
 Red. masses --      1.0724                 1.0852                 1.0400
 Frc consts  --      5.9583                 6.0622                 5.8261
 IR Inten    --     74.0098                52.9845                20.6290

                     97                     98                     99
                      A                      A                      A
 Frequencies --   3088.2010              3132.8097              3145.7203
 Red. masses --      1.0350                 1.0972                 1.0995
 Frc consts  --      5.8157                 6.3449                 6.4103
 IR Inten    --     34.4133                32.9049                33.7971

                    100                    101                    102
                      A                      A                      A
 Frequencies --   3162.1273              3166.9612              3173.8807
 Red. masses --      1.0986                 1.0961                 1.1042
 Frc consts  --      6.4719                 6.4774                 6.5537
 IR Inten    --     29.5142                 6.9917                 8.5964

                    103                    104                    105
                      A                      A                      A
 Frequencies --   3186.0585              3195.5436              3195.8252
 Red. masses --      1.1008                 1.1050                 1.0873
 Frc consts  --      6.5837                 6.6483                 6.5428
 IR Inten    --     17.6173                 6.4042                 1.0890

                    106                    107                    108
                      A                      A                      A
 Frequencies --   3202.3570              3212.2866              3217.9999
 Red. masses --      1.0885                 1.0915                 1.0941
 Frc consts  --      6.5766                 6.6361                 6.6755
 IR Inten    --      1.4176                25.6627                47.3910

                    109                    110                    111
                      A                      A                      A
 Frequencies --   3225.2040              3518.1540              3580.3533
 Red. masses --      1.0986                 1.0535                 1.0941
 Frc consts  --      6.7328                 7.6828                 8.2637
 IR Inten    --      8.1802                22.5175                53.2969

 - Thermochemistry -
 -------------------
 Temperature   298.150 Kelvin.  Pressure   1.00000 Atm.
 Atom     1 has atomic number  6 and mass  12.00000

 Molecular mass:   234.17321 amu.
 Principal axes and moments of inertia in atomic units:
                           1         2         3
     Eigenvalues --  2188.687346143.584536449.81453
           X            0.99985  -0.00627  -0.01636
           Y            0.00667   0.99967   0.02489
           Z            0.01620  -0.02499   0.99956
 This molecule is an asymmetric top.
 Rotational symmetry number  1.
 Warning -- assumption of classical behavior for rotation
           may cause significant error
 Rotational temperatures (Kelvin)      0.03957     0.01410     0.01343
 Rotational constants (GHZ):           0.82458     0.29376     0.27981
    1 imaginary frequencies ignored.
 Zero-point vibrational energy     900302.0 (Joules/Mol)
                                  215.17735 (Kcal/Mol)
 Warning -- explicit consideration of  28 degrees of freedom as
           vibrations may cause significant error
 Vibrational temperatures:     25.49    52.83   109.54   113.58   149.86
          (Kelvin)            189.73   201.12   219.79   241.72   248.91
                              311.23   336.34   356.16   375.55   406.28
                              451.47   480.31   497.98   506.86   526.73
                              569.15   595.06   603.27   647.56   698.99
                              762.86   811.43   859.68   905.96   918.57
                             1003.90  1041.25  1075.14  1146.20  1166.34
                             1194.53  1250.94  1319.52  1363.69  1413.85
                             1450.51  1473.92  1477.25  1479.11  1495.70
                             1520.45  1534.84  1543.37  1551.74  1568.82
                             1583.51  1621.51  1623.96  1632.39  1653.45
                             1689.81  1706.64  1766.19  1793.67  1825.96
                             1875.19  1889.76  1906.42  1939.12  1948.03
                             1973.71  2003.85  2023.63  2048.06  2068.64
                             2098.95  2109.80  2125.43  2128.37  2134.72
                             2144.13  2154.96  2156.07  2159.05  2160.54
                             2168.61  2182.63  2195.34  2228.01  2263.05
                             2359.47  2381.51  2413.91  4251.66  4284.65
                             4306.15  4410.55  4418.19  4430.18  4436.58
                             4443.23  4507.41  4525.99  4549.60  4556.55
                             4566.51  4584.03  4597.67  4598.08  4607.48
                             4621.76  4629.98  4640.35  5061.84  5151.33

 Zero-point correction=                           0.342907 (Hartree/Particle)
 Thermal correction to Energy=                    0.360907
 Thermal correction to Enthalpy=                  0.361852
 Thermal correction to Gibbs Free Energy=         0.296816
 Sum of electronic and zero-point Energies=           -731.102579
 Sum of electronic and thermal Energies=              -731.084579
 Sum of electronic and thermal Enthalpies=            -731.083635
 Sum of electronic and thermal Free Energies=         -731.148670

                     E (Thermal)             CV                S
                      KCal/Mol        Cal/Mol-Kelvin    Cal/Mol-Kelvin
 Total                  226.473             68.385            136.878
 Electronic               0.000              0.000              0.000
 Translational            0.889              2.981             42.254
 Rotational               0.889              2.981             32.828
 Vibrational            224.695             62.423             61.796
 Vibration     1          0.593              1.986              6.875
 Vibration     2          0.594              1.982              5.429
 Vibration     3          0.599              1.965              3.988
 Vibration     4          0.600              1.963              3.917
 Vibration     5          0.605              1.946              3.375
 Vibration     6          0.612              1.921              2.919
 Vibration     7          0.615              1.914              2.807
 Vibration     8          0.619              1.900              2.638
 Vibration     9          0.625              1.882              2.458
 Vibration    10          0.627              1.876              2.403
 Vibration    11          0.645              1.816              1.990
 Vibration    12          0.654              1.789              1.850
 Vibration    13          0.661              1.767              1.748
 Vibration    14          0.669              1.744              1.655
 Vibration    15          0.681              1.706              1.519
 Vibration    16          0.702              1.647              1.342
 Vibration    17          0.715              1.608              1.241
 Vibration    18          0.724              1.583              1.184
 Vibration    19          0.729              1.571              1.156
 Vibration    20          0.739              1.542              1.096
 Vibration    21          0.762              1.480              0.979
 Vibration    22          0.777              1.441              0.914
 Vibration    23          0.782              1.428              0.894
 Vibration    24          0.809              1.361              0.796
 Vibration    25          0.842              1.281              0.695
 Vibration    26          0.885              1.183              0.587
 Vibration    27          0.920              1.109              0.516
 Vibration    28          0.955              1.037              0.454

 Optimization completed.
    -- Stationary point found.
 Normal termination of Gaussian 16 at Sun Feb  7 22:10:08 2021.
