 Gaussian 16, Revision A.03,
 Gaussian 16:  ES64L-G16RevA.03 25-Dec-2016

 ----------------------------------------------------------------------
 # wB97XD def2tzvp, opt=(ts, noeigen, calcfc, maxcycles=70, maxstep=8),
  freq=noraman, scrf=(iefpcm, solvent=water)
 ----------------------------------------------------------------------

 ------------------------
 1_iteration/TS-150-1.out
 ------------------------
 Symbolic Z-matrix:
 Charge =  0 Multiplicity = 1

 SCF Done:  E(RwB97XD) =  -5800.05480638     A.U. after   15 cycles
 SCF Done:  E(RwB97XD) =  -5800.05486925     A.U. after   10 cycles
 SCF Done:  E(RwB97XD) =  -5800.05486953     A.U. after    8 cycles
 Optimization completed.
    -- Stationary point found.
 Normal termination of Gaussian 16 at Sun Mar 28 16:30:00 2021.

 ---------------------------------------------------------------------
 #N Geom=AllCheck Guess=TCheck SCRF=Check GenChk RwB97XD/def2TZVP Freq
 ---------------------------------------------------------------------

 Structure from the checkpoint file:  "/beegfs/scratch/user/q/tla25/Gau-118906.chk"
 ------------------------
 1_iteration/TS-150-1.out
 ------------------------
 Charge =  0 Multiplicity = 1

                         Standard orientation:
 ---------------------------------------------------------------------
 Center     Atomic      Atomic             Coordinates (Angstroms)
 Number     Number       Type             X           Y           Z
 ---------------------------------------------------------------------
      1          6           0        0.735241   -0.259783    0.014410
      2          6           0        2.087389    0.295092    0.172970
      3          8           0        2.285374    1.273673    0.912797
      4          6           0       -0.392651    0.531736    0.147366
      5          6           0       -0.327824    0.383501    2.980467
      6          1           0       -1.285082   -0.120026    3.092996
      7          1           0        0.437044   -0.357426    2.756042
      8          1           0       -0.071011    0.883239    3.914867
      9          7           0       -0.375262    1.338523    1.876341
     10          1           0       -1.062938    2.071176    2.010739
     11          1           0        0.550122    1.753999    1.754134
     12          6           0       -1.767573   -0.019745   -0.080262
     13          6           0       -1.981265   -0.730334   -1.263241
     14          6           0       -3.230202   -1.237458   -1.569633
     15          6           0       -4.295811   -1.040750   -0.701004
     16          6           0       -4.097541   -0.323568    0.466066
     17          6           0       -2.844087    0.189868    0.771702
     18          1           0       -1.155130   -0.879257   -1.946173
     19          1           0       -3.372529   -1.786641   -2.491497
     20          1           0       -5.274169   -1.438630   -0.937821
     21          1           0       -4.920409   -0.154062    1.148400
     22          1           0       -2.736415    0.757704    1.682752
     23         35           0       -0.273566    2.273874   -0.830652
     24         35           0        0.566159   -2.146547    0.358474
     25          7           0        3.116385   -0.286180   -0.484273
     26          6           0        4.473102    0.112635   -0.174454
     27          6           0        2.961258   -1.127615   -1.652514
     28          1           0        4.529870    0.462876    0.852350
     29          1           0        5.132239   -0.747177   -0.300343
     30          1           0        4.816371    0.913415   -0.836665
     31          1           0        1.931254   -1.106653   -1.997591
     32          1           0        3.601025   -0.745409   -2.451354
     33          1           0        3.247940   -2.160848   -1.442706
 ---------------------------------------------------------------------

 SCF Done:  E(RwB97XD) =  -5800.05486953     A.U. after    1 cycles

 The electronic state is 1-A.
 Alpha  occ. eigenvalues -- -483.12662-483.12446 -62.67489 -62.67245 -56.46606
 Alpha  occ. eigenvalues --  -56.46366 -56.46253 -56.46244 -56.46014 -56.46004
 Alpha  occ. eigenvalues --  -19.21418 -14.48327 -14.46360 -10.40502 -10.38879
 Alpha  occ. eigenvalues --  -10.31755 -10.31640 -10.30919 -10.30730 -10.30661
 Alpha  occ. eigenvalues --  -10.30054 -10.29726 -10.29572 -10.29516 -10.29458
 Alpha  occ. eigenvalues --   -8.81572  -8.81331  -6.63710  -6.63476  -6.62600
 Alpha  occ. eigenvalues --   -6.62567  -6.62354  -6.62325  -2.74087  -2.73863
 Alpha  occ. eigenvalues --   -2.73784  -2.73758  -2.73542  -2.73518  -2.72860
 Alpha  occ. eigenvalues --   -2.72860  -2.72611  -2.72611  -1.14112  -1.04266
 Alpha  occ. eigenvalues --   -1.03560  -0.98224  -0.94031  -0.89173  -0.86046
 Alpha  occ. eigenvalues --   -0.85823  -0.82304  -0.81169  -0.79496  -0.78604
 Alpha  occ. eigenvalues --   -0.73076  -0.71314  -0.67456  -0.64758  -0.62058
 Alpha  occ. eigenvalues --   -0.60544  -0.58385  -0.57418  -0.56987  -0.56255
 Alpha  occ. eigenvalues --   -0.55667  -0.54719  -0.53051  -0.52096  -0.51381
 Alpha  occ. eigenvalues --   -0.50927  -0.48811  -0.48696  -0.48472  -0.47502
 Alpha  occ. eigenvalues --   -0.47224  -0.46436  -0.45196  -0.44885  -0.43673
 Alpha  occ. eigenvalues --   -0.42871  -0.39222  -0.38223  -0.37949  -0.36959
 Alpha  occ. eigenvalues --   -0.35024  -0.34294  -0.32997  -0.32304  -0.27014
 Alpha virt. eigenvalues --    0.01158   0.03643   0.04735   0.07406   0.08515
 Alpha virt. eigenvalues --    0.10635   0.12184   0.13642   0.14526   0.14649
 Alpha virt. eigenvalues --    0.15845   0.16486   0.16802   0.17551   0.17783

 Mulliken charges:
               1
     1  C   -0.395802
     2  C    0.365388
     3  O   -0.557289
     4  C    0.247485
     5  C   -0.293597
     6  H    0.150319
     7  H    0.156844
     8  H    0.157490
     9  N   -0.320764
    10  H    0.283140
    11  H    0.281753
    12  C    0.204878
    13  C   -0.295163
    14  C   -0.124589
    15  C   -0.144354
    16  C   -0.162479
    17  C   -0.221657
    18  H    0.174745
    19  H    0.145641
    20  H    0.147206
    21  H    0.145956
    22  H    0.153231
    23  Br  -0.145823
    24  Br  -0.133367
    25  N   -0.098976
    26  C   -0.292609
    27  C   -0.304182
    28  H    0.142089
    29  H    0.141816
    30  H    0.139685
    31  H    0.165556
    32  H    0.142601
    33  H    0.144827
 Sum of Mulliken charges =  -0.00000

 Dipole moment (field-independent basis, Debye):
    X=             -2.1987    Y=             -0.4798    Z=              1.9910  Tot=              3.0047
 Quadrupole moment (field-independent basis, Debye-Ang):
   XX=           -109.2420   YY=           -132.2870   ZZ=           -112.2963
   XY=             -5.1239   XZ=            -10.6730   YZ=              9.9343

  Exact polarizability: 321.730   3.111 281.213 -20.129  21.821 264.060
 Approx polarizability: 242.918   3.477 233.364 -14.518  20.141 224.742

 ******    1 imaginary frequencies (negative Signs) ******

                      1                      2                      3
                      A                      A                      A
 Frequencies --   -377.0125                37.2535                52.8955
 Red. masses --      5.4895                 4.0075                 4.9694
 Frc consts  --      0.4597                 0.0033                 0.0082
 IR Inten    --    622.7181                 0.6693                 2.6020

                      4                      5                      6
                      A                      A                      A
 Frequencies --     64.0723                70.2398                93.4529
 Red. masses --      5.4871                 5.1912                 3.7086
 Frc consts  --      0.0133                 0.0151                 0.0191
 IR Inten    --      3.1477                 0.7298                 1.3071

                      7                      8                      9
                      A                      A                      A
 Frequencies --    106.5526               120.9532               134.4144
 Red. masses --      3.1769                 1.7914                 2.1943
 Frc consts  --      0.0213                 0.0154                 0.0234
 IR Inten    --      0.0462                 1.5811                 2.2342

                     10                     11                     12
                      A                      A                      A
 Frequencies --    147.2876               157.5044               159.5122
 Red. masses --      5.4052                 5.1866                 1.8588
 Frc consts  --      0.0691                 0.0758                 0.0279
 IR Inten    --      9.0402                 1.4689                 3.6148

                     13                     14                     15
                      A                      A                      A
 Frequencies --    175.3489               194.1880               212.2182
 Red. masses --      1.4530                 2.9255                 2.9918
 Frc consts  --      0.0263                 0.0650                 0.0794
 IR Inten    --      2.7655                 1.8772                10.5777

                     16                     17                     18
                      A                      A                      A
 Frequencies --    225.6512               251.2162               260.9687
 Red. masses --      3.4595                 4.1848                 3.4897
 Frc consts  --      0.1038                 0.1556                 0.1400
 IR Inten    --      5.5370                11.4822                 1.3596

                     19                     20                     21
                      A                      A                      A
 Frequencies --    270.4216               287.0141               307.6462
 Red. masses --      2.6868                 3.8261                 3.0415
 Frc consts  --      0.1158                 0.1857                 0.1696
 IR Inten    --      9.4441                13.7983                38.4498

                     22                     23                     24
                      A                      A                      A
 Frequencies --    376.8197               418.9072               425.0655
 Red. masses --      4.2647                 3.1611                 2.9194
 Frc consts  --      0.3568                 0.3268                 0.3108
 IR Inten    --     35.6677                10.9975                 3.1442

                     25                     26                     27
                      A                      A                      A
 Frequencies --    475.5237               518.0867               550.4979
 Red. masses --      4.8238                 3.8206                 6.0912
 Frc consts  --      0.6427                 0.6042                 1.0876
 IR Inten    --     20.5862                26.3325               195.3874

                     28                     29                     30
                      A                      A                      A
 Frequencies --    601.1496               639.1861               664.9947
 Red. masses --      4.5876                 6.4452                 3.4728
 Frc consts  --      0.9768                 1.5515                 0.9048
 IR Inten    --     12.6755                 9.0139               120.5049

                     31                     32                     33
                      A                      A                      A
 Frequencies --    679.6249               723.1792               745.1043
 Red. masses --      4.7562                 1.7387                 1.9532
 Frc consts  --      1.2944                 0.5357                 0.6389
 IR Inten    --     92.3693                48.6626               221.9812

                     34                     35                     36
                      A                      A                      A
 Frequencies --    781.6874               807.8723               832.5956
 Red. masses --      4.5228                 2.3584                 5.2859
 Frc consts  --      1.6283                 0.9069                 2.1589
 IR Inten    --     30.9799                 8.1640                24.8822

                     37                     38                     39
                      A                      A                      A
 Frequencies --    873.5807               947.5051               963.6702
 Red. masses --      1.2468                 3.6144                 1.5504
 Frc consts  --      0.5606                 1.9118                 0.8483
 IR Inten    --      0.5904                 2.7369                 1.2697

                     40                     41                     42
                      A                      A                      A
 Frequencies --   1003.2623              1015.3298              1025.7632
 Red. masses --      1.1301                 1.3690                 5.3633
 Frc consts  --      0.6702                 0.8315                 3.3249
 IR Inten    --     56.9744                 3.2646                 1.1871

                     43                     44                     45
                      A                      A                      A
 Frequencies --   1034.2874              1046.3538              1066.3926
 Red. masses --      1.3264                 2.7040                 2.2121
 Frc consts  --      0.8360                 1.7443                 1.4822
 IR Inten    --      0.7008                83.2557                12.0156

                     46                     47                     48
                      A                      A                      A
 Frequencies --   1075.2215              1088.9032              1114.1473
 Red. masses --      4.2780                 1.3734                 1.2714
 Frc consts  --      2.9140                 0.9594                 0.9299
 IR Inten    --     29.1943                17.7968                81.7183

                     49                     50                     51
                      A                      A                      A
 Frequencies --   1125.8156              1132.0935              1171.0225
 Red. masses --      1.5725                 1.2299                 1.4262
 Frc consts  --      1.1743                 0.9288                 1.1523
 IR Inten    --     11.2774                 0.6258                 5.4814

                     52                     53                     54
                      A                      A                      A
 Frequencies --   1186.2933              1192.6752              1219.3926
 Red. masses --      1.1554                 2.8533                 1.1292
 Frc consts  --      0.9580                 2.3913                 0.9893
 IR Inten    --      1.1879                54.6634                 4.3032

                     55                     56                     57
                      A                      A                      A
 Frequencies --   1223.7268              1247.8314              1315.9029
 Red. masses --      3.0762                 1.4362                 5.2245
 Frc consts  --      2.7141                 1.3175                 5.3302
 IR Inten    --    279.4243                52.8128                37.4777

                     58                     59                     60
                      A                      A                      A
 Frequencies --   1321.1681              1363.1629              1369.7391
 Red. masses --      4.6180                 1.4301                 1.2746
 Frc consts  --      4.7492                 1.5657                 1.4089
 IR Inten    --     20.2276                 3.4657                36.2505

                     61                     62                     63
                      A                      A                      A
 Frequencies --   1434.2569              1445.5040              1447.0270
 Red. masses --      2.2097                 1.7162                 1.3865
 Frc consts  --      2.6782                 2.1128                 1.7104
 IR Inten    --    761.2150               103.6255                 3.6071

                     64                     65                     66
                      A                      A                      A
 Frequencies --   1466.9614              1473.7399              1484.1448
 Red. masses --      1.4619                 1.2255                 1.0841
 Frc consts  --      1.8536                 1.5682                 1.4069
 IR Inten    --     92.4285                50.0508                 5.6766

                     67                     68                     69
                      A                      A                      A
 Frequencies --   1489.9090              1491.8518              1492.1666
 Red. masses --      1.5191                 1.0953                 1.2746
 Frc consts  --      1.9869                 1.4362                 1.6721
 IR Inten    --     48.0587                23.0918                 9.2500

                     70                     71                     72
                      A                      A                      A
 Frequencies --   1501.4936              1504.9558              1536.2214
 Red. masses --      1.0537                 1.0376                 1.7637
 Frc consts  --      1.3996                 1.3846                 2.4523
 IR Inten    --     21.1242                 7.7253               225.2740

                     73                     74                     75
                      A                      A                      A
 Frequencies --   1546.4806              1610.5664              1650.0186
 Red. masses --      2.4320                 1.9150                 2.7219
 Frc consts  --      3.4269                 2.9266                 4.3661
 IR Inten    --     15.8455               657.2736                91.8235

                     76                     77                     78
                      A                      A                      A
 Frequencies --   1656.4676              1675.1281              3037.9901
 Red. masses --      2.7601                 5.8670                 1.0426
 Frc consts  --      4.4621                 9.6998                 5.6696
 IR Inten    --     77.9347                 1.1138                67.0606

                     79                     80                     81
                      A                      A                      A
 Frequencies --   3044.5497              3073.5525              3101.2199
 Red. masses --      1.0385                 1.0353                 1.1034
 Frc consts  --      5.6718                 5.7621                 6.2522
 IR Inten    --    106.6219                42.6529                58.7780

                     82                     83                     84
                      A                      A                      A
 Frequencies --   3111.6204              3152.4057              3174.9082
 Red. masses --      1.0970                 1.1023                 1.0992
 Frc consts  --      6.2580                 6.4543                 6.5280
 IR Inten    --     22.6511                15.1294                11.4163

                     85                     86                     87
                      A                      A                      A
 Frequencies --   3175.3469              3176.1038              3200.4741
 Red. masses --      1.1007                 1.1053                 1.0862
 Frc consts  --      6.5386                 6.5695                 6.5555
 IR Inten    --     10.0036                15.4380                 0.2768

                     88                     89                     90
                      A                      A                      A
 Frequencies --   3208.8434              3217.9593              3226.0651
 Red. masses --      1.0895                 1.0937                 1.0981
 Frc consts  --      6.6098                 6.6729                 6.7332
 IR Inten    --      6.5837                20.6716                17.3950

                     91                     92                     93
                      A                      A                      A
 Frequencies --   3253.1785              3415.1223              3575.5301
 Red. masses --      1.0919                 1.0623                 1.0865
 Frc consts  --      6.8083                 7.3000                 8.1839
 IR Inten    --     13.5234               159.8009                87.6186

 - Thermochemistry -
 -------------------
 Temperature   298.150 Kelvin.  Pressure   1.00000 Atm.
 Atom     1 has atomic number  6 and mass  12.00000

 Molecular mass:   361.96294 amu.
 Principal axes and moments of inertia in atomic units:
                           1         2         3
     Eigenvalues --  4684.140517013.010258848.02749
           X            0.99933   0.03243  -0.01691
           Y           -0.03071   0.99512   0.09380
           Z            0.01987  -0.09322   0.99545
 This molecule is an asymmetric top.
 Rotational symmetry number  1.
 Warning -- assumption of classical behavior for rotation
           may cause significant error
 Rotational temperatures (Kelvin)      0.01849     0.01235     0.00979
 Rotational constants (GHZ):           0.38529     0.25734     0.20397
    1 imaginary frequencies ignored.
 Zero-point vibrational energy     698284.9 (Joules/Mol)
                                  166.89409 (Kcal/Mol)
 Warning -- explicit consideration of  27 degrees of freedom as
           vibrations may cause significant error
 Vibrational temperatures:     53.60    76.10    92.19   101.06   134.46
          (Kelvin)            153.31   174.02   193.39   211.91   226.61
                              229.50   252.29   279.39   305.33   324.66
                              361.44   375.48   389.08   412.95   442.63
                              542.16   602.71   611.57   684.17   745.41
                              792.04   864.92   919.65   956.78   977.83
                             1040.49  1072.04  1124.67  1162.35  1197.92
                             1256.89  1363.25  1386.51  1443.47  1460.83
                             1475.84  1488.11  1505.47  1534.30  1547.00
                             1566.69  1603.01  1619.80  1628.83  1684.84
                             1706.81  1715.99  1754.43  1760.67  1795.35
                             1893.29  1900.87  1961.29  1970.75  2063.58
                             2079.76  2081.95  2110.63  2120.38  2135.35
                             2143.65  2146.44  2146.89  2160.31  2165.30
                             2210.28  2225.04  2317.25  2374.01  2383.29
                             2410.14  4370.99  4380.43  4422.16  4461.96
                             4476.93  4535.61  4567.98  4568.62  4569.71
                             4604.77  4616.81  4629.93  4641.59  4680.60
                             4913.60  5144.39

 Zero-point correction=                           0.265963 (Hartree/Particle)
 Thermal correction to Energy=                    0.284531
 Thermal correction to Enthalpy=                  0.285475
 Thermal correction to Gibbs Free Energy=         0.217868
 Sum of electronic and zero-point Energies=          -5799.788907
 Sum of electronic and thermal Energies=             -5799.770339
 Sum of electronic and thermal Enthalpies=           -5799.769395
 Sum of electronic and thermal Free Energies=        -5799.837002

                     E (Thermal)             CV                S
                      KCal/Mol        Cal/Mol-Kelvin    Cal/Mol-Kelvin
 Total                  178.546             66.207            142.291
 Electronic               0.000              0.000              0.000
 Translational            0.889              2.981             43.552
 Rotational               0.889              2.981             34.029
 Vibrational            176.768             60.246             64.709
 Vibration     1          0.594              1.982              5.400
 Vibration     2          0.596              1.976              4.706
 Vibration     3          0.597              1.971              4.328
 Vibration     4          0.598              1.968              4.147
 Vibration     5          0.602              1.954              3.586
 Vibration     6          0.605              1.944              3.331
 Vibration     7          0.609              1.932              3.085
 Vibration     8          0.613              1.919              2.882
 Vibration     9          0.617              1.906              2.707
 Vibration    10          0.621              1.894              2.580
 Vibration    11          0.621              1.892              2.556
 Vibration    12          0.627              1.873              2.377
 Vibration    13          0.635              1.848              2.187
 Vibration    14          0.643              1.822              2.025
 Vibration    15          0.650              1.802              1.913
 Vibration    16          0.663              1.761              1.722
 Vibration    17          0.669              1.744              1.655
 Vibration    18          0.674              1.728              1.594
 Vibration    19          0.684              1.698              1.492
 Vibration    20          0.698              1.659              1.375
 Vibration    21          0.747              1.520              1.052
 Vibration    22          0.782              1.429              0.896
 Vibration    23          0.787              1.416              0.875
 Vibration    24          0.832              1.304              0.722
 Vibration    25          0.873              1.210              0.614
 Vibration    26          0.906              1.139              0.543
 Vibration    27          0.959              1.029              0.448

 Optimization completed.
    -- Stationary point found.
 Normal termination of Gaussian 16 at Sun Mar 28 18:10:57 2021.
