 Gaussian 16, Revision A.03,
 Gaussian 16:  ES64L-G16RevA.03 25-Dec-2016

 ----------------------------------------------------------------------
 # wB97XD def2tzvp, opt=(ts, noeigen, calcfc, maxcycles=70, maxstep=3),
  freq=noraman, scrf=(iefpcm, solvent=water)
 ----------------------------------------------------------------------

 ------------------------
 0_iteration/TS-170-0.out
 ------------------------
 Symbolic Z-matrix:
 Charge =  0 Multiplicity = 1

 SCF Done:  E(RwB97XD) =  -1017.76189401     A.U. after   15 cycles
 SCF Done:  E(RwB97XD) =  -1017.76178924     A.U. after   12 cycles
 SCF Done:  E(RwB97XD) =  -1017.76171514     A.U. after   12 cycles
 SCF Done:  E(RwB97XD) =  -1017.76167437     A.U. after   11 cycles
 SCF Done:  E(RwB97XD) =  -1017.76170308     A.U. after   12 cycles
 SCF Done:  E(RwB97XD) =  -1017.76180636     A.U. after   11 cycles
 SCF Done:  E(RwB97XD) =  -1017.76194089     A.U. after   12 cycles
 SCF Done:  E(RwB97XD) =  -1017.76206589     A.U. after   12 cycles
 SCF Done:  E(RwB97XD) =  -1017.76220781     A.U. after   12 cycles
 SCF Done:  E(RwB97XD) =  -1017.76235247     A.U. after   12 cycles
 SCF Done:  E(RwB97XD) =  -1017.76386140     A.U. after   12 cycles
 SCF Done:  E(RwB97XD) =  -1017.76386473     A.U. after   12 cycles
 SCF Done:  E(RwB97XD) =  -1017.76386176     A.U. after   11 cycles
 SCF Done:  E(RwB97XD) =  -1017.76385867     A.U. after   11 cycles
 SCF Done:  E(RwB97XD) =  -1017.76386989     A.U. after   11 cycles
 SCF Done:  E(RwB97XD) =  -1017.76387166     A.U. after    9 cycles
 SCF Done:  E(RwB97XD) =  -1017.76387227     A.U. after    9 cycles
 SCF Done:  E(RwB97XD) =  -1017.76387234     A.U. after    7 cycles
 SCF Done:  E(RwB97XD) =  -1017.76387242     A.U. after    7 cycles
 Optimization completed.
    -- Stationary point found.
 Normal termination of Gaussian 16 at Sun Mar 28 09:20:17 2021.

 ---------------------------------------------------------------------
 #N Geom=AllCheck Guess=TCheck SCRF=Check GenChk RwB97XD/def2TZVP Freq
 ---------------------------------------------------------------------

 Structure from the checkpoint file:  "/beegfs/scratch/user/q/tla25/Gau-41269.chk"
 ------------------------
 0_iteration/TS-170-0.out
 ------------------------
 Charge =  0 Multiplicity = 1

                         Standard orientation:
 ---------------------------------------------------------------------
 Center     Atomic      Atomic             Coordinates (Angstroms)
 Number     Number       Type             X           Y           Z
 ---------------------------------------------------------------------
      1          6           0        1.187713   -0.627812   -0.695309
      2          6           0        2.605355   -0.676642   -0.803635
      3          8           0        3.155667   -1.553216   -1.489497
      4          6           0        0.343355    0.271425   -0.028789
      5          6           0        0.502333   -1.252425    2.287687
      6          1           0        1.128804   -1.827106    1.603068
      7          1           0        0.912143   -1.312322    3.294110
      8          1           0       -0.506539   -1.655586    2.282059
      9          7           0        0.478890    0.129756    1.820125
     10          1           0       -0.287605    0.659824    2.221882
     11          1           0        1.338364    0.611127    2.059219
     12          6           0       -1.141335    0.062014   -0.200618
     13          6           0       -2.042422    1.116244   -0.312618
     14          6           0       -3.402439    0.877101   -0.448863
     15          6           0       -3.888740   -0.419259   -0.465269
     16          6           0       -3.001214   -1.478648   -0.343854
     17          6           0       -1.643849   -1.241798   -0.212498
     18          1           0       -1.687264    2.136049   -0.302473
     19          1           0       -4.081407    1.714838   -0.543033
     20          1           0       -4.949946   -0.604691   -0.570132
     21          1           0       -3.364942   -2.498092   -0.349255
     22          1           0       -0.974039   -2.084153   -0.112653
     23         17           0        0.808970    2.023874   -0.083225
     24          1           0        0.688910   -1.444844   -1.197377
     25          6           0        3.510669    0.319388   -0.103061
     26          1           0        3.145416    0.644945    0.869267
     27          1           0        4.491249   -0.137623    0.018581
     28          1           0        3.620240    1.211689   -0.722361
 ---------------------------------------------------------------------

 SCF Done:  E(RwB97XD) =  -1017.76387242     A.U. after    2 cycles

 The electronic state is 1-A.
 Alpha  occ. eigenvalues -- -101.69664 -19.19769 -14.50603 -10.41197 -10.35038
 Alpha  occ. eigenvalues --  -10.32218 -10.31723 -10.29936 -10.29754 -10.29621
 Alpha  occ. eigenvalues --  -10.29573 -10.29525 -10.27171 -10.25100  -9.58295
 Alpha  occ. eigenvalues --   -7.32908  -7.32088  -7.32052  -1.10401  -1.06236
 Alpha  occ. eigenvalues --   -0.98738  -0.95807  -0.88171  -0.85924  -0.84846
 Alpha  occ. eigenvalues --   -0.81262  -0.79965  -0.73958  -0.71174  -0.67869
 Alpha  occ. eigenvalues --   -0.65113  -0.61781  -0.60957  -0.58759  -0.56588
 Alpha  occ. eigenvalues --   -0.55740  -0.55643  -0.54009  -0.52353  -0.51697
 Alpha  occ. eigenvalues --   -0.51106  -0.50151  -0.48899  -0.48407  -0.47281
 Alpha  occ. eigenvalues --   -0.46141  -0.44797  -0.44118  -0.43105  -0.42551
 Alpha  occ. eigenvalues --   -0.39762  -0.39482  -0.34457  -0.34404  -0.31824
 Alpha  occ. eigenvalues --   -0.27963
 Alpha virt. eigenvalues --    0.01709   0.04571   0.07100   0.08013   0.09859
 Alpha virt. eigenvalues --    0.12888   0.13723   0.14234   0.15026   0.16675
 Alpha virt. eigenvalues --    0.16753   0.17493   0.18218   0.18459   0.19303

 Mulliken charges:
               1
     1  C   -0.422637
     2  C    0.226246
     3  O   -0.531136
     4  C    0.287768
     5  C   -0.305328
     6  H    0.160359
     7  H    0.168736
     8  H    0.168726
     9  N   -0.270557
    10  H    0.298620
    11  H    0.282712
    12  C    0.108429
    13  C   -0.249917
    14  C   -0.121570
    15  C   -0.149619
    16  C   -0.135597
    17  C   -0.304944
    18  H    0.145665
    19  H    0.147268
    20  H    0.147637
    21  H    0.147243
    22  H    0.185477
    23  Cl  -0.129169
    24  H    0.126963
    25  C   -0.341136
    26  H    0.091234
    27  H    0.125001
    28  H    0.143528
 Sum of Mulliken charges =  -0.00000

 Dipole moment (field-independent basis, Debye):
    X=             -6.6350    Y=              2.5219    Z=              9.4777  Tot=             11.8410
 Quadrupole moment (field-independent basis, Debye-Ang):
   XX=            -98.7029   YY=            -92.0717   ZZ=            -87.7836
   XY=             12.7976   XZ=             16.0318   YZ=             -6.7186

  Exact polarizability: 273.044 -12.438 220.514 -14.547   9.837 172.261
 Approx polarizability: 201.753  -8.767 190.484  -8.348   8.582 146.848

 ******    1 imaginary frequencies (negative Signs) ******

                      1                      2                      3
                      A                      A                      A
 Frequencies --   -353.2016                40.7938                64.8751
 Red. masses --      5.5414                 3.5417                 2.8929
 Frc consts  --      0.4073                 0.0035                 0.0072
 IR Inten    --    725.4635                 1.7641                 2.5350

                      4                      5                      6
                      A                      A                      A
 Frequencies --     76.4605                94.3492               117.0530
 Red. masses --      4.9135                 3.9881                 4.7143
 Frc consts  --      0.0169                 0.0209                 0.0381
 IR Inten    --      5.0795                 3.4390                11.1399

                      7                      8                      9
                      A                      A                      A
 Frequencies --    150.3050               182.1058               204.7442
 Red. masses --      2.1070                 1.0644                 1.5074
 Frc consts  --      0.0280                 0.0208                 0.0372
 IR Inten    --     13.4342                 0.2459                 5.8428

                     10                     11                     12
                      A                      A                      A
 Frequencies --    212.8695               241.5882               268.8151
 Red. masses --      3.1187                 5.7449                 3.8149
 Frc consts  --      0.0833                 0.1976                 0.1624
 IR Inten    --      1.3637                 1.5453                 5.7005

                     13                     14                     15
                      A                      A                      A
 Frequencies --    289.7905               321.3641               353.2486
 Red. masses --      4.2416                 3.6169                 5.8874
 Frc consts  --      0.2099                 0.2201                 0.4329
 IR Inten    --      2.9032                48.1021                14.8001

                     16                     17                     18
                      A                      A                      A
 Frequencies --    372.6008               425.2158               462.2437
 Red. masses --      8.2274                 2.9287                 4.3059
 Frc consts  --      0.6730                 0.3120                 0.5421
 IR Inten    --     12.0060                 0.6239                44.9100

                     19                     20                     21
                      A                      A                      A
 Frequencies --    529.9962               577.7432               595.7594
 Red. masses --      3.3558                 2.1280                 2.6787
 Frc consts  --      0.5554                 0.4185                 0.5602
 IR Inten    --     43.1670                49.6485                85.3856

                     22                     23                     24
                      A                      A                      A
 Frequencies --    635.0683               641.2754               666.7751
 Red. masses --      4.5932                 3.3768                 3.1326
 Frc consts  --      1.0915                 0.8182                 0.8206
 IR Inten    --      5.7845                 1.1159                40.6338

                     25                     26                     27
                      A                      A                      A
 Frequencies --    721.9062               727.3675               756.8386
 Red. masses --      1.7832                 1.5959                 1.9700
 Frc consts  --      0.5475                 0.4975                 0.6649
 IR Inten    --     42.9493               113.8605               182.9966

                     28                     29                     30
                      A                      A                      A
 Frequencies --    806.0101               851.7232               880.1082
 Red. masses --      2.1561                 3.6679                 1.2531
 Frc consts  --      0.8253                 1.5677                 0.5719
 IR Inten    --     16.9651                40.8212                 0.4936

                     31                     32                     33
                      A                      A                      A
 Frequencies --    905.0850               970.0570              1020.0384
 Red. masses --      3.5371                 1.4165                 1.3618
 Frc consts  --      1.7072                 0.7853                 0.8349
 IR Inten    --     47.6596                 4.5487                31.6692

                     34                     35                     36
                      A                      A                      A
 Frequencies --   1022.3883              1025.1980              1031.4573
 Red. masses --      1.4233                 3.4251                 1.4686
 Frc consts  --      0.8765                 2.1210                 0.9206
 IR Inten    --     13.0707                 5.4604                49.1484

                     37                     38                     39
                      A                      A                      A
 Frequencies --   1037.3676              1040.5877              1068.0426
 Red. masses --      1.3611                 1.7599                 2.0490
 Frc consts  --      0.8630                 1.1228                 1.3771
 IR Inten    --      1.2599                25.0336                14.4853

                     40                     41                     42
                      A                      A                      A
 Frequencies --   1073.9047              1080.6783              1122.3908
 Red. masses --      1.5162                 2.6388                 1.5900
 Frc consts  --      1.0302                 1.8157                 1.1802
 IR Inten    --     19.7324               114.7868                43.6947

                     43                     44                     45
                      A                      A                      A
 Frequencies --   1188.7653              1202.0126              1222.1663
 Red. masses --      1.1291                 2.7215                 1.1617
 Frc consts  --      0.9401                 2.3168                 1.0223
 IR Inten    --      1.2492               260.9622                 8.4799

                     46                     47                     48
                      A                      A                      A
 Frequencies --   1244.5116              1258.5613              1316.0796
 Red. masses --      1.4527                 2.2514                 2.2674
 Frc consts  --      1.3256                 2.1011                 2.3139
 IR Inten    --     34.9795               182.4268               238.4513

                     49                     50                     51
                      A                      A                      A
 Frequencies --   1334.8069              1337.4220              1365.1277
 Red. masses --      2.4691                 1.6237                 1.4187
 Frc consts  --      2.5920                 1.7112                 1.5577
 IR Inten    --     86.5642                22.2947                15.3249

                     52                     53                     54
                      A                      A                      A
 Frequencies --   1395.8790              1452.2539              1457.7349
 Red. masses --      1.4086                 1.2381                 1.1116
 Frc consts  --      1.6171                 1.5385                 1.3917
 IR Inten    --     87.4001               196.2677               108.5697

                     55                     56                     57
                      A                      A                      A
 Frequencies --   1475.5122              1487.1700              1494.1394
 Red. masses --      1.7219                 1.3357                 1.6070
 Frc consts  --      2.2087                 1.7405                 2.1137
 IR Inten    --    389.9347               123.8138               159.0469

                     58                     59                     60
                      A                      A                      A
 Frequencies --   1497.6726              1502.2894              1544.4232
 Red. masses --      1.2986                 1.0583                 2.2760
 Frc consts  --      1.7161                 1.4073                 3.1986
 IR Inten    --     75.1884                44.9072                 7.7666

                     61                     62                     63
                      A                      A                      A
 Frequencies --   1620.8494              1637.1421              1651.8682
 Red. masses --      7.2156                 1.1067                 5.6511
 Frc consts  --     11.1689                 1.7477                 9.0851
 IR Inten    --   1078.1008                47.2233                 5.4738

                     64                     65                     66
                      A                      A                      A
 Frequencies --   1674.3866              3068.6717              3070.9294
 Red. masses --      5.8722                 1.0362                 1.0378
 Frc consts  --      9.6999                 5.7492                 5.7662
 IR Inten    --      0.6233                27.3808                10.1762

                     67                     68                     69
                      A                      A                      A
 Frequencies --   3144.8650              3151.4824              3166.9290
 Red. masses --      1.0984                 1.1013                 1.1026
 Frc consts  --      6.4004                 6.4445                 6.5153
 IR Inten    --     19.3859                 2.3921                44.3441

                     70                     71                     72
                      A                      A                      A
 Frequencies --   3183.9523              3200.7213              3209.5787
 Red. masses --      1.1057                 1.0865                 1.0897
 Frc consts  --      6.6043                 6.5581                 6.6140
 IR Inten    --      9.0203                 0.0305                14.3163

                     73                     74                     75
                      A                      A                      A
 Frequencies --   3213.1702              3221.9644              3234.6352
 Red. masses --      1.0882                 1.0952                 1.0928
 Frc consts  --      6.6192                 6.6988                 6.7366
 IR Inten    --      3.8086                22.2410                 8.8895

                     76                     77                     78
                      A                      A                      A
 Frequencies --   3240.5355              3517.1211              3597.6363
 Red. masses --      1.0931                 1.0516                 1.0964
 Frc consts  --      6.7631                 7.6643                 8.3608
 IR Inten    --      3.5317                54.2521                68.2668

 - Thermochemistry -
 -------------------
 Temperature   298.150 Kelvin.  Pressure   1.00000 Atm.
 Atom     1 has atomic number  6 and mass  12.00000

 Molecular mass:   211.07639 amu.
 Principal axes and moments of inertia in atomic units:
                           1         2         3
     Eigenvalues --  1834.478354520.148564941.02035
           X            0.99989   0.00654   0.01334
           Y           -0.00573   0.99821  -0.05945
           Z           -0.01371   0.05937   0.99814
 This molecule is an asymmetric top.
 Rotational symmetry number  1.
 Warning -- assumption of classical behavior for rotation
           may cause significant error
 Rotational temperatures (Kelvin)      0.04721     0.01916     0.01753
 Rotational constants (GHZ):           0.98379     0.39927     0.36526
    1 imaginary frequencies ignored.
 Zero-point vibrational energy     605604.4 (Joules/Mol)
                                  144.74294 (Kcal/Mol)
 Warning -- explicit consideration of  20 degrees of freedom as
           vibrations may cause significant error
 Vibrational temperatures:     58.69    93.34   110.01   135.75   168.41
          (Kelvin)            216.26   262.01   294.58   306.27   347.59
                              386.77   416.94   462.37   508.25   536.09
                              611.79   665.07   762.55   831.24   857.16
                              913.72   922.65   959.34  1038.66  1046.52
                             1088.92  1159.67  1225.44  1266.28  1302.22
                             1395.70  1467.61  1470.99  1475.03  1484.04
                             1492.54  1497.17  1536.68  1545.11  1554.85
                             1614.87  1710.37  1729.43  1758.42  1790.57
                             1810.79  1893.54  1920.49  1924.25  1964.11
                             2008.36  2089.47  2097.36  2122.93  2139.71
                             2149.73  2154.82  2161.46  2222.08  2332.04
                             2355.48  2376.67  2409.07  4415.13  4418.38
                             4524.76  4534.28  4556.50  4581.00  4605.12
                             4617.87  4623.04  4635.69  4653.92  4662.41
                             5060.35  5176.20

 Zero-point correction=                           0.230663 (Hartree/Particle)
 Thermal correction to Energy=                    0.244743
 Thermal correction to Enthalpy=                  0.245687
 Thermal correction to Gibbs Free Energy=         0.189254
 Sum of electronic and zero-point Energies=          -1017.533210
 Sum of electronic and thermal Energies=             -1017.519129
 Sum of electronic and thermal Enthalpies=           -1017.518185
 Sum of electronic and thermal Free Energies=        -1017.574618

                     E (Thermal)             CV                S
                      KCal/Mol        Cal/Mol-Kelvin    Cal/Mol-Kelvin
 Total                  153.579             52.536            118.773
 Electronic               0.000              0.000              0.000
 Translational            0.889              2.981             41.945
 Rotational               0.889              2.981             32.083
 Vibrational            151.801             46.574             44.745
 Vibration     1          0.594              1.981              5.220
 Vibration     2          0.597              1.971              4.303
 Vibration     3          0.599              1.965              3.980
 Vibration     4          0.603              1.953              3.568
 Vibration     5          0.608              1.935              3.148
 Vibration     6          0.618              1.902              2.668
 Vibration     7          0.630              1.864              2.307
 Vibration     8          0.640              1.833              2.090
 Vibration     9          0.644              1.821              2.019
 Vibration    10          0.658              1.777              1.791
 Vibration    11          0.673              1.731              1.604
 Vibration    12          0.686              1.693              1.475
 Vibration    13          0.707              1.633              1.303
 Vibration    14          0.729              1.569              1.152
 Vibration    15          0.744              1.528              1.069
 Vibration    16          0.787              1.415              0.874
 Vibration    17          0.820              1.334              0.760
 Vibration    18          0.885              1.184              0.587
 Vibration    19          0.934              1.079              0.490
 Vibration    20          0.954              1.041              0.457

 Optimization completed.
    -- Stationary point found.
 Normal termination of Gaussian 16 at Sun Mar 28 10:08:24 2021.
