 Gaussian 16, Revision A.03,
 Gaussian 16:  ES64L-G16RevA.03 25-Dec-2016

 ----------------------------------------------------------------------
 # wB97XD def2tzvp, opt=(ts, noeigen, calcfc, maxcycles=70, maxstep=3),
  freq=noraman, scrf=(iefpcm, solvent=water)
 ----------------------------------------------------------------------

 -----------------------
 0_iteration/TS-18-0.out
 -----------------------
 Symbolic Z-matrix:
 Charge =  0 Multiplicity = 1

 SCF Done:  E(RwB97XD) =  -828.520324107     A.U. after   15 cycles
 SCF Done:  E(RwB97XD) =  -828.520591598     A.U. after   12 cycles
 SCF Done:  E(RwB97XD) =  -828.520815679     A.U. after   12 cycles
 SCF Done:  E(RwB97XD) =  -828.520945115     A.U. after   12 cycles
 SCF Done:  E(RwB97XD) =  -828.521004338     A.U. after   11 cycles
 SCF Done:  E(RwB97XD) =  -828.521032164     A.U. after   10 cycles
 SCF Done:  E(RwB97XD) =  -828.521049918     A.U. after   10 cycles
 SCF Done:  E(RwB97XD) =  -828.521040897     A.U. after   12 cycles
 SCF Done:  E(RwB97XD) =  -828.521042584     A.U. after   10 cycles
 SCF Done:  E(RwB97XD) =  -828.521052592     A.U. after   10 cycles
 SCF Done:  E(RwB97XD) =  -828.521048486     A.U. after   12 cycles
 SCF Done:  E(RwB97XD) =  -828.521060318     A.U. after   10 cycles
 SCF Done:  E(RwB97XD) =  -828.521061026     A.U. after    7 cycles
 SCF Done:  E(RwB97XD) =  -828.521061005     A.U. after    6 cycles
 Optimization completed.
    -- Stationary point found.
 Normal termination of Gaussian 16 at Tue Apr 13 13:11:31 2021.

 ---------------------------------------------------------------------
 #N Geom=AllCheck Guess=TCheck SCRF=Check GenChk RwB97XD/def2TZVP Freq
 ---------------------------------------------------------------------

 Structure from the checkpoint file:  "/beegfs/scratch/user/q/tla25/Gau-91896.chk"
 -----------------------
 0_iteration/TS-18-0.out
 -----------------------
 Charge =  0 Multiplicity = 1

                         Standard orientation:
 ---------------------------------------------------------------------
 Center     Atomic      Atomic             Coordinates (Angstroms)
 Number     Number       Type             X           Y           Z
 ---------------------------------------------------------------------
      1          6           0        0.317716   -1.461556   -0.641517
      2          6           0        1.556055   -2.067530   -0.335353
      3          8           0        2.331093   -1.657255    0.566205
      4          6           0       -0.028357   -0.253009    0.045852
      5          6           0       -0.395797   -2.011305    2.314271
      6          1           0       -0.384471   -2.668181    1.440445
      7          1           0        0.230311   -2.457817    3.087152
      8          1           0       -1.411568   -1.916652    2.688914
      9          7           0        0.122875   -0.711975    1.913589
     10          1           0       -0.186288    0.030810    2.524431
     11          1           0        1.141519   -0.755734    1.874666
     12          6           0       -1.450441    0.234048   -0.098917
     13          6           0       -1.733496    1.467060   -0.680899
     14          6           0       -3.043865    1.892811   -0.852253
     15          6           0       -4.097431    1.097889   -0.433035
     16          6           0       -3.830101   -0.137534    0.141395
     17          6           0       -2.523127   -0.565590    0.294705
     18          1           0       -0.926819    2.104775   -1.014844
     19          1           0       -3.236065    2.853302   -1.313471
     20          1           0       -5.119298    1.432830   -0.557897
     21          1           0       -4.643350   -0.775322    0.463881
     22          1           0       -2.338742   -1.546075    0.708054
     23          6           0        0.974348    0.888727    0.053661
     24          6           0        0.912987    1.920922    0.988701
     25          6           0        1.785575    2.996011    0.930399
     26          6           0        2.730050    3.072642   -0.082182
     27          6           0        2.783022    2.068013   -1.036691
     28          6           0        1.911346    0.992339   -0.969229
     29          1           0        0.158622    1.915441    1.764976
     30          1           0        1.717889    3.780445    1.673534
     31          1           0        3.410187    3.913427   -0.132955
     32          1           0        3.504856    2.121178   -1.842168
     33          1           0        1.950558    0.215271   -1.720490
     34          6           0       -0.639707   -2.152161   -1.588719
     35          1           0       -0.106463   -2.537017   -2.460162
     36          1           0       -1.170525   -3.002186   -1.143661
     37          1           0       -1.396445   -1.466674   -1.967049
     38          6           0        1.958091   -3.326422   -1.081363
     39          1           0        2.906130   -3.688424   -0.688029
     40          1           0        1.203978   -4.109135   -0.971560
     41          1           0        2.065903   -3.134518   -2.151508
 ---------------------------------------------------------------------

 SCF Done:  E(RwB97XD) =  -828.521061005     A.U. after    1 cycles

 The electronic state is 1-A.
 Alpha  occ. eigenvalues --  -19.19178 -14.47479 -10.35577 -10.33429 -10.31181
 Alpha  occ. eigenvalues --  -10.30549 -10.30234 -10.29258 -10.29242 -10.29221
 Alpha  occ. eigenvalues --  -10.29215 -10.29154 -10.29123 -10.29058 -10.28985
 Alpha  occ. eigenvalues --  -10.28895 -10.28721 -10.26547 -10.26514 -10.25044
 Alpha  occ. eigenvalues --   -1.09429  -1.03220  -0.97821  -0.96457  -0.91312
 Alpha  occ. eigenvalues --   -0.86428  -0.85448  -0.85098  -0.84893  -0.81085
 Alpha  occ. eigenvalues --   -0.78774  -0.77206  -0.72605  -0.71057  -0.70193
 Alpha  occ. eigenvalues --   -0.69710  -0.66462  -0.63701  -0.62076  -0.60616
 Alpha  occ. eigenvalues --   -0.57822  -0.56754  -0.55730  -0.55593  -0.54376
 Alpha  occ. eigenvalues --   -0.53893  -0.53471  -0.52327  -0.52032  -0.51261
 Alpha  occ. eigenvalues --   -0.50561  -0.50213  -0.49296  -0.47905  -0.47660
 Alpha  occ. eigenvalues --   -0.47281  -0.46841  -0.45911  -0.45102  -0.44804
 Alpha  occ. eigenvalues --   -0.43773  -0.43667  -0.42247  -0.41641  -0.41523
 Alpha  occ. eigenvalues --   -0.40772  -0.34536  -0.33853  -0.33557  -0.32799
 Alpha  occ. eigenvalues --   -0.30832  -0.25919
 Alpha virt. eigenvalues --    0.01630   0.04461   0.04767   0.06234   0.08422
 Alpha virt. eigenvalues --    0.10422   0.11892   0.13167   0.13580   0.14316
 Alpha virt. eigenvalues --    0.14858   0.15466   0.15840   0.16674   0.17146

 Mulliken charges:
               1
     1  C   -0.398816
     2  C    0.297542
     3  O   -0.595685
     4  C    0.582606
     5  C   -0.335313
     6  H    0.153982
     7  H    0.157273
     8  H    0.164912
     9  N   -0.300403
    10  H    0.268063
    11  H    0.278732
    12  C   -0.000706
    13  C   -0.213933
    14  C   -0.149375
    15  C   -0.146988
    16  C   -0.130216
    17  C   -0.279280
    18  H    0.163654
    19  H    0.141707
    20  H    0.144145
    21  H    0.141881
    22  H    0.175766
    23  C    0.096359
    24  C   -0.291958
    25  C   -0.144135
    26  C   -0.135453
    27  C   -0.164834
    28  C   -0.179960
    29  H    0.147116
    30  H    0.141672
    31  H    0.143109
    32  H    0.139532
    33  H    0.150387
    34  C   -0.390284
    35  H    0.131846
    36  H    0.120505
    37  H    0.140456
    38  C   -0.422619
    39  H    0.119688
    40  H    0.138690
    41  H    0.140334
 Sum of Mulliken charges =  -0.00000

 Dipole moment (field-independent basis, Debye):
    X=             -5.0581    Y=              1.6318    Z=              2.5488  Tot=              5.8943
 Quadrupole moment (field-independent basis, Debye-Ang):
   XX=           -123.0165   YY=           -112.2712   ZZ=           -109.5788
   XY=              9.2960   XZ=             -7.5879   YZ=             -1.2313

  Exact polarizability: 340.998   0.088 326.332 -18.462   3.186 266.833
 Approx polarizability: 265.696   4.261 257.907 -13.532   0.902 229.450

 ******    1 imaginary frequencies (negative Signs) ******

                      1                      2                      3
                      A                      A                      A
 Frequencies --   -375.7493                32.2845                53.4089
 Red. masses --      5.3869                 3.7304                 3.8009
 Frc consts  --      0.4481                 0.0023                 0.0064
 IR Inten    --    431.5912                 0.8680                 1.9792

                      4                      5                      6
                      A                      A                      A
 Frequencies --     73.6312                83.6802                89.7387
 Red. masses --      4.4756                 3.5941                 3.1530
 Frc consts  --      0.0143                 0.0148                 0.0150
 IR Inten    --      0.8686                 0.4071                 3.9254

                      7                      8                      9
                      A                      A                      A
 Frequencies --    104.0772               125.4203               149.1857
 Red. masses --      2.9699                 2.8945                 1.1418
 Frc consts  --      0.0190                 0.0268                 0.0150
 IR Inten    --      6.7920                 1.3721                 0.9318

                     10                     11                     12
                      A                      A                      A
 Frequencies --    158.7175               169.3370               181.7656
 Red. masses --      1.4312                 3.4326                 2.2426
 Frc consts  --      0.0212                 0.0580                 0.0437
 IR Inten    --      1.7120                12.5973                 1.0559

                     13                     14                     15
                      A                      A                      A
 Frequencies --    212.5761               234.1490               263.3479
 Red. masses --      2.2449                 4.7942                 1.5902
 Frc consts  --      0.0598                 0.1549                 0.0650
 IR Inten    --     37.7164                13.1559                 0.1601

                     16                     17                     18
                      A                      A                      A
 Frequencies --    278.3222               282.6908               301.7590
 Red. masses --      2.7747                 4.1295                 4.5393
 Frc consts  --      0.1266                 0.1944                 0.2435
 IR Inten    --      0.3472                 5.9637                 4.0615

                     19                     20                     21
                      A                      A                      A
 Frequencies --    315.1651               351.2367               362.5324
 Red. masses --      2.7225                 3.7148                 3.4804
 Frc consts  --      0.1593                 0.2700                 0.2695
 IR Inten    --     16.8799                19.3757                 3.8024

                     22                     23                     24
                      A                      A                      A
 Frequencies --    387.7323               428.3049               433.3732
 Red. masses --      2.9114                 2.9064                 2.9237
 Frc consts  --      0.2579                 0.3141                 0.3235
 IR Inten    --      0.1688                 0.7454                 1.2182

                     25                     26                     27
                      A                      A                      A
 Frequencies --    477.1041               516.5671               566.3869
 Red. masses --      3.7084                 3.6160                 4.6882
 Frc consts  --      0.4973                 0.5685                 0.8861
 IR Inten    --     19.1038                 6.3884                29.3174

                     28                     29                     30
                      A                      A                      A
 Frequencies --    574.6467               610.9612               626.0673
 Red. masses --      2.8309                 3.2904                 2.3562
 Frc consts  --      0.5508                 0.7237                 0.5441
 IR Inten    --     14.9570                63.0115               102.9061

                     31                     32                     33
                      A                      A                      A
 Frequencies --    638.0706               638.9479               666.9227
 Red. masses --      6.0199                 6.0692                 3.5140
 Frc consts  --      1.4440                 1.4599                 0.9209
 IR Inten    --      0.2536                 4.0103                46.0918

                     34                     35                     36
                      A                      A                      A
 Frequencies --    698.2702               707.5679               730.0196
 Red. masses --      2.7749                 3.9204                 1.6021
 Frc consts  --      0.7972                 1.1564                 0.5030
 IR Inten    --     37.3196                72.5545                92.2573

                     37                     38                     39
                      A                      A                      A
 Frequencies --    731.5479               788.1125               802.3916
 Red. masses --      1.5641                 2.2967                 2.2474
 Frc consts  --      0.4932                 0.8405                 0.8525
 IR Inten    --     83.0475                57.8171                29.5552

                     40                     41                     42
                      A                      A                      A
 Frequencies --    846.9074               881.2281               884.0293
 Red. masses --      3.2174                 1.2484                 1.2432
 Frc consts  --      1.3597                 0.5712                 0.5724
 IR Inten    --      0.2114                 0.7392                 0.6030

                     43                     44                     45
                      A                      A                      A
 Frequencies --    930.3094               965.4849               971.6729
 Red. masses --      3.8846                 1.4746                 1.4627
 Frc consts  --      1.9809                 0.8099                 0.8137
 IR Inten    --     17.7565                 8.8633                 2.3903

                     46                     47                     48
                      A                      A                      A
 Frequencies --    990.3203              1008.5024              1020.3380
 Red. masses --      1.4883                 1.2143                 1.5138
 Frc consts  --      0.8600                 0.7277                 0.9285
 IR Inten    --    132.1181                82.4449                17.7465

                     49                     50                     51
                      A                      A                      A
 Frequencies --   1021.4541              1027.1490              1028.1697
 Red. masses --      1.4943                 3.9537                 3.7361
 Frc consts  --      0.9186                 2.4576                 2.3270
 IR Inten    --      3.7802                13.3291                 1.8015

                     52                     53                     54
                      A                      A                      A
 Frequencies --   1030.2251              1032.6440              1035.5117
 Red. masses --      1.5401                 1.4809                 1.4013
 Frc consts  --      0.9631                 0.9304                 0.8853
 IR Inten    --     22.7518                16.0531                 0.8384

                     55                     56                     57
                      A                      A                      A
 Frequencies --   1044.1522              1069.0457              1069.8599
 Red. masses --      1.9272                 2.0911                 1.9809
 Frc consts  --      1.2380                 1.4081                 1.3359
 IR Inten    --     29.4741                14.9208                 1.1248

                     58                     59                     60
                      A                      A                      A
 Frequencies --   1070.7297              1087.0432              1111.1958
 Red. masses --      1.4740                 3.4891                 1.3637
 Frc consts  --      0.9956                 2.4292                 0.9921
 IR Inten    --     13.1054                56.6827                24.3444

                     61                     62                     63
                      A                      A                      A
 Frequencies --   1123.1584              1125.4746              1138.6280
 Red. masses --      1.5178                 1.6243                 2.4635
 Frc consts  --      1.1281                 1.2122                 1.8818
 IR Inten    --     24.9934                 1.1750                 9.7627

                     64                     65                     66
                      A                      A                      A
 Frequencies --   1183.1256              1186.0000              1202.1515
 Red. masses --      1.1249                 1.1251                 2.2829
 Frc consts  --      0.9278                 0.9324                 1.9438
 IR Inten    --      0.0139                 0.5119                27.1809

                     67                     68                     69
                      A                      A                      A
 Frequencies --   1210.1056              1223.0120              1223.6289
 Red. masses --      1.6840                 1.1655                 1.1661
 Frc consts  --      1.4529                 1.0271                 1.0287
 IR Inten    --     33.7161                25.9458                 6.9647

                     70                     71                     72
                      A                      A                      A
 Frequencies --   1276.3763              1316.9528              1322.3071
 Red. masses --      4.0593                 4.6948                 4.6329
 Frc consts  --      3.8964                 4.7974                 4.7727
 IR Inten    --     29.9237                60.9777                 9.6240

                     73                     74                     75
                      A                      A                      A
 Frequencies --   1348.0856              1361.7013              1371.3457
 Red. masses --      4.7770                 1.5150                 1.4252
 Frc consts  --      5.1150                 1.6551                 1.5791
 IR Inten    --    118.1650                 9.6500                99.4626

                     76                     77                     78
                      A                      A                      A
 Frequencies --   1374.1342              1384.5975              1424.7070
 Red. masses --      1.4493                 1.2717                 2.7280
 Frc consts  --      1.6123                 1.4364                 3.2625
 IR Inten    --     26.8159                 3.2720               541.2578

                     79                     80                     81
                      A                      A                      A
 Frequencies --   1427.0665              1446.2433              1459.0466
 Red. masses --      1.3536                 1.1951                 1.1156
 Frc consts  --      1.6242                 1.4728                 1.3992
 IR Inten    --    105.0854                34.9642                63.3864

                     82                     83                     84
                      A                      A                      A
 Frequencies --   1474.4357              1489.2530              1492.9359
 Red. masses --      1.0510                 2.2319                 1.6126
 Frc consts  --      1.3462                 2.9165                 2.1176
 IR Inten    --     13.6157                33.5604                21.4391

                     85                     86                     87
                      A                      A                      A
 Frequencies --   1493.8219              1500.0358              1504.2278
 Red. masses --      1.2883                 1.0525                 1.0834
 Frc consts  --      1.6938                 1.3954                 1.4443
 IR Inten    --     35.1698                14.2494                92.6235

                     88                     89                     90
                      A                      A                      A
 Frequencies --   1507.8833              1542.7206              1547.8406
 Red. masses --      1.0435                 2.2246                 2.2086
 Frc consts  --      1.3979                 3.1195                 3.1176
 IR Inten    --     38.9957                18.0458                 5.6035

                     91                     92                     93
                      A                      A                      A
 Frequencies --   1570.8771              1622.3747              1650.5262
 Red. masses --      2.8333                 1.3948                 5.6278
 Frc consts  --      4.1193                 2.1630                 9.0330
 IR Inten    --    459.9351               115.7980                 0.1526

                     94                     95                     96
                      A                      A                      A
 Frequencies --   1653.9836              1673.7777              1676.9339
 Red. masses --      5.8030                 5.9010                 5.8156
 Frc consts  --      9.3533                 9.7403                 9.6355
 IR Inten    --      4.4463                 2.8047                 0.0727

                     97                     98                     99
                      A                      A                      A
 Frequencies --   3011.0532              3049.1062              3049.7668
 Red. masses --      1.0546                 1.0375                 1.0381
 Frc consts  --      5.6337                 5.6828                 5.6889
 IR Inten    --    119.9690                20.3413                47.5528

                    100                    101                    102
                      A                      A                      A
 Frequencies --   3086.6069              3114.4920              3120.1370
 Red. masses --      1.0846                 1.1001                 1.0997
 Frc consts  --      6.0881                 6.2872                 6.3080
 IR Inten    --     54.0216                17.3907                18.8066

                    103                    104                    105
                      A                      A                      A
 Frequencies --   3137.3001              3153.5845              3171.1984
 Red. masses --      1.0970                 1.1026                 1.1035
 Frc consts  --      6.3617                 6.4606                 6.5385
 IR Inten    --     38.0677                31.7374                18.7579

                    106                    107                    108
                      A                      A                      A
 Frequencies --   3194.3300              3196.8271              3201.2918
 Red. masses --      1.0856                 1.0862                 1.0885
 Frc consts  --      6.5265                 6.5405                 6.5723
 IR Inten    --      2.4245                 0.0768                 5.0966

                    109                    110                    111
                      A                      A                      A
 Frequencies --   3206.3824              3210.8949              3218.3043
 Red. masses --      1.0905                 1.0923                 1.0950
 Frc consts  --      6.6054                 6.6349                 6.6825
 IR Inten    --     14.0150                32.4627                27.8894

                    112                    113                    114
                      A                      A                      A
 Frequencies --   3219.4175              3224.9190              3228.3226
 Red. masses --      1.0945                 1.0973                 1.0946
 Frc consts  --      6.6836                 6.7240                 6.7216
 IR Inten    --     27.3206                11.9691                13.2474

                    115                    116                    117
                      A                      A                      A
 Frequencies --   3249.6329              3426.9056              3616.9801
 Red. masses --      1.0915                 1.0626                 1.0858
 Frc consts  --      6.7913                 7.3523                 8.3691
 IR Inten    --      7.7209                93.8714                79.8287

 - Thermochemistry -
 -------------------
 Temperature   298.150 Kelvin.  Pressure   1.00000 Atm.
 Atom     1 has atomic number  6 and mass  12.00000

 Molecular mass:   267.16231 amu.
 Principal axes and moments of inertia in atomic units:
                           1         2         3
     Eigenvalues --  4360.527035348.830497580.36326
           X            0.99991   0.01010  -0.00890
           Y           -0.01003   0.99992   0.00738
           Z            0.00897  -0.00729   0.99993
 This molecule is an asymmetric top.
 Rotational symmetry number  1.
 Warning -- assumption of classical behavior for rotation
           may cause significant error
 Rotational temperatures (Kelvin)      0.01986     0.01619     0.01143
 Rotational constants (GHZ):           0.41388     0.33741     0.23808
    1 imaginary frequencies ignored.
 Zero-point vibrational energy     918665.8 (Joules/Mol)
                                  219.56639 (Kcal/Mol)
 Warning -- explicit consideration of  28 degrees of freedom as
           vibrations may cause significant error
 Vibrational temperatures:     46.45    76.84   105.94   120.40   129.11
          (Kelvin)            149.74   180.45   214.64   228.36   243.64
                              261.52   305.85   336.89   378.90   400.44
                              406.73   434.16   453.45   505.35   521.60
                              557.86   616.24   623.53   686.45   743.22
                              814.90   826.79   879.04   900.77   918.04
                              919.30   959.55  1004.66  1018.03  1050.34
                             1052.53  1133.92  1154.46  1218.51  1267.89
                             1271.92  1338.51  1389.12  1398.02  1424.85
                             1451.01  1468.04  1469.64  1477.84  1479.31
                             1482.26  1485.74  1489.87  1502.30  1538.12
                             1539.29  1540.54  1564.01  1598.76  1615.97
                             1619.31  1638.23  1702.25  1706.39  1729.63
                             1741.07  1759.64  1760.53  1836.42  1894.80
                             1902.50  1939.59  1959.18  1973.06  1977.07
                             1992.13  2049.84  2053.23  2080.82  2099.24
                             2121.38  2142.70  2148.00  2149.28  2158.22
                             2164.25  2169.51  2219.63  2227.00  2260.14
                             2334.24  2374.74  2379.71  2408.19  2412.73
                             4332.23  4386.98  4387.93  4440.94  4481.06
                             4489.18  4513.88  4537.30  4562.65  4595.93
                             4599.52  4605.94  4613.27  4619.76  4630.42
                             4632.02  4639.94  4644.84  4675.50  4930.55
                             5204.03

 Zero-point correction=                           0.349901 (Hartree/Particle)
 Thermal correction to Energy=                    0.368655
 Thermal correction to Enthalpy=                  0.369599
 Thermal correction to Gibbs Free Energy=         0.303347
 Sum of electronic and zero-point Energies=           -828.171160
 Sum of electronic and thermal Energies=              -828.152406
 Sum of electronic and thermal Enthalpies=            -828.151462
 Sum of electronic and thermal Free Energies=         -828.217714

                     E (Thermal)             CV                S
                      KCal/Mol        Cal/Mol-Kelvin    Cal/Mol-Kelvin
 Total                  231.335             72.953            139.440
 Electronic               0.000              0.000              0.000
 Translational            0.889              2.981             42.647
 Rotational               0.889              2.981             33.535
 Vibrational            229.557             66.992             63.258
 Vibration     1          0.594              1.983              5.684
 Vibration     2          0.596              1.976              4.687
 Vibration     3          0.599              1.966              4.054
 Vibration     4          0.601              1.960              3.803
 Vibration     5          0.602              1.956              3.666
 Vibration     6          0.605              1.946              3.376
 Vibration     7          0.610              1.928              3.015
 Vibration     8          0.618              1.904              2.683
 Vibration     9          0.621              1.893              2.565
 Vibration    10          0.625              1.880              2.443
 Vibration    11          0.630              1.865              2.310
 Vibration    12          0.644              1.822              2.021
 Vibration    13          0.654              1.789              1.847
 Vibration    14          0.670              1.740              1.639
 Vibration    15          0.679              1.714              1.544
 Vibration    16          0.682              1.706              1.517
 Vibration    17          0.694              1.670              1.407
 Vibration    18          0.703              1.645              1.335
 Vibration    19          0.728              1.573              1.161
 Vibration    20          0.736              1.549              1.111
 Vibration    21          0.756              1.496              1.009
 Vibration    22          0.790              1.409              0.864
 Vibration    23          0.794              1.398              0.848
 Vibration    24          0.834              1.301              0.718
 Vibration    25          0.872              1.213              0.618
 Vibration    26          0.922              1.104              0.511
 Vibration    27          0.931              1.086              0.495
 Vibration    28          0.970              1.009              0.431

 Optimization completed.
    -- Stationary point found.
 Normal termination of Gaussian 16 at Tue Apr 13 14:31:14 2021.
