 Gaussian 16, Revision A.03,
 Gaussian 16:  ES64L-G16RevA.03 25-Dec-2016

 ----------------------------------------------------------------------
 # wB97XD def2tzvp, opt=(ts, noeigen, calcfc, maxcycles=70, maxstep=1),
  freq=noraman, scrf=(iefpcm, solvent=water)
 ----------------------------------------------------------------------

 ------------------------
 0_iteration/TS-169-0.out
 ------------------------
 Symbolic Z-matrix:
 Charge =  0 Multiplicity = 1

 SCF Done:  E(RwB97XD) =  -978.443057875     A.U. after   15 cycles
 SCF Done:  E(RwB97XD) =  -978.443030387     A.U. after   11 cycles
 SCF Done:  E(RwB97XD) =  -978.443006076     A.U. after   11 cycles
 SCF Done:  E(RwB97XD) =  -978.442984965     A.U. after   11 cycles
 SCF Done:  E(RwB97XD) =  -978.442967147     A.U. after   11 cycles
 SCF Done:  E(RwB97XD) =  -978.442952790     A.U. after   11 cycles
 SCF Done:  E(RwB97XD) =  -978.442942275     A.U. after   11 cycles
 SCF Done:  E(RwB97XD) =  -978.442936578     A.U. after   11 cycles
 SCF Done:  E(RwB97XD) =  -978.442938331     A.U. after   10 cycles
 SCF Done:  E(RwB97XD) =  -978.442954880     A.U. after   12 cycles
 SCF Done:  E(RwB97XD) =  -978.445016302     A.U. after   11 cycles
 SCF Done:  E(RwB97XD) =  -978.445019031     A.U. after   12 cycles
 SCF Done:  E(RwB97XD) =  -978.445019863     A.U. after   11 cycles
 SCF Done:  E(RwB97XD) =  -978.445022121     A.U. after   11 cycles
 SCF Done:  E(RwB97XD) =  -978.445021460     A.U. after    9 cycles
 SCF Done:  E(RwB97XD) =  -978.445022139     A.U. after    9 cycles
 SCF Done:  E(RwB97XD) =  -978.445021958     A.U. after   10 cycles
 SCF Done:  E(RwB97XD) =  -978.445022183     A.U. after    9 cycles
 SCF Done:  E(RwB97XD) =  -978.445022152     A.U. after    8 cycles
 Optimization completed.
    -- Stationary point found.
 Normal termination of Gaussian 16 at Thu Feb  4 12:32:47 2021.

 ---------------------------------------------------------------------
 #N Geom=AllCheck Guess=TCheck SCRF=Check GenChk RwB97XD/def2TZVP Freq
 ---------------------------------------------------------------------

 Structure from the checkpoint file:  "/beegfs/scratch/user/q/tla25/Gau-69386.chk"
 ------------------------
 0_iteration/TS-169-0.out
 ------------------------
 Charge =  0 Multiplicity = 1

                         Standard orientation:
 ---------------------------------------------------------------------
 Center     Atomic      Atomic             Coordinates (Angstroms)
 Number     Number       Type             X           Y           Z
 ---------------------------------------------------------------------
      1          6           0        1.484406   -0.552857   -0.750565
      2          6           0        2.879402   -0.372748   -0.835325
      3          8           0        3.668646   -1.119799   -1.425539
      4          6           0        0.602792    0.278029   -0.043631
      5          6           0        0.668913   -1.440741    2.165927
      6          1           0        1.063079   -1.618749    3.165142
      7          1           0       -0.369135   -1.760412    2.124683
      8          1           0        1.255917   -2.007861    1.441459
      9          7           0        0.758061   -0.028452    1.813728
     10          1           0        0.068593    0.533250    2.302465
     11          1           0        1.675513    0.345571    2.031195
     12          6           0       -0.877362    0.072532   -0.216530
     13          6           0       -1.369398   -1.220972   -0.406411
     14          6           0       -2.727299   -1.449233   -0.547833
     15          6           0       -3.624052   -0.391823   -0.502420
     16          6           0       -3.147525    0.893941   -0.308075
     17          6           0       -1.787513    1.123959   -0.161714
     18          1           0       -0.695157   -2.064985   -0.435045
     19          1           0       -3.083994   -2.460757   -0.692900
     20          1           0       -4.685441   -0.570610   -0.616328
     21          1           0       -3.834338    1.729624   -0.270008
     22          1           0       -1.439011    2.135209   -0.011298
     23         17           0        1.083308    2.009854    0.050491
     24          1           0        1.073735   -1.433782   -1.223398
     25          1           0        3.284223    0.523010   -0.326639
 ---------------------------------------------------------------------

 SCF Done:  E(RwB97XD) =  -978.445022152     A.U. after    1 cycles

 The electronic state is 1-A.
 Alpha  occ. eigenvalues -- -101.70151 -19.20468 -14.50071 -10.41413 -10.34270
 Alpha  occ. eigenvalues --  -10.32136 -10.31837 -10.30088 -10.29876 -10.29703
 Alpha  occ. eigenvalues --  -10.29651 -10.29607 -10.25602  -9.58769  -7.33395
 Alpha  occ. eigenvalues --   -7.32555  -7.32522  -1.10516  -1.05810  -0.99049
 Alpha  occ. eigenvalues --   -0.96202  -0.88309  -0.86024  -0.84364  -0.79731
 Alpha  occ. eigenvalues --   -0.75274  -0.71369  -0.68422  -0.64684  -0.63702
 Alpha  occ. eigenvalues --   -0.61856  -0.58522  -0.57395  -0.56204  -0.55673
 Alpha  occ. eigenvalues --   -0.53561  -0.52642  -0.51602  -0.49479  -0.48765
 Alpha  occ. eigenvalues --   -0.48600  -0.46742  -0.46551  -0.45261  -0.44195
 Alpha  occ. eigenvalues --   -0.43337  -0.40555  -0.39743  -0.34530  -0.34457
 Alpha  occ. eigenvalues --   -0.32001  -0.28501
 Alpha virt. eigenvalues --    0.01170   0.04497   0.07283   0.07662   0.10514
 Alpha virt. eigenvalues --    0.12775   0.14045   0.14920   0.15440   0.16699
 Alpha virt. eigenvalues --    0.17179   0.17640   0.18156   0.19650   0.20080

 Mulliken charges:
               1
     1  C   -0.311728
     2  C    0.086806
     3  O   -0.519715
     4  C    0.207290
     5  C   -0.309796
     6  H    0.167045
     7  H    0.167098
     8  H    0.159137
     9  N   -0.279216
    10  H    0.295120
    11  H    0.287728
    12  C    0.148740
    13  C   -0.292688
    14  C   -0.125622
    15  C   -0.152338
    16  C   -0.119499
    17  C   -0.255633
    18  H    0.168945
    19  H    0.147965
    20  H    0.148197
    21  H    0.148053
    22  H    0.147682
    23  Cl  -0.112725
    24  H    0.135646
    25  H    0.063508
 Sum of Mulliken charges =  -0.00000

 Dipole moment (field-independent basis, Debye):
    X=             -7.9573    Y=              0.9856    Z=              8.9360  Tot=             12.0059
 Quadrupole moment (field-independent basis, Debye-Ang):
   XX=           -103.2233   YY=            -81.5081   ZZ=            -80.9862
   XY=             10.0700   XZ=             18.6952   YZ=             -3.9787

  Exact polarizability: 258.867 -10.035 201.030 -18.778  13.805 159.826
 Approx polarizability: 193.799  -7.397 173.820 -11.011  12.543 134.927

 ******    1 imaginary frequencies (negative Signs) ******

                      1                      2                      3
                      A                      A                      A
 Frequencies --   -347.3144                37.9352                69.0685
 Red. masses --      5.9467                 3.9027                 3.7332
 Frc consts  --      0.4226                 0.0033                 0.0105
 IR Inten    --    793.3457                 1.4376                 2.8558

                      4                      5                      6
                      A                      A                      A
 Frequencies --     89.8457               114.9198               132.7778
 Red. masses --      3.0564                 3.6417                 4.1817
 Frc consts  --      0.0145                 0.0283                 0.0434
 IR Inten    --      3.6788                23.2668                 6.2159

                      7                      8                      9
                      A                      A                      A
 Frequencies --    189.9303               206.4580               227.6553
 Red. masses --      2.2109                 3.1902                 6.0179
 Frc consts  --      0.0470                 0.0801                 0.1838
 IR Inten    --     10.4599                 0.6455                 2.8232

                     10                     11                     12
                      A                      A                      A
 Frequencies --    252.1531               281.9197               314.2792
 Red. masses --      1.4969                 3.0199                 3.6232
 Frc consts  --      0.0561                 0.1414                 0.2108
 IR Inten    --      4.6952                 2.3216                30.2160

                     13                     14                     15
                      A                      A                      A
 Frequencies --    335.7222               361.6190               423.1793
 Red. masses --      5.3244                 6.1831                 2.9871
 Frc consts  --      0.3536                 0.4764                 0.3152
 IR Inten    --     19.1290                13.9709                 1.6626

                     16                     17                     18
                      A                      A                      A
 Frequencies --    435.8744               463.6288               584.6198
 Red. masses --      6.6607                 3.6627                 3.0916
 Frc consts  --      0.7456                 0.4639                 0.6226
 IR Inten    --     21.5605                21.3094               124.9411

                     19                     20                     21
                      A                      A                      A
 Frequencies --    634.1463               637.8518               685.7563
 Red. masses --      3.4840                 5.6462                 2.7146
 Frc consts  --      0.8255                 1.3535                 0.7521
 IR Inten    --     18.3794                 1.5401                38.0261

                     22                     23                     24
                      A                      A                      A
 Frequencies --    717.3886               726.3297               763.1549
 Red. masses --      1.5995                 1.4993                 2.1257
 Frc consts  --      0.4850                 0.4660                 0.7294
 IR Inten    --     30.4800               153.9012               189.2999

                     25                     26                     27
                      A                      A                      A
 Frequencies --    806.2807               877.4375               911.0627
 Red. masses --      2.1315                 1.2495                 4.2512
 Frc consts  --      0.8164                 0.5668                 2.0790
 IR Inten    --      6.1595                 0.3149                53.4763

                     28                     29                     30
                      A                      A                      A
 Frequencies --    968.0412              1017.8353              1019.9792
 Red. masses --      1.4199                 1.1234                 1.3788
 Frc consts  --      0.7840                 0.6857                 0.8451
 IR Inten    --      3.2533                25.2340                 0.1015

                     31                     32                     33
                      A                      A                      A
 Frequencies --   1025.7449              1037.1475              1042.2857
 Red. masses --      5.3954                 1.3192                 1.6524
 Frc consts  --      3.3446                 0.8361                 1.0577
 IR Inten    --      3.7707                 0.2688                 0.4029

                     34                     35                     36
                      A                      A                      A
 Frequencies --   1063.0069              1066.0084              1079.2406
 Red. masses --      1.4633                 1.4945                 5.0169
 Frc consts  --      0.9742                 1.0006                 3.4429
 IR Inten    --     45.5680                37.4114                49.9150

                     37                     38                     39
                      A                      A                      A
 Frequencies --   1114.7638              1186.5151              1194.9441
 Red. masses --      1.5667                 1.1720                 1.9952
 Frc consts  --      1.1471                 0.9721                 1.6785
 IR Inten    --     50.1947                11.3993               213.2665

                     40                     41                     42
                      A                      A                      A
 Frequencies --   1216.3839              1229.6698              1240.1402
 Red. masses --      1.4742                 2.9170                 1.4824
 Frc consts  --      1.2851                 2.5987                 1.3432
 IR Inten    --     37.1987               147.9176                33.1366

                     43                     44                     45
                      A                      A                      A
 Frequencies --   1264.8664              1329.0072              1340.1003
 Red. masses --      1.6433                 4.0478                 1.3172
 Frc consts  --      1.5490                 4.2124                 1.3937
 IR Inten    --    348.5739                11.2493                 4.7836

                     46                     47                     48
                      A                      A                      A
 Frequencies --   1358.5923              1388.6406              1455.8799
 Red. masses --      1.5322                 1.4894                 1.1769
 Frc consts  --      1.6663                 1.6921                 1.4698
 IR Inten    --     45.4477               444.8091                 6.5167

                     49                     50                     51
                      A                      A                      A
 Frequencies --   1489.7853              1499.4186              1502.4957
 Red. masses --      2.2542                 1.0399                 2.4079
 Frc consts  --      2.9478                 1.3774                 3.2027
 IR Inten    --     56.6638                22.7350               282.1223

                     52                     53                     54
                      A                      A                      A
 Frequencies --   1511.9927              1544.6752              1638.5782
 Red. masses --      1.0716                 2.3488                 1.0920
 Frc consts  --      1.4434                 3.3020                 1.7274
 IR Inten    --      1.6607                13.8698                69.4664

                     55                     56                     57
                      A                      A                      A
 Frequencies --   1650.2186              1660.0892              1673.9734
 Red. masses --      5.7578                 5.7509                 5.9199
 Frc consts  --      9.2383                 9.3378                 9.7737
 IR Inten    --    188.2050              1268.9789                 3.7548

                     58                     59                     60
                      A                      A                      A
 Frequencies --   2930.3754              3067.6341              3146.0788
 Red. masses --      1.0810                 1.0350                 1.1032
 Frc consts  --      5.4693                 5.7385                 6.4336
 IR Inten    --    133.4028                26.7811                 4.3938

                     61                     62                     63
                      A                      A                      A
 Frequencies --   3178.9503              3201.0168              3209.7929
 Red. masses --      1.1050                 1.0865                 1.0902
 Frc consts  --      6.5791                 6.5593                 6.6179
 IR Inten    --     10.9607                 0.0639                12.9024

                     64                     65                     66
                      A                      A                      A
 Frequencies --   3218.5527              3222.7780              3233.4593
 Red. masses --      1.0906                 1.0939                 1.0932
 Frc consts  --      6.6565                 6.6940                 6.7345
 IR Inten    --      5.7988                16.2117                 9.9402

                     67                     68                     69
                      A                      A                      A
 Frequencies --   3236.4498              3512.3861              3597.7088
 Red. masses --      1.0928                 1.0508                 1.0972
 Frc consts  --      6.7444                 7.6380                 8.3670
 IR Inten    --      6.6033                54.2273                59.3699

 - Thermochemistry -
 -------------------
 Temperature   298.150 Kelvin.  Pressure   1.00000 Atm.
 Atom     1 has atomic number  6 and mass  12.00000

 Molecular mass:   197.06074 amu.
 Principal axes and moments of inertia in atomic units:
                           1         2         3
     Eigenvalues --  1721.415953897.998644270.30160
           X            0.99986  -0.00320   0.01633
           Y            0.00417   0.99822  -0.05945
           Z           -0.01611   0.05951   0.99810
 This molecule is an asymmetric top.
 Rotational symmetry number  1.
 Warning -- assumption of classical behavior for rotation
           may cause significant error
 Rotational temperatures (Kelvin)      0.05032     0.02222     0.02028
 Rotational constants (GHZ):           1.04841     0.46299     0.42263
    1 imaginary frequencies ignored.
 Zero-point vibrational energy     531418.3 (Joules/Mol)
                                  127.01202 (Kcal/Mol)
 Warning -- explicit consideration of  17 degrees of freedom as
           vibrations may cause significant error
 Vibrational temperatures:     54.58    99.37   129.27   165.34   191.04
          (Kelvin)            273.27   297.05   327.55   362.79   405.62
                              452.18   483.03   520.29   608.86   627.13
                              667.06   841.14   912.40   917.73   986.65
                             1032.16  1045.03  1098.01  1160.06  1262.44
                             1310.82  1392.80  1464.44  1467.52  1475.82
                             1492.22  1499.62  1529.43  1533.75  1552.79
                             1603.90  1707.13  1719.26  1750.11  1769.22
                             1784.29  1819.86  1912.14  1928.11  1954.71
                             1997.94  2094.69  2143.47  2157.33  2161.76
                             2175.42  2222.44  2357.55  2374.30  2388.50
                             2408.47  4216.16  4413.64  4526.51  4573.80
                             4605.55  4618.18  4630.78  4636.86  4652.23
                             4656.53  5053.54  5176.30

 Zero-point correction=                           0.202407 (Hartree/Particle)
 Thermal correction to Energy=                    0.215085
 Thermal correction to Enthalpy=                  0.216029
 Thermal correction to Gibbs Free Energy=         0.162603
 Sum of electronic and zero-point Energies=           -978.242616
 Sum of electronic and thermal Energies=              -978.229938
 Sum of electronic and thermal Enthalpies=            -978.228993
 Sum of electronic and thermal Free Energies=         -978.282420

                     E (Thermal)             CV                S
                      KCal/Mol        Cal/Mol-Kelvin    Cal/Mol-Kelvin
 Total                  134.968             47.007            112.445
 Electronic               0.000              0.000              0.000
 Translational            0.889              2.981             41.740
 Rotational               0.889              2.981             31.727
 Vibrational            133.190             41.046             38.977
 Vibration     1          0.594              1.982              5.364
 Vibration     2          0.598              1.969              4.180
 Vibration     3          0.602              1.956              3.663
 Vibration     4          0.608              1.937              3.184
 Vibration     5          0.613              1.921              2.905
 Vibration     6          0.633              1.854              2.229
 Vibration     7          0.641              1.831              2.075
 Vibration     8          0.651              1.799              1.897
 Vibration     9          0.664              1.759              1.715
 Vibration    10          0.681              1.707              1.522
 Vibration    11          0.702              1.646              1.340
 Vibration    12          0.717              1.604              1.232
 Vibration    13          0.736              1.551              1.115
 Vibration    14          0.785              1.420              0.881
 Vibration    15          0.796              1.392              0.840
 Vibration    16          0.821              1.331              0.756
 Vibration    17          0.942              1.065              0.477

 Optimization completed.
    -- Stationary point found.
 Normal termination of Gaussian 16 at Thu Feb  4 13:09:20 2021.
