 Gaussian 16, Revision A.03,
 Gaussian 16:  ES64L-G16RevA.03 25-Dec-2016

 ----------------------------------------------------------------------
 # wB97XD def2tzvp, opt=(ts, noeigen, calcfc, maxcycles=70, maxstep=5),
  freq=noraman, scrf=(iefpcm, solvent=water)
 ----------------------------------------------------------------------

 ------------------------
 2_iteration/TS-156-2.out
 ------------------------
 Symbolic Z-matrix:
 Charge =  0 Multiplicity = 1

 SCF Done:  E(RwB97XD) =  -3666.60907019     A.U. after   15 cycles
 SCF Done:  E(RwB97XD) =  -3666.60907020     A.U. after   10 cycles
 SCF Done:  E(RwB97XD) =  -3666.60907118     A.U. after   11 cycles
 SCF Done:  E(RwB97XD) =  -3666.60907248     A.U. after    8 cycles
 SCF Done:  E(RwB97XD) =  -3666.60907300     A.U. after   11 cycles
 SCF Done:  E(RwB97XD) =  -3666.60907273     A.U. after   11 cycles
 SCF Done:  E(RwB97XD) =  -3666.60907285     A.U. after    7 cycles
 SCF Done:  E(RwB97XD) =  -3666.60907287     A.U. after    7 cycles
 Optimization completed.
    -- Stationary point found.
 Normal termination of Gaussian 16 at Sun Feb  7 13:24:35 2021.

 ---------------------------------------------------------------------
 #N Geom=AllCheck Guess=TCheck SCRF=Check GenChk RwB97XD/def2TZVP Freq
 ---------------------------------------------------------------------

 Structure from the checkpoint file:  "/beegfs/scratch/user/q/tla25/Gau-8185.chk"
 ------------------------
 2_iteration/TS-156-2.out
 ------------------------
 Charge =  0 Multiplicity = 1

                         Standard orientation:
 ---------------------------------------------------------------------
 Center     Atomic      Atomic             Coordinates (Angstroms)
 Number     Number       Type             X           Y           Z
 ---------------------------------------------------------------------
      1          6           0       -0.707644    0.892369   -0.379359
      2          6           0       -2.147785    0.936212   -0.501057
      3          8           0       -2.789446    1.801270   -1.063346
      4          6           0        0.062802   -0.153543    0.103789
      5          6           0       -0.658531    0.789788    2.720570
      6          1           0        0.267191    1.190927    3.124505
      7          1           0       -1.084404    1.518419    2.028254
      8          1           0       -1.363509    0.625312    3.534482
      9          7           0       -0.405987   -0.443805    1.985986
     10          1           0        0.250421   -1.062250    2.449037
     11          1           0       -1.271815   -0.952108    1.848745
     12          6           0        1.559834   -0.040242    0.058148
     13          6           0        2.173835   -0.172013   -1.188625
     14          6           0        3.543739   -0.046005   -1.319051
     15          6           0        4.330723    0.211097   -0.203377
     16          6           0        3.729983    0.343800    1.035573
     17          6           0        2.352283    0.220295    1.166516
     18          1           0        1.567201   -0.370865   -2.062830
     19          1           0        3.999241   -0.149965   -2.295389
     20          1           0        5.404197    0.306671   -0.302936
     21          1           0        4.329108    0.546741    1.913755
     22          1           0        1.921407    0.346917    2.147136
     23         35           0       -0.433421   -1.996197   -0.443515
     24         17           0        0.076867    2.424194   -0.722709
     25          8           0       -2.743173   -0.093454    0.133179
     26          6           0       -4.158971   -0.186545    0.007967
     27          1           0       -4.449131   -0.267878   -1.039202
     28          1           0       -4.442746   -1.087038    0.545690
     29          1           0       -4.642915    0.683519    0.450686
 ---------------------------------------------------------------------

 SCF Done:  E(RwB97XD) =  -3666.60907287     A.U. after    1 cycles

 The electronic state is 1-A.
 Alpha  occ. eigenvalues -- -483.13162-101.69197 -62.67990 -56.47116 -56.46753
 Alpha  occ. eigenvalues --  -56.46737 -19.29517 -19.22586 -14.49174 -10.41321
 Alpha  occ. eigenvalues --  -10.41101 -10.33232 -10.32484 -10.32074 -10.32012
 Alpha  occ. eigenvalues --  -10.30183 -10.29888 -10.29661 -10.29618 -10.29551
 Alpha  occ. eigenvalues --   -9.57711  -8.82077  -7.32372  -7.31483  -7.31474
 Alpha  occ. eigenvalues --   -6.64244  -6.63101  -6.63047  -2.74619  -2.74310
 Alpha  occ. eigenvalues --   -2.74266  -2.73342  -2.73341  -1.21050  -1.11462
 Alpha  occ. eigenvalues --   -1.04744  -0.99140  -0.96479  -0.91819  -0.86451
 Alpha  occ. eigenvalues --   -0.85958  -0.85033  -0.80246  -0.79357  -0.74059
 Alpha  occ. eigenvalues --   -0.71471  -0.68739  -0.65326  -0.64018  -0.61748
 Alpha  occ. eigenvalues --   -0.58876  -0.58283  -0.57779  -0.57233  -0.55920
 Alpha  occ. eigenvalues --   -0.55248  -0.53356  -0.52449  -0.52104  -0.51546
 Alpha  occ. eigenvalues --   -0.49297  -0.48445  -0.48224  -0.46488  -0.45467
 Alpha  occ. eigenvalues --   -0.44813  -0.44010  -0.43216  -0.42314  -0.40091
 Alpha  occ. eigenvalues --   -0.39452  -0.37445  -0.37326  -0.36819  -0.34504
 Alpha  occ. eigenvalues --   -0.33220  -0.28428
 Alpha virt. eigenvalues --    0.01037   0.03598   0.04742   0.06208   0.10315
 Alpha virt. eigenvalues --    0.11453   0.13039   0.13902   0.14377   0.15099
 Alpha virt. eigenvalues --    0.15795   0.16756   0.17483   0.17889   0.18447

 Mulliken charges:
               1
     1  C   -0.263920
     2  C    0.387019
     3  O   -0.462700
     4  C    0.263459
     5  C   -0.276754
     6  H    0.154664
     7  H    0.152067
     8  H    0.161573
     9  N   -0.362442
    10  H    0.297337
    11  H    0.286463
    12  C    0.184892
    13  C   -0.294276
    14  C   -0.127145
    15  C   -0.138645
    16  C   -0.173856
    17  C   -0.170949
    18  H    0.157851
    19  H    0.147675
    20  H    0.148075
    21  H    0.146056
    22  H    0.127054
    23  Br  -0.115819
    24  Cl  -0.143503
    25  O   -0.298982
    26  C   -0.199548
    27  H    0.135935
    28  H    0.143409
    29  H    0.135008
 Sum of Mulliken charges =  -0.00000

 Dipole moment (field-independent basis, Debye):
    X=              2.1014    Y=             -4.7489    Z=              7.8800  Tot=              9.4372
 Quadrupole moment (field-independent basis, Debye-Ang):
   XX=           -100.3961   YY=           -127.7787   ZZ=            -97.6357
   XY=             11.5047   XZ=             -8.4776   YZ=              5.3557

  Exact polarizability: 285.037   3.510 228.099   8.464  -4.857 241.282
 Approx polarizability: 217.770   4.015 192.386   6.482  -4.605 207.154

 ******    1 imaginary frequencies (negative Signs) ******

                      1                      2                      3
                      A                      A                      A
 Frequencies --   -335.0258                22.3784                47.7396
 Red. masses --      5.4861                 3.8477                 4.5604
 Frc consts  --      0.3628                 0.0011                 0.0061
 IR Inten    --    528.7419                 0.7397                 2.2486

                      4                      5                      6
                      A                      A                      A
 Frequencies --     69.2812                70.0393                95.9457
 Red. masses --      5.4699                 5.4774                 3.2860
 Frc consts  --      0.0155                 0.0158                 0.0178
 IR Inten    --      2.0054                 2.4263                 5.2918

                      7                      8                      9
                      A                      A                      A
 Frequencies --    113.8835               125.3941               136.4286
 Red. masses --      4.5644                 1.8142                 2.4228
 Frc consts  --      0.0349                 0.0168                 0.0266
 IR Inten    --      0.3721                 0.7275                 8.3011

                     10                     11                     12
                      A                      A                      A
 Frequencies --    147.8441               171.1376               178.3987
 Red. masses --      1.4249                 3.4825                 2.8428
 Frc consts  --      0.0184                 0.0601                 0.0533
 IR Inten    --      1.7945                 1.0187                 4.6716

                     13                     14                     15
                      A                      A                      A
 Frequencies --    181.5185               220.1809               243.9788
 Red. masses --      3.4206                 4.0646                 7.3143
 Frc consts  --      0.0664                 0.1161                 0.2565
 IR Inten    --      3.5642                 2.3415                 2.5779

                     16                     17                     18
                      A                      A                      A
 Frequencies --    264.3405               299.3698               308.0824
 Red. masses --      5.4833                 3.7953                 3.9070
 Frc consts  --      0.2257                 0.2004                 0.2185
 IR Inten    --      6.4604                19.2094                15.3829

                     19                     20                     21
                      A                      A                      A
 Frequencies --    326.2236               356.0302               417.3358
 Red. masses --      9.6274                 6.5110                 2.8782
 Frc consts  --      0.6037                 0.4863                 0.2954
 IR Inten    --     17.1731                21.4970                 0.0319

                     22                     23                     24
                      A                      A                      A
 Frequencies --    427.5447               513.6060               564.5285
 Red. masses --      8.3033                 3.9423                 3.5036
 Frc consts  --      0.8943                 0.6127                 0.6579
 IR Inten    --     17.1403                30.3394               115.8899

                     25                     26                     27
                      A                      A                      A
 Frequencies --    607.0332               639.9485               667.3523
 Red. masses --      3.2624                 5.8822                 2.4215
 Frc consts  --      0.7083                 1.4193                 0.6354
 IR Inten    --     45.0787                18.2546                76.4303

                     28                     29                     30
                      A                      A                      A
 Frequencies --    718.5855               725.9419               772.0625
 Red. masses --      3.0950                 1.7763                 6.2556
 Frc consts  --      0.9416                 0.5515                 2.1970
 IR Inten    --      9.2078               330.9290                55.9037

                     31                     32                     33
                      A                      A                      A
 Frequencies --    790.3764               808.7970               869.2150
 Red. masses --     11.1629                 2.5930                 1.2523
 Frc consts  --      4.1086                 0.9994                 0.5575
 IR Inten    --     65.7538                 8.1404                 0.4136

                     34                     35                     36
                      A                      A                      A
 Frequencies --    907.9037               945.1469               962.1269
 Red. masses --      5.1278                 2.9478                 1.9343
 Frc consts  --      2.4903                 1.5515                 1.0550
 IR Inten    --     10.2818                 9.8384                 5.7565

                     37                     38                     39
                      A                      A                      A
 Frequencies --    994.3815              1011.5757              1026.2754
 Red. masses --      1.1267                 1.3716                 5.5249
 Frc consts  --      0.6564                 0.8269                 3.4285
 IR Inten    --     49.8436                 0.8853                 2.6393

                     40                     41                     42
                      A                      A                      A
 Frequencies --   1033.3370              1064.7814              1067.0638
 Red. masses --      1.3188                 1.8337                 2.1648
 Frc consts  --      0.8297                 1.2249                 1.4523
 IR Inten    --      0.1143               117.8301                26.2254

                     43                     44                     45
                      A                      A                      A
 Frequencies --   1081.6315              1122.0159              1126.9065
 Red. masses --      1.9249                 6.7625                 1.6480
 Frc consts  --      1.3269                 5.0159                 1.2331
 IR Inten    --      8.6595               193.9527                22.1903

                     46                     47                     48
                      A                      A                      A
 Frequencies --   1182.5609              1187.7159              1205.5766
 Red. masses --      1.2816                 1.1459                 1.9201
 Frc consts  --      1.0559                 0.9524                 1.6443
 IR Inten    --      2.3798                 1.1218                70.2457

                     49                     50                     51
                      A                      A                      A
 Frequencies --   1211.3107              1221.7631              1226.6281
 Red. masses --      1.5870                 1.1398                 2.0819
 Frc consts  --      1.3719                 1.0024                 1.8456
 IR Inten    --     95.6760                 0.7117                32.5039

                     52                     53                     54
                      A                      A                      A
 Frequencies --   1301.8079              1321.6563              1342.5225
 Red. masses --      7.1052                 4.5649                 1.3068
 Frc consts  --      7.0944                 4.6980                 1.3877
 IR Inten    --    681.0853                12.0899                 3.3303

                     55                     56                     57
                      A                      A                      A
 Frequencies --   1365.3286              1435.8861              1465.5276
 Red. masses --      1.4290                 2.5276                 1.6320
 Frc consts  --      1.5695                 3.0705                 2.0652
 IR Inten    --      4.7792               501.9262               148.6864

                     58                     59                     60
                      A                      A                      A
 Frequencies --   1479.6284              1482.4257              1488.7093
 Red. masses --      1.1811                 1.0510                 1.0432
 Frc consts  --      1.5234                 1.3608                 1.3622
 IR Inten    --     53.0005                14.8385                16.6864

                     61                     62                     63
                      A                      A                      A
 Frequencies --   1489.8109              1495.1294              1505.8079
 Red. masses --      2.1871                 1.0741                 1.0561
 Frc consts  --      2.8601                 1.4146                 1.4109
 IR Inten    --     27.7270                33.1586                18.7440

                     64                     65                     66
                      A                      A                      A
 Frequencies --   1546.8967              1633.9502              1654.1191
 Red. masses --      2.3477                 1.1090                 5.2527
 Frc consts  --      3.3099                 1.7444                 8.4677
 IR Inten    --     12.8756                95.9176                 0.8520

                     67                     68                     69
                      A                      A                      A
 Frequencies --   1675.4610              1725.0761              3066.8282
 Red. masses --      5.9080                11.4159                 1.0355
 Frc consts  --      9.7715                20.0160                 5.7380
 IR Inten    --      0.4339              1035.1834                32.1630

                     70                     71                     72
                      A                      A                      A
 Frequencies --   3067.8157              3140.3062              3147.0735
 Red. masses --      1.0306                 1.1019                 1.1072
 Frc consts  --      5.7148                 6.4026                 6.4611
 IR Inten    --     55.9101                 8.1165                30.6804

                     73                     74                     75
                      A                      A                      A
 Frequencies --   3175.7180              3179.6711              3200.4353
 Red. masses --      1.1048                 1.1059                 1.0863
 Frc consts  --      6.5649                 6.5879                 6.5558
 IR Inten    --     17.4854                18.6792                 0.5307

                     76                     77                     78
                      A                      A                      A
 Frequencies --   3207.6226              3216.2968              3225.8582
 Red. masses --      1.0894                 1.0940                 1.0983
 Frc consts  --      6.6041                 6.6677                 6.7340
 IR Inten    --      4.3541                19.4276                18.5276

                     79                     80                     81
                      A                      A                      A
 Frequencies --   3260.3058              3522.7522              3605.0845
 Red. masses --      1.0910                 1.0513                 1.0966
 Frc consts  --      6.8327                 7.6869                 8.3974
 IR Inten    --     11.9384                47.8912                71.3573

 - Thermochemistry -
 -------------------
 Temperature   298.150 Kelvin.  Pressure   1.00000 Atm.
 Atom     1 has atomic number  6 and mass  12.00000

 Molecular mass:   304.98182 amu.
 Principal axes and moments of inertia in atomic units:
                           1         2         3
     Eigenvalues --  3345.822836041.204567078.21622
           X            0.99994  -0.00335  -0.01034
           Y            0.00342   0.99997   0.00738
           Z            0.01032  -0.00741   0.99992
 This molecule is an asymmetric top.
 Rotational symmetry number  1.
 Warning -- assumption of classical behavior for rotation
           may cause significant error
 Rotational temperatures (Kelvin)      0.02589     0.01434     0.01224
 Rotational constants (GHZ):           0.53940     0.29874     0.25497
    1 imaginary frequencies ignored.
 Zero-point vibrational energy     591581.7 (Joules/Mol)
                                  141.39142 (Kcal/Mol)
 Warning -- explicit consideration of  24 degrees of freedom as
           vibrations may cause significant error
 Vibrational temperatures:     32.20    68.69    99.68   100.77   138.04
          (Kelvin)            163.85   180.41   196.29   212.71   246.23
                              256.68   261.16   316.79   351.03   380.33
                              430.73   443.26   469.36   512.25   600.45
                              615.14   738.96   812.23   873.39   920.74
                              960.17  1033.88  1044.47  1110.83  1137.18
                             1163.68  1250.61  1306.27  1359.86  1384.29
                             1430.69  1455.43  1476.58  1486.74  1531.98
                             1535.27  1556.23  1614.33  1621.37  1701.44
                             1708.86  1734.56  1742.81  1757.84  1764.84
                             1873.01  1901.57  1931.59  1964.40  2065.92
                             2108.57  2128.86  2132.88  2141.92  2143.51
                             2151.16  2166.52  2225.64  2350.89  2379.91
                             2410.61  2482.00  4412.48  4413.90  4518.20
                             4527.94  4569.15  4574.84  4604.71  4615.05
                             4627.53  4641.29  4690.85  5068.45  5186.91

 Zero-point correction=                           0.225322 (Hartree/Particle)
 Thermal correction to Energy=                    0.242296
 Thermal correction to Enthalpy=                  0.243240
 Thermal correction to Gibbs Free Energy=         0.178656
 Sum of electronic and zero-point Energies=          -3666.383751
 Sum of electronic and thermal Energies=             -3666.366777
 Sum of electronic and thermal Enthalpies=           -3666.365833
 Sum of electronic and thermal Free Energies=        -3666.430417

                     E (Thermal)             CV                S
                      KCal/Mol        Cal/Mol-Kelvin    Cal/Mol-Kelvin
 Total                  152.043             59.941            135.928
 Electronic               0.000              0.000              0.000
 Translational            0.889              2.981             43.042
 Rotational               0.889              2.981             33.325
 Vibrational            150.265             53.979             59.560
 Vibration     1          0.593              1.985              6.411
 Vibration     2          0.595              1.978              4.909
 Vibration     3          0.598              1.969              4.174
 Vibration     4          0.598              1.968              4.152
 Vibration     5          0.603              1.952              3.535
 Vibration     6          0.607              1.938              3.202
 Vibration     7          0.610              1.928              3.016
 Vibration     8          0.614              1.917              2.853
 Vibration     9          0.617              1.905              2.700
 Vibration    10          0.626              1.878              2.423
 Vibration    11          0.629              1.869              2.345
 Vibration    12          0.630              1.865              2.313
 Vibration    13          0.647              1.810              1.958
 Vibration    14          0.659              1.773              1.774
 Vibration    15          0.671              1.738              1.633
 Vibration    16          0.692              1.675              1.420
 Vibration    17          0.698              1.658              1.373
 Vibration    18          0.710              1.623              1.279
 Vibration    19          0.732              1.563              1.139
 Vibration    20          0.780              1.433              0.901
 Vibration    21          0.789              1.410              0.867
 Vibration    22          0.869              1.220              0.625
 Vibration    23          0.920              1.108              0.515
 Vibration    24          0.966              1.017              0.438

 Optimization completed.
    -- Stationary point found.
 Normal termination of Gaussian 16 at Sun Feb  7 14:34:54 2021.
