 Gaussian 16, Revision A.03,
 Gaussian 16:  ES64L-G16RevA.03 25-Dec-2016

 ----------------------------------------------------------------------
 # wB97XD def2tzvp, opt=(ts, noeigen, calcfc, maxcycles=70, maxstep=1),
  freq=noraman, scrf=(iefpcm, solvent=water)
 ----------------------------------------------------------------------

 ------------------------
 0_iteration/TS-172-0.out
 ------------------------
 Symbolic Z-matrix:
 Charge =  0 Multiplicity = 1

 SCF Done:  E(RwB97XD) =  -1093.00445003     A.U. after   14 cycles
 SCF Done:  E(RwB97XD) =  -1093.00440856     A.U. after   10 cycles
 SCF Done:  E(RwB97XD) =  -1093.00437111     A.U. after   10 cycles
 SCF Done:  E(RwB97XD) =  -1093.00433681     A.U. after   10 cycles
 SCF Done:  E(RwB97XD) =  -1093.00430659     A.U. after   10 cycles
 SCF Done:  E(RwB97XD) =  -1093.00427943     A.U. after   10 cycles
 SCF Done:  E(RwB97XD) =  -1093.00425636     A.U. after   10 cycles
 SCF Done:  E(RwB97XD) =  -1093.00423608     A.U. after   10 cycles
 SCF Done:  E(RwB97XD) =  -1093.00422015     A.U. after   10 cycles
 SCF Done:  E(RwB97XD) =  -1093.00421364     A.U. after   10 cycles
 SCF Done:  E(RwB97XD) =  -1093.00455491     A.U. after   10 cycles
 SCF Done:  E(RwB97XD) =  -1093.00458215     A.U. after   10 cycles
 SCF Done:  E(RwB97XD) =  -1093.00460749     A.U. after   10 cycles
 SCF Done:  E(RwB97XD) =  -1093.00463231     A.U. after   10 cycles
 SCF Done:  E(RwB97XD) =  -1093.00464710     A.U. after   10 cycles
 SCF Done:  E(RwB97XD) =  -1093.00465110     A.U. after   10 cycles
 SCF Done:  E(RwB97XD) =  -1093.00465138     A.U. after    8 cycles
 SCF Done:  E(RwB97XD) =  -1093.00465070     A.U. after    7 cycles
 SCF Done:  E(RwB97XD) =  -1093.00465124     A.U. after    7 cycles
 Optimization completed.
    -- Stationary point found.
 Normal termination of Gaussian 16 at Thu Feb  4 13:58:17 2021.

 ---------------------------------------------------------------------
 #N Geom=AllCheck Guess=TCheck SCRF=Check GenChk RwB97XD/def2TZVP Freq
 ---------------------------------------------------------------------

 Structure from the checkpoint file:  "/beegfs/scratch/user/q/tla25/Gau-11980.chk"
 ------------------------
 0_iteration/TS-172-0.out
 ------------------------
 Charge =  0 Multiplicity = 1

                         Standard orientation:
 ---------------------------------------------------------------------
 Center     Atomic      Atomic             Coordinates (Angstroms)
 Number     Number       Type             X           Y           Z
 ---------------------------------------------------------------------
      1          6           0        0.883694   -0.643163   -0.014756
      2          6           0        2.283339   -0.499150   -0.226479
      3          8           0        2.934124    0.512436   -0.449612
      4          6           0       -0.090765    0.362763   -0.056648
      5          6           0        1.180163    1.694197    2.022973
      6          1           0        1.087085    2.193187    2.986469
      7          1           0        1.729908    0.763011    2.146369
      8          1           0        1.709148    2.331306    1.320107
      9          7           0       -0.139908    1.376563    1.482531
     10          1           0       -0.672108    0.824228    2.146830
     11          1           0       -0.676758    2.214357    1.280819
     12          6           0       -1.521860   -0.117515   -0.077249
     13          6           0       -2.444860    0.292705   -1.030797
     14          6           0       -3.740125   -0.207370   -1.019980
     15          6           0       -4.134790   -1.115403   -0.052002
     16          6           0       -3.222022   -1.524922    0.910318
     17          6           0       -1.929434   -1.031248    0.897337
     18          1           0       -2.156277    1.000005   -1.794437
     19          1           0       -4.441583    0.120163   -1.776598
     20          1           0       -5.146116   -1.500946   -0.043683
     21          1           0       -3.516235   -2.231049    1.676071
     22          1           0       -1.230006   -1.366986    1.653444
     23         17           0        0.211550    1.734452   -1.186001
     24          1           0        0.533302   -1.639556    0.205909
     25          8           0        2.904606   -1.715854   -0.159109
     26          6           0        4.309918   -1.712884   -0.347338
     27          1           0        4.809068   -1.099662    0.404493
     28          1           0        4.627197   -2.748409   -0.245947
     29          1           0        4.577000   -1.341996   -1.338059
 ---------------------------------------------------------------------

 SCF Done:  E(RwB97XD) =  -1093.00465124     A.U. after    1 cycles

 The electronic state is 1-A.
 Alpha  occ. eigenvalues -- -101.69291 -19.27289 -19.20563 -14.50310 -10.40961
 Alpha  occ. eigenvalues --  -10.38980 -10.32207 -10.31842 -10.31615 -10.29990
 Alpha  occ. eigenvalues --  -10.29707 -10.29666 -10.29570 -10.29499 -10.25168
 Alpha  occ. eigenvalues --   -9.57906  -7.32535  -7.31700  -7.31650  -1.18505
 Alpha  occ. eigenvalues --   -1.09114  -1.05995  -0.98622  -0.95613  -0.88175
 Alpha  occ. eigenvalues --   -0.85869  -0.85091  -0.80417  -0.79544  -0.73343
 Alpha  occ. eigenvalues --   -0.71244  -0.68012  -0.64606  -0.63622  -0.61729
 Alpha  occ. eigenvalues --   -0.59131  -0.57894  -0.56869  -0.55817  -0.55619
 Alpha  occ. eigenvalues --   -0.54779  -0.53035  -0.52452  -0.51613  -0.49374
 Alpha  occ. eigenvalues --   -0.48767  -0.48167  -0.47363  -0.46718  -0.45993
 Alpha  occ. eigenvalues --   -0.44088  -0.43312  -0.42908  -0.39802  -0.39513
 Alpha  occ. eigenvalues --   -0.37274  -0.34655  -0.34415  -0.33871  -0.27844
 Alpha virt. eigenvalues --    0.02459   0.04618   0.08187   0.08817   0.10474
 Alpha virt. eigenvalues --    0.13081   0.13469   0.14925   0.15480   0.16593
 Alpha virt. eigenvalues --    0.17031   0.17211   0.18008   0.18351   0.18864

 Mulliken charges:
               1
     1  C   -0.529635
     2  C    0.401643
     3  O   -0.504686
     4  C    0.270015
     5  C   -0.292231
     6  H    0.165791
     7  H    0.155032
     8  H    0.156444
     9  N   -0.260471
    10  H    0.281528
    11  H    0.292684
    12  C    0.191120
    13  C   -0.258639
    14  C   -0.121786
    15  C   -0.151096
    16  C   -0.148037
    17  C   -0.309102
    18  H    0.143844
    19  H    0.147176
    20  H    0.147721
    21  H    0.147935
    22  H    0.186322
    23  Cl  -0.128744
    24  H    0.147209
    25  O   -0.317351
    26  C   -0.187613
    27  H    0.120126
    28  H    0.133684
    29  H    0.121115
 Sum of Mulliken charges =  -0.00000

 Dipole moment (field-independent basis, Debye):
    X=             -5.8596    Y=              1.4261    Z=              6.3068  Tot=              8.7261
 Quadrupole moment (field-independent basis, Debye-Ang):
   XX=            -92.0515   YY=            -91.7059   ZZ=            -85.8833
   XY=             -3.5658   XZ=              3.3810   YZ=              4.8472

  Exact polarizability: 272.239   1.673 201.874   0.655 -17.474 192.962
 Approx polarizability: 201.498   5.070 173.410   1.190 -18.607 166.621

 ******    1 imaginary frequencies (negative Signs) ******

                      1                      2                      3
                      A                      A                      A
 Frequencies --   -349.0313                43.4105                52.1853
 Red. masses --      5.8523                 3.5402                 2.8357
 Frc consts  --      0.4201                 0.0039                 0.0045
 IR Inten    --    679.1638                 0.5138                 0.7051

                      4                      5                      6
                      A                      A                      A
 Frequencies --     67.8562                84.3060                93.2670
 Red. masses --      5.4517                 3.8073                 3.4550
 Frc consts  --      0.0148                 0.0159                 0.0177
 IR Inten    --      9.6682                 0.6329                 3.2704

                      7                      8                      9
                      A                      A                      A
 Frequencies --    129.9843               151.4695               179.6061
 Red. masses --      3.8535                 3.9138                 1.2805
 Frc consts  --      0.0384                 0.0529                 0.0243
 IR Inten    --     11.1051                24.7368                 1.0251

                     10                     11                     12
                      A                      A                      A
 Frequencies --    196.3609               224.9042               249.5634
 Red. masses --      4.9671                 2.0850                 3.3021
 Frc consts  --      0.1128                 0.0621                 0.1212
 IR Inten    --      0.4174                 4.5888                 5.3015

                     13                     14                     15
                      A                      A                      A
 Frequencies --    266.5647               279.5015               297.0425
 Red. masses --      4.7701                 1.8346                 3.8977
 Frc consts  --      0.1997                 0.0844                 0.2026
 IR Inten    --      3.5853                 4.4199                 7.9842

                     16                     17                     18
                      A                      A                      A
 Frequencies --    324.6551               358.2342               392.0285
 Red. masses --      3.9509                 4.6912                 6.8113
 Frc consts  --      0.2454                 0.3547                 0.6168
 IR Inten    --     37.0414                 1.0401                54.7642

                     19                     20                     21
                      A                      A                      A
 Frequencies --    421.5125               468.8863               576.6257
 Red. masses --      2.9189                 4.3592                 2.5639
 Frc consts  --      0.3056                 0.5647                 0.5023
 IR Inten    --      0.0992                18.7394                87.4821

                     22                     23                     24
                      A                      A                      A
 Frequencies --    612.9575               635.9803               639.5619
 Red. masses --      2.5258                 6.0074                 4.7418
 Frc consts  --      0.5591                 1.4316                 1.1428
 IR Inten    --     66.4016                18.2157                10.1454

                     25                     26                     27
                      A                      A                      A
 Frequencies --    681.6771               726.2839               728.3674
 Red. masses --      1.4318                 2.0461                 3.2853
 Frc consts  --      0.3920                 0.6359                 1.0269
 IR Inten    --    126.4202                63.8420                21.3518

                     28                     29                     30
                      A                      A                      A
 Frequencies --    778.2277               800.4946               804.4758
 Red. masses --      2.4201                 3.0627                 2.9546
 Frc consts  --      0.8636                 1.1563                 1.1266
 IR Inten    --     43.0721                63.6000                81.0966

                     31                     32                     33
                      A                      A                      A
 Frequencies --    877.8967               878.7666               965.0361
 Red. masses --      3.8071                 1.3839                 1.4761
 Frc consts  --      1.7288                 0.6297                 0.8099
 IR Inten    --     23.1703                 1.4663                11.8008

                     34                     35                     36
                      A                      A                      A
 Frequencies --    990.0515              1017.9036              1021.4663
 Red. masses --      3.8309                 1.3337                 1.2465
 Frc consts  --      2.2124                 0.8142                 0.7663
 IR Inten    --    128.3053                 1.1698                17.1707

                     37                     38                     39
                      A                      A                      A
 Frequencies --   1025.1820              1036.0522              1059.6689
 Red. masses --      5.5825                 1.3169                 2.1206
 Frc consts  --      3.4569                 0.8329                 1.4030
 IR Inten    --      4.4979                 0.4412                49.1100

                     40                     41                     42
                      A                      A                      A
 Frequencies --   1068.1931              1077.7812              1097.3914
 Red. masses --      2.5015                 2.0268                 2.9716
 Frc consts  --      1.6817                 1.3872                 2.1084
 IR Inten    --      9.4650               179.9903               112.6568

                     43                     44                     45
                      A                      A                      A
 Frequencies --   1123.3905              1182.1477              1187.1395
 Red. masses --      1.5624                 1.2848                 1.2010
 Frc consts  --      1.1617                 1.0579                 0.9973
 IR Inten    --      6.1948                 3.4231               102.8238

                     46                     47                     48
                      A                      A                      A
 Frequencies --   1190.4547              1207.4037              1216.8602
 Red. masses --      2.4361                 1.9582                 1.1565
 Frc consts  --      2.0341                 1.6819                 1.0090
 IR Inten    --    885.5340                98.9573                 5.9721

                     49                     50                     51
                      A                      A                      A
 Frequencies --   1228.3100              1260.8374              1294.4289
 Red. masses --      2.1421                 1.3745                 2.7297
 Frc consts  --      1.9042                 1.2874                 2.6947
 IR Inten    --     77.1157                51.0006                 5.7260

                     52                     53                     54
                      A                      A                      A
 Frequencies --   1331.8848              1347.4793              1364.0519
 Red. masses --      3.5520                 1.3524                 1.4479
 Frc consts  --      3.7125                 1.4467                 1.5873
 IR Inten    --      7.5095                 2.1415                 4.5113

                     55                     56                     57
                      A                      A                      A
 Frequencies --   1454.2432              1468.8350              1482.2116
 Red. masses --      1.2502                 1.3390                 1.0487
 Frc consts  --      1.5577                 1.7020                 1.3574
 IR Inten    --    168.6320               112.3189                13.4730

                     58                     59                     60
                      A                      A                      A
 Frequencies --   1489.3776              1492.3054              1494.4542
 Red. masses --      1.6710                 1.0526                 1.4528
 Frc consts  --      2.1839                 1.3811                 1.9117
 IR Inten    --    217.8327                19.2236               211.3023

                     61                     62                     63
                      A                      A                      A
 Frequencies --   1504.3710              1506.6245              1544.2587
 Red. masses --      1.1157                 1.4899                 2.3366
 Frc consts  --      1.4876                 1.9926                 3.2830
 IR Inten    --    108.4543               394.7708                23.9320

                     64                     65                     66
                      A                      A                      A
 Frequencies --   1636.1305              1652.8141              1675.1134
 Red. masses --      1.0928                 5.6894                 5.9049
 Frc consts  --      1.7236                 9.1573                 9.7622
 IR Inten    --     64.7846                 5.7676                 9.2883

                     67                     68                     69
                      A                      A                      A
 Frequencies --   1701.9302              3054.6687              3082.7345
 Red. masses --     10.8293                 1.0312                 1.0334
 Frc consts  --     18.4814                 5.6690                 5.7860
 IR Inten    --    825.6306                72.7022                26.5963

                     70                     71                     72
                      A                      A                      A
 Frequencies --   3125.8577              3161.8141              3163.5718
 Red. masses --      1.1061                 1.1045                 1.1050
 Frc consts  --      6.3680                 6.5058                 6.5160
 IR Inten    --     47.4367                31.9172                 4.9079

                     73                     74                     75
                      A                      A                      A
 Frequencies --   3192.4099              3193.9161              3202.6858
 Red. masses --      1.1054                 1.0880                 1.0883
 Frc consts  --      6.6375                 6.5389                 6.5770
 IR Inten    --      5.6136                 5.2076                 1.5676

                     76                     77                     78
                      A                      A                      A
 Frequencies --   3212.5630              3223.9349              3235.9331
 Red. masses --      1.0930                 1.0975                 1.0876
 Frc consts  --      6.6459                 6.7210                 6.7101
 IR Inten    --     21.0090                18.6230                 0.9691

                     79                     80                     81
                      A                      A                      A
 Frequencies --   3238.6313              3509.8780              3590.8959
 Red. masses --      1.0932                 1.0510                 1.0962
 Frc consts  --      6.7558                 7.6283                 8.3281
 IR Inten    --      4.4126                56.6495                55.2265

 - Thermochemistry -
 -------------------
 Temperature   298.150 Kelvin.  Pressure   1.00000 Atm.
 Atom     1 has atomic number  6 and mass  12.00000

 Molecular mass:   227.07131 amu.
 Principal axes and moments of inertia in atomic units:
                           1         2         3
     Eigenvalues --  2051.891025648.661166170.65254
           X            0.99997  -0.00559   0.00483
           Y            0.00520   0.99696   0.07771
           Z           -0.00525  -0.07768   0.99696
 This molecule is an asymmetric top.
 Rotational symmetry number  1.
 Warning -- assumption of classical behavior for rotation
           may cause significant error
 Rotational temperatures (Kelvin)      0.04221     0.01533     0.01404
 Rotational constants (GHZ):           0.87955     0.31950     0.29247
    1 imaginary frequencies ignored.
 Zero-point vibrational energy     619713.1 (Joules/Mol)
                                  148.11498 (Kcal/Mol)
 Warning -- explicit consideration of  21 degrees of freedom as
           vibrations may cause significant error
 Vibrational temperatures:     62.46    75.08    97.63   121.30   134.19
          (Kelvin)            187.02   217.93   258.41   282.52   323.59
                              359.07   383.53   402.14   427.38   467.11
                              515.42   564.04   606.46   674.62   829.64
                              881.91   915.03   920.19   980.78  1044.96
                             1047.96  1119.70  1151.73  1157.46  1263.10
                             1264.35  1388.47  1424.46  1464.54  1469.66
                             1475.01  1490.65  1524.63  1536.89  1550.69
                             1578.90  1616.31  1700.85  1708.03  1712.80
                             1737.18  1750.79  1767.26  1814.06  1862.39
                             1916.29  1938.72  1962.57  2092.33  2113.33
                             2132.57  2142.88  2147.09  2150.19  2164.45
                             2167.70  2221.84  2354.03  2378.03  2410.11
                             2448.70  4394.99  4435.37  4497.41  4549.15
                             4551.67  4593.17  4595.33  4607.95  4622.16
                             4638.52  4655.79  4659.67  5049.93  5166.50

 Zero-point correction=                           0.236036 (Hartree/Particle)
 Thermal correction to Energy=                    0.251122
 Thermal correction to Enthalpy=                  0.252066
 Thermal correction to Gibbs Free Energy=         0.192913
 Sum of electronic and zero-point Energies=          -1092.768615
 Sum of electronic and thermal Energies=             -1092.753529
 Sum of electronic and thermal Enthalpies=           -1092.752585
 Sum of electronic and thermal Free Energies=        -1092.811738

                     E (Thermal)             CV                S
                      KCal/Mol        Cal/Mol-Kelvin    Cal/Mol-Kelvin
 Total                  157.581             55.354            124.499
 Electronic               0.000              0.000              0.000
 Translational            0.889              2.981             42.163
 Rotational               0.889              2.981             32.636
 Vibrational            155.804             49.392             49.700
 Vibration     1          0.595              1.980              5.097
 Vibration     2          0.596              1.977              4.733
 Vibration     3          0.598              1.970              4.215
 Vibration     4          0.601              1.960              3.788
 Vibration     5          0.602              1.954              3.590
 Vibration     6          0.612              1.923              2.946
 Vibration     7          0.619              1.901              2.654
 Vibration     8          0.629              1.867              2.333
 Vibration     9          0.636              1.845              2.167
 Vibration    10          0.650              1.803              1.919
 Vibration    11          0.662              1.763              1.734
 Vibration    12          0.672              1.734              1.618
 Vibration    13          0.680              1.711              1.537
 Vibration    14          0.691              1.679              1.434
 Vibration    15          0.709              1.626              1.287
 Vibration    16          0.733              1.558              1.130
 Vibration    17          0.759              1.487              0.992
 Vibration    18          0.784              1.423              0.887
 Vibration    19          0.826              1.319              0.741
 Vibration    20          0.933              1.082              0.492
 Vibration    21          0.972              1.004              0.428

 Optimization completed.
    -- Stationary point found.
 Normal termination of Gaussian 16 at Thu Feb  4 14:46:05 2021.
