 Gaussian 16, Revision A.03,
 Gaussian 16:  ES64L-G16RevA.03 25-Dec-2016

 ----------------------------------------------------------------------
 # wB97XD def2tzvp, opt=(ts, noeigen, calcfc, maxcycles=70, maxstep=3),
  freq=noraman, scrf=(iefpcm, solvent=water)
 ----------------------------------------------------------------------

 ------------------------
 3_iteration/TS-144-3.out
 ------------------------
 Symbolic Z-matrix:
 Charge =  0 Multiplicity = 1

 SCF Done:  E(RwB97XD) =  -3362.81689815     A.U. after   15 cycles
 SCF Done:  E(RwB97XD) =  -3362.81691703     A.U. after   11 cycles
 SCF Done:  E(RwB97XD) =  -3362.81691725     A.U. after    8 cycles
 Optimization completed.
    -- Stationary point found.
 Normal termination of Gaussian 16 at Sun Feb  7 21:17:39 2021.

 ---------------------------------------------------------------------
 #N Geom=AllCheck Guess=TCheck SCRF=Check GenChk RwB97XD/def2TZVP Freq
 ---------------------------------------------------------------------

 Structure from the checkpoint file:  "/beegfs/scratch/user/q/tla25/Gau-22335.chk"
 ------------------------
 3_iteration/TS-144-3.out
 ------------------------
 Charge =  0 Multiplicity = 1

                         Standard orientation:
 ---------------------------------------------------------------------
 Center     Atomic      Atomic             Coordinates (Angstroms)
 Number     Number       Type             X           Y           Z
 ---------------------------------------------------------------------
      1          6           0       -0.326894    0.233364    0.279412
      2          6           0       -1.515845   -0.560514    0.132838
      3          8           0       -1.502048   -1.798985    0.080177
      4          6           0        0.915388   -0.331404    0.029140
      5          6           0        0.750798   -1.440645    2.710557
      6          1           0       -0.045731   -0.695557    2.653086
      7          1           0        0.388857   -2.288864    3.293044
      8          1           0        1.607652   -1.000365    3.215717
      9          7           0        1.101503   -1.830050    1.354300
     10          1           0        1.961600   -2.360263    1.289094
     11          1           0        0.341970   -2.361271    0.934781
     12          6           0        2.152838    0.504668    0.128138
     13          6           0        2.260443    1.581059   -0.755336
     14          6           0        3.365380    2.411511   -0.729824
     15          6           0        4.389685    2.181525    0.179803
     16          6           0        4.294846    1.112937    1.054221
     17          6           0        3.185301    0.277348    1.027676
     18          1           0        1.466391    1.762868   -1.468639
     19          1           0        3.427548    3.240800   -1.422783
     20          1           0        5.255539    2.830588    0.202461
     21          1           0        5.086865    0.919844    1.766311
     22          1           0        3.146160   -0.547203    1.721966
     23         35           0        1.126632   -1.531979   -1.537213
     24          6           0       -0.397680    1.605868    0.927000
     25          1           0        0.416509    1.745458    1.639012
     26          1           0       -0.338593    2.426228    0.206744
     27          1           0       -1.329627    1.720826    1.478891
     28          6           0       -2.851350    0.122836    0.063315
     29          6           0       -3.040742    1.262319   -0.712572
     30          6           0       -4.297689    1.837719   -0.819898
     31          6           0       -5.372983    1.289515   -0.134606
     32          6           0       -5.190391    0.155409    0.645664
     33          6           0       -3.937801   -0.431067    0.733607
     34          1           0       -2.201747    1.692647   -1.245480
     35          1           0       -4.437967    2.715634   -1.437767
     36          1           0       -6.352833    1.743979   -0.210319
     37          1           0       -6.026951   -0.274127    1.182320
     38          1           0       -3.791730   -1.324414    1.327679
 ---------------------------------------------------------------------

 SCF Done:  E(RwB97XD) =  -3362.81691725     A.U. after    1 cycles

 The electronic state is 1-A.
 Alpha  occ. eigenvalues -- -483.12386 -62.67210 -56.46327 -56.45981 -56.45963
 Alpha  occ. eigenvalues --  -19.21958 -14.47287 -10.39545 -10.36139 -10.31531
 Alpha  occ. eigenvalues --  -10.31373 -10.29907 -10.29708 -10.29666 -10.29525
 Alpha  occ. eigenvalues --  -10.29499 -10.29416 -10.29383 -10.29322 -10.29266
 Alpha  occ. eigenvalues --  -10.29181 -10.29153 -10.27594 -10.27311  -8.81296
 Alpha  occ. eigenvalues --   -6.63429  -6.62342  -6.62280  -2.73811  -2.73518
 Alpha  occ. eigenvalues --   -2.73469  -2.72589  -2.72588  -1.12577  -1.03034
 Alpha  occ. eigenvalues --   -0.98121  -0.96830  -0.93313  -0.87895  -0.85917
 Alpha  occ. eigenvalues --   -0.85798  -0.85407  -0.84940  -0.78404  -0.77207
 Alpha  occ. eigenvalues --   -0.75150  -0.71534  -0.71197  -0.70529  -0.67259
 Alpha  occ. eigenvalues --   -0.64540  -0.62332  -0.60513  -0.58401  -0.57057
 Alpha  occ. eigenvalues --   -0.56657  -0.55364  -0.55128  -0.54601  -0.53754
 Alpha  occ. eigenvalues --   -0.52920  -0.52539  -0.51320  -0.51243  -0.50813
 Alpha  occ. eigenvalues --   -0.48968  -0.48309  -0.47821  -0.47230  -0.46128
 Alpha  occ. eigenvalues --   -0.45681  -0.45246  -0.44259  -0.43698  -0.43288
 Alpha  occ. eigenvalues --   -0.42621  -0.42182  -0.37901  -0.36583  -0.34342
 Alpha  occ. eigenvalues --   -0.34242  -0.33835  -0.33264  -0.32521  -0.27945
 Alpha virt. eigenvalues --    0.01006   0.02250   0.04712   0.05069   0.05466
 Alpha virt. eigenvalues --    0.08046   0.10429   0.12350   0.13372   0.13659
 Alpha virt. eigenvalues --    0.14452   0.14979   0.15779   0.16393   0.16554

 Mulliken charges:
               1
     1  C   -0.386896
     2  C    0.354276
     3  O   -0.512215
     4  C    0.321142
     5  C   -0.280026
     6  H    0.149044
     7  H    0.154108
     8  H    0.146611
     9  N   -0.371107
    10  H    0.283464
    11  H    0.275965
    12  C    0.140968
    13  C   -0.323970
    14  C   -0.122041
    15  C   -0.144969
    16  C   -0.163898
    17  C   -0.163145
    18  H    0.172450
    19  H    0.145776
    20  H    0.146681
    21  H    0.144773
    22  H    0.138806
    23  Br  -0.136821
    24  C   -0.390672
    25  H    0.151941
    26  H    0.136688
    27  H    0.154092
    28  C    0.127028
    29  C   -0.231612
    30  C   -0.150351
    31  C   -0.129742
    32  C   -0.148057
    33  C   -0.225175
    34  H    0.164652
    35  H    0.143343
    36  H    0.146185
    37  H    0.143111
    38  H    0.139595
 Sum of Mulliken charges =  -0.00000

 Dipole moment (field-independent basis, Debye):
    X=              3.5009    Y=              2.1870    Z=              4.7731  Tot=              6.3105
 Quadrupole moment (field-independent basis, Debye-Ang):
   XX=           -114.8452   YY=           -125.3672   ZZ=           -124.0307
   XY=             -6.5690   XZ=              6.1919   YZ=            -14.6071

  Exact polarizability: 397.656  -0.109 313.624  12.710 -34.636 275.958
 Approx polarizability: 291.496   1.207 265.646   9.287 -29.502 235.303

 ******    1 imaginary frequencies (negative Signs) ******

                      1                      2                      3
                      A                      A                      A
 Frequencies --   -385.2892                30.2387                40.2859
 Red. masses --      5.2283                 4.5576                 4.1144
 Frc consts  --      0.4573                 0.0025                 0.0039
 IR Inten    --    667.2976                 0.6371                 1.1442

                      4                      5                      6
                      A                      A                      A
 Frequencies --     43.2822                52.7265                84.4258
 Red. masses --      3.7996                 5.8112                 5.4176
 Frc consts  --      0.0042                 0.0095                 0.0228
 IR Inten    --      0.1732                 2.5360                 1.4747

                      7                      8                      9
                      A                      A                      A
 Frequencies --    120.0478               125.5168               132.0765
 Red. masses --      4.5912                 3.6619                 3.5594
 Frc consts  --      0.0390                 0.0340                 0.0366
 IR Inten    --      2.8567                12.2702                 1.8419

                     10                     11                     12
                      A                      A                      A
 Frequencies --    149.9730               164.4364               187.6492
 Red. masses --      4.1224                 1.6308                 2.9434
 Frc consts  --      0.0546                 0.0260                 0.0611
 IR Inten    --      1.7384                 4.3048                 0.4954

                     13                     14                     15
                      A                      A                      A
 Frequencies --    207.3332               212.5698               224.4210
 Red. masses --      1.4846                 2.8669                 1.9346
 Frc consts  --      0.0376                 0.0763                 0.0574
 IR Inten    --      2.3169                 0.1325                11.3457

                     16                     17                     18
                      A                      A                      A
 Frequencies --    254.4249               257.3547               281.0481
 Red. masses --      4.4303                 5.7515                 4.6392
 Frc consts  --      0.1690                 0.2244                 0.2159
 IR Inten    --      0.4788                 7.7984                11.8800

                     19                     20                     21
                      A                      A                      A
 Frequencies --    300.9196               333.5531               352.6916
 Red. masses --      3.8702                 2.8044                 5.8113
 Frc consts  --      0.2065                 0.1838                 0.4259
 IR Inten    --     44.0739                18.4252                10.2912

                     22                     23                     24
                      A                      A                      A
 Frequencies --    398.4335               421.8322               422.2980
 Red. masses --      5.7852                 2.8917                 2.8949
 Frc consts  --      0.5411                 0.3032                 0.3042
 IR Inten    --      0.9877                 0.7481                 1.4934

                     25                     26                     27
                      A                      A                      A
 Frequencies --    472.2046               532.0679               550.2588
 Red. masses --      3.6732                 3.4524                 3.6076
 Frc consts  --      0.4826                 0.5758                 0.6436
 IR Inten    --     31.3977                 9.5840               104.4102

                     28                     29                     30
                      A                      A                      A
 Frequencies --    585.6051               621.4134               636.1199
 Red. masses --      4.2870                 4.0579                 6.4148
 Frc consts  --      0.8662                 0.9232                 1.5294
 IR Inten    --     33.0008               102.9363                 0.4827

                     31                     32                     33
                      A                      A                      A
 Frequencies --    640.4266               674.7354               684.0729
 Red. masses --      5.8193                 3.4332                 2.3687
 Frc consts  --      1.4062                 0.9209                 0.6531
 IR Inten    --     26.2854                87.0528                29.4413

                     34                     35                     36
                      A                      A                      A
 Frequencies --    724.0650               725.5313               752.2687
 Red. masses --      1.6937                 1.6212                 3.3816
 Frc consts  --      0.5232                 0.5028                 1.1275
 IR Inten    --     84.0437                49.6212               108.2143

                     37                     38                     39
                      A                      A                      A
 Frequencies --    756.9850               801.2813               829.7889
 Red. masses --      2.6090                 3.0026                 2.9460
 Frc consts  --      0.8808                 1.1359                 1.1951
 IR Inten    --    137.7815                28.6694                45.8963

                     40                     41                     42
                      A                      A                      A
 Frequencies --    852.6714               873.6532               881.1452
 Red. masses --      4.2900                 1.2515                 1.2490
 Frc consts  --      1.8377                 0.5628                 0.5714
 IR Inten    --     51.3882                 0.8642                 1.0313

                     43                     44                     45
                      A                      A                      A
 Frequencies --    961.0666               968.2425               975.6237
 Red. masses --      1.4502                 1.4656                 1.0943
 Frc consts  --      0.7892                 0.8095                 0.6137
 IR Inten    --      1.3300                10.4675                91.3639

                     46                     47                     48
                      A                      A                      A
 Frequencies --   1013.7378              1016.0883              1020.3027
 Red. masses --      1.3703                 1.3885                 3.7581
 Frc consts  --      0.8297                 0.8446                 2.3050
 IR Inten    --      0.9452                12.8637               107.1373

                     49                     50                     51
                      A                      A                      A
 Frequencies --   1026.2415              1026.7351              1032.7425
 Red. masses --      5.8880                 5.8916                 1.3744
 Frc consts  --      3.6536                 3.6593                 0.8637
 IR Inten    --      1.8474                 0.1647                11.8186

                     52                     53                     54
                      A                      A                      A
 Frequencies --   1033.2258              1036.6830              1061.7215
 Red. masses --      1.3317                 1.8204                 1.9157
 Frc consts  --      0.8376                 1.1527                 1.2723
 IR Inten    --     16.2210               223.2335                 1.3291

                     55                     56                     57
                      A                      A                      A
 Frequencies --   1065.5099              1069.9522              1073.8149
 Red. masses --      1.6187                 1.5933                 1.6350
 Frc consts  --      1.0827                 1.0747                 1.1108
 IR Inten    --      8.8373                 9.0186               119.0552

                     58                     59                     60
                      A                      A                      A
 Frequencies --   1088.7010              1110.9500              1121.4700
 Red. masses --      2.2815                 1.5238                 1.5655
 Frc consts  --      1.5933                 1.1081                 1.1601
 IR Inten    --      9.4253                11.1330                 9.2580

                     61                     62                     63
                      A                      A                      A
 Frequencies --   1183.4426              1186.6943              1199.4312
 Red. masses --      1.1373                 1.1384                 1.3876
 Frc consts  --      0.9385                 0.9446                 1.1761
 IR Inten    --      0.4245                 0.1101                27.2455

                     64                     65                     66
                      A                      A                      A
 Frequencies --   1200.0417              1207.6981              1214.1751
 Red. masses --      1.4337                 2.0510                 1.1308
 Frc consts  --      1.2165                 1.7625                 0.9822
 IR Inten    --     18.2239                 3.3428                 2.0041

                     67                     68                     69
                      A                      A                      A
 Frequencies --   1246.4293              1314.8312              1325.5364
 Red. masses --      5.1797                 4.1667                 3.9961
 Frc consts  --      4.7412                 4.2441                 4.1368
 IR Inten    --    128.8619                11.3813                35.3032

                     70                     71                     72
                      A                      A                      A
 Frequencies --   1349.8403              1353.3876              1357.8930
 Red. masses --      2.4800                 1.4125                 1.5298
 Frc consts  --      2.6623                 1.5244                 1.6619
 IR Inten    --     67.9228                39.7918                 9.4807

                     73                     74                     75
                      A                      A                      A
 Frequencies --   1361.0121              1423.0738              1435.0619
 Red. masses --      2.0756                 1.7884                 1.7909
 Frc consts  --      2.2652                 2.1338                 2.1730
 IR Inten    --    128.3114               581.2201               461.3114

                     76                     77                     78
                      A                      A                      A
 Frequencies --   1461.9619              1487.9015              1488.5801
 Red. masses --      1.2670                 1.1455                 1.7535
 Frc consts  --      1.5956                 1.4941                 2.2892
 IR Inten    --     57.2625                10.1519                17.1084

                     79                     80                     81
                      A                      A                      A
 Frequencies --   1489.7947              1491.3720              1504.0283
 Red. masses --      1.4524                 1.4155                 1.1313
 Frc consts  --      1.8993                 1.8550                 1.5078
 IR Inten    --     24.1005                21.4772               235.0742

                     82                     83                     84
                      A                      A                      A
 Frequencies --   1508.6144              1539.9126              1544.5974
 Red. masses --      1.0437                 2.3259                 2.4113
 Frc consts  --      1.3995                 3.2496                 3.3895
 IR Inten    --      0.4898                 6.8077                11.8966

                     85                     86                     87
                      A                      A                      A
 Frequencies --   1620.6284              1643.9072              1652.2290
 Red. masses --      2.4012                 2.0376                 5.0285
 Frc consts  --      3.7158                 3.2443                 8.0878
 IR Inten    --    422.2152                22.6989                 0.9660

                     88                     89                     90
                      A                      A                      A
 Frequencies --   1660.4861              1673.9072              1675.1572
 Red. masses --      4.2261                 5.9020                 5.9306
 Frc consts  --      6.8653                 9.7434                 9.8052
 IR Inten    --     75.6745                14.2114                 1.2586

                     91                     92                     93
                      A                      A                      A
 Frequencies --   3042.9249              3057.0476              3107.1851
 Red. masses --      1.0425                 1.0345                 1.0957
 Frc consts  --      5.6872                 5.6960                 6.2330
 IR Inten    --     72.5993                50.1092                29.5447

                     94                     95                     96
                      A                      A                      A
 Frequencies --   3124.1218              3140.2517              3162.6777
 Red. masses --      1.1034                 1.1006                 1.1037
 Frc consts  --      6.3449                 6.3943                 6.5044
 IR Inten    --     14.0258                35.4196                21.9427

                     97                     98                     99
                      A                      A                      A
 Frequencies --   3194.3678              3198.6112              3200.4511
 Red. masses --      1.0858                 1.0863                 1.0881
 Frc consts  --      6.5278                 6.5480                 6.5665
 IR Inten    --      1.3168                 0.7881                 0.8165

                    100                    101                    102
                      A                      A                      A
 Frequencies --   3205.8794              3207.9321              3214.6154
 Red. masses --      1.0894                 1.0917                 1.0939
 Frc consts  --      6.5965                 6.6189                 6.6604
 IR Inten    --      3.6333                11.4219                24.2082

                    103                    104                    105
                      A                      A                      A
 Frequencies --   3215.0662              3222.8959              3224.3619
 Red. masses --      1.0951                 1.0989                 1.0982
 Frc consts  --      6.6692                 6.7249                 6.7272
 IR Inten    --     33.6422                20.8084                20.6467

                    106                    107                    108
                      A                      A                      A
 Frequencies --   3255.2282              3469.1703              3597.4376
 Red. masses --      1.0917                 1.0582                 1.0903
 Frc consts  --      6.8159                 7.5039                 8.3131
 IR Inten    --     13.5571                59.6179                88.1903

 - Thermochemistry -
 -------------------
 Temperature   298.150 Kelvin.  Pressure   1.00000 Atm.
 Atom     1 has atomic number  6 and mass  12.00000

 Molecular mass:   331.05718 amu.
 Principal axes and moments of inertia in atomic units:
                           1         2         3
     Eigenvalues --  3920.39790********************
           X            0.99986   0.01115   0.01224
           Y           -0.00881   0.98423  -0.17669
           Z           -0.01402   0.17656   0.98419
 This molecule is an asymmetric top.
 Rotational symmetry number  1.
 Warning -- assumption of classical behavior for rotation
           may cause significant error
 Rotational temperatures (Kelvin)      0.02209     0.00826     0.00759
 Rotational constants (GHZ):           0.46035     0.17206     0.15817
    1 imaginary frequencies ignored.
 Zero-point vibrational energy     817865.9 (Joules/Mol)
                                  195.47463 (Kcal/Mol)
 Warning -- explicit consideration of  27 degrees of freedom as
           vibrations may cause significant error
 Vibrational temperatures:     43.51    57.96    62.27    75.86   121.47
          (Kelvin)            172.72   180.59   190.03   215.78   236.59
                              269.99   298.31   305.84   322.89   366.06
                              370.28   404.37   432.96   479.91   507.44
                              573.26   606.92   607.59   679.40   765.53
                              791.70   842.56   894.08   915.23   921.43
                              970.79   984.23  1041.77  1043.88  1082.35
                             1089.13  1152.87  1193.88  1226.80  1256.99
                             1267.77  1382.76  1393.08  1403.70  1458.54
                             1461.92  1467.99  1476.53  1477.24  1485.89
                             1486.58  1491.56  1527.58  1533.03  1539.42
                             1544.98  1566.40  1598.41  1613.55  1702.71
                             1707.39  1725.71  1726.59  1737.61  1746.93
                             1793.33  1891.75  1907.15  1942.12  1947.22
                             1953.71  1958.19  2047.49  2064.73  2103.44
                             2140.76  2141.73  2143.48  2145.75  2163.96
                             2170.56  2215.59  2222.33  2331.72  2365.22
                             2377.19  2389.07  2408.38  2410.18  4378.09
                             4398.41  4470.55  4494.91  4518.12  4550.39
                             4595.98  4602.09  4604.74  4612.55  4615.50
                             4625.11  4625.76  4637.03  4639.14  4683.55
                             4991.36  5175.91

 Zero-point correction=                           0.311509 (Hartree/Particle)
 Thermal correction to Energy=                    0.330497
 Thermal correction to Enthalpy=                  0.331442
 Thermal correction to Gibbs Free Energy=         0.262773
 Sum of electronic and zero-point Energies=          -3362.505409
 Sum of electronic and thermal Energies=             -3362.486420
 Sum of electronic and thermal Enthalpies=           -3362.485476
 Sum of electronic and thermal Free Energies=        -3362.554144

                     E (Thermal)             CV                S
                      KCal/Mol        Cal/Mol-Kelvin    Cal/Mol-Kelvin
 Total                  207.390             71.736            144.524
 Electronic               0.000              0.000              0.000
 Translational            0.889              2.981             43.286
 Rotational               0.889              2.981             34.505
 Vibrational            205.613             65.775             66.733
 Vibration     1          0.594              1.984              5.814
 Vibration     2          0.594              1.981              5.245
 Vibration     3          0.595              1.980              5.103
 Vibration     4          0.596              1.977              4.712
 Vibration     5          0.601              1.960              3.785
 Vibration     6          0.609              1.933              3.100
 Vibration     7          0.610              1.928              3.014
 Vibration     8          0.612              1.921              2.916
 Vibration     9          0.618              1.903              2.673
 Vibration    10          0.623              1.886              2.498
 Vibration    11          0.632              1.857              2.251
 Vibration    12          0.641              1.829              2.067
 Vibration    13          0.644              1.822              2.021
 Vibration    14          0.649              1.804              1.923
 Vibration    15          0.665              1.755              1.700
 Vibration    16          0.667              1.750              1.680
 Vibration    17          0.681              1.709              1.527
 Vibration    18          0.693              1.672              1.412
 Vibration    19          0.715              1.608              1.243
 Vibration    20          0.729              1.570              1.154
 Vibration    21          0.765              1.473              0.968
 Vibration    22          0.784              1.423              0.886
 Vibration    23          0.785              1.422              0.884
 Vibration    24          0.829              1.312              0.731
 Vibration    25          0.887              1.179              0.583
 Vibration    26          0.906              1.139              0.544
 Vibration    27          0.943              1.063              0.475

 Optimization completed.
    -- Stationary point found.
 Normal termination of Gaussian 16 at Sun Feb  7 23:43:42 2021.
