 Gaussian 16, Revision A.03,
 Gaussian 16:  ES64L-G16RevA.03 25-Dec-2016

 ----------------------------------------------------------------------
 # wB97XD def2tzvp, opt=(ts, noeigen, calcfc, maxcycles=70, maxstep=3),
  freq=noraman, scrf=(iefpcm, solvent=water)
 ----------------------------------------------------------------------

 ------------------------
 0_iteration/TS-124-0.out
 ------------------------
 Symbolic Z-matrix:
 Charge =  0 Multiplicity = 1

 SCF Done:  E(RwB97XD) =  -3438.06105029     A.U. after   15 cycles
 Optimization completed.
    -- Stationary point found.
 Normal termination of Gaussian 16 at Sun Apr 11 08:58:30 2021.

 ---------------------------------------------------------------------
 #N Geom=AllCheck Guess=TCheck SCRF=Check GenChk RwB97XD/def2TZVP Freq
 ---------------------------------------------------------------------

 Structure from the checkpoint file:  "/beegfs/scratch/user/q/tla25/Gau-371762.chk"
 ------------------------
 0_iteration/TS-124-0.out
 ------------------------
 Charge =  0 Multiplicity = 1

                         Standard orientation:
 ---------------------------------------------------------------------
 Center     Atomic      Atomic             Coordinates (Angstroms)
 Number     Number       Type             X           Y           Z
 ---------------------------------------------------------------------
      1          6           0       -0.840488    0.218514   -0.053501
      2          6           0       -2.264789   -0.001969    0.046899
      3          8           0       -2.801694   -1.023466    0.455299
      4          6           0        0.027907   -0.861990    0.049799
      5          6           0       -0.501293   -0.889487    2.927099
      6          1           0       -0.886089    0.069215    2.566599
      7          1           0       -1.203495   -1.288384    3.659699
      8          1           0        0.462108   -0.732892    3.405099
      9          7           0       -0.360497   -1.778088    1.787399
     10          1           0        0.311689   -2.520791    1.930899
     11          1           0       -1.259609   -2.163384    1.520599
     12          6           0        1.505908   -0.640797    0.136399
     13          6           0        2.419205   -1.214311   -0.741501
     14          6           0        3.774607   -0.934617   -0.638201
     15          6           0        4.242311   -0.088320    0.352699
     16          6           0        3.340913    0.485685    1.238999
     17          6           0        1.989612    0.216091    1.127999
     18          1           0        2.076402   -1.875609   -1.523401
     19          1           0        4.464604   -1.385421   -1.339901
     20          1           0        5.300312    0.125465    0.434899
     21          1           0        3.689816    1.152183    2.017299
     22          1           0        1.300114    0.696804    1.805599
     23         35           0       -0.428011   -2.499788   -0.992301
     24          6           0       -0.323971    1.601812   -0.251501
     25          6           0        0.454830    1.916108   -1.364101
     26          6           0        0.962436    3.194106   -1.547201
     27          6           0        0.685341    4.192207   -0.624901
     28          6           0       -0.104861    3.899811    0.479199
     29          6           0       -0.600067    2.618813    0.662199
     30          1           0        0.672026    1.142907   -2.091101
     31          1           0        1.571437    3.410793   -2.416301
     32          1           0        1.079155    5.191005   -0.765301
     33          1           0       -0.328447    4.671212    1.205899
     34          1           0       -1.205068    2.398516    1.533799
     35          8           0       -2.999274    1.060134   -0.336701
     36          6           0       -4.407585    0.946941   -0.175701
     37          1           0       -4.666885    0.766242    0.867699
     38          1           0       -4.819670    1.898253   -0.502201
     39          1           0       -4.806888    0.138143   -0.788001
 ---------------------------------------------------------------------

 SCF Done:  E(RwB97XD) =  -3438.06105029     A.U. after    1 cycles

 The electronic state is 1-A.
 Alpha  occ. eigenvalues -- -483.12294 -62.67131 -56.46240 -56.45902 -56.45886
 Alpha  occ. eigenvalues --  -19.28702 -19.22255 -14.47604 -10.40382 -10.40065
 Alpha  occ. eigenvalues --  -10.32816 -10.31467 -10.31462 -10.29997 -10.29694
 Alpha  occ. eigenvalues --  -10.29629 -10.29537 -10.29408 -10.29384 -10.28687
 Alpha  occ. eigenvalues --  -10.28653 -10.28561 -10.28421 -10.28385 -10.27724
 Alpha  occ. eigenvalues --   -8.81223  -6.63337  -6.62275  -6.62223  -2.73722
 Alpha  occ. eigenvalues --   -2.73434  -2.73393  -2.72534  -2.72534  -1.20295
 Alpha  occ. eigenvalues --   -1.10747  -1.03325  -0.98244  -0.96426  -0.93053
 Alpha  occ. eigenvalues --   -0.87961  -0.86133  -0.85433  -0.84688  -0.83123
 Alpha  occ. eigenvalues --   -0.80673  -0.78533  -0.73922  -0.71037  -0.70065
 Alpha  occ. eigenvalues --   -0.69575  -0.67821  -0.64707  -0.62726  -0.61904
 Alpha  occ. eigenvalues --   -0.60695  -0.57849  -0.57572  -0.56874  -0.56407
 Alpha  occ. eigenvalues --   -0.55386  -0.55091  -0.54383  -0.53489  -0.52614
 Alpha  occ. eigenvalues --   -0.51849  -0.51440  -0.50481  -0.49860  -0.48529
 Alpha  occ. eigenvalues --   -0.48038  -0.47607  -0.47043  -0.46039  -0.44644
 Alpha  occ. eigenvalues --   -0.44175  -0.43611  -0.42675  -0.42219  -0.42121
 Alpha  occ. eigenvalues --   -0.38989  -0.37542  -0.36938  -0.35725  -0.34382
 Alpha  occ. eigenvalues --   -0.34158  -0.33260  -0.32673  -0.27631
 Alpha virt. eigenvalues --    0.00311   0.04111   0.05264   0.05745   0.06081
 Alpha virt. eigenvalues --    0.07591   0.10908   0.12478   0.13295   0.13695
 Alpha virt. eigenvalues --    0.14230   0.15501   0.15945   0.16224   0.16874

 Mulliken charges:
               1
     1  C   -0.336155
     2  C    0.459694
     3  O   -0.506274
     4  C    0.290532
     5  C   -0.310460
     6  H    0.139041
     7  H    0.159450
     8  H    0.164141
     9  N   -0.331803
    10  H    0.282347
    11  H    0.281934
    12  C    0.079625
    13  C   -0.227639
    14  C   -0.140698
    15  C   -0.131132
    16  C   -0.175168
    17  C   -0.232516
    18  H    0.147017
    19  H    0.144626
    20  H    0.146389
    21  H    0.143377
    22  H    0.188843
    23  Br  -0.147161
    24  C    0.274763
    25  C   -0.229253
    26  C   -0.166130
    27  C   -0.138901
    28  C   -0.145029
    29  C   -0.290646
    30  H    0.141665
    31  H    0.137069
    32  H    0.140733
    33  H    0.137938
    34  H    0.148218
    35  O   -0.294350
    36  C   -0.202927
    37  H    0.128873
    38  H    0.140057
    39  H    0.129909
 Sum of Mulliken charges =   0.00000

 Dipole moment (field-independent basis, Debye):
    X=              3.1258    Y=              0.0357    Z=              4.7987  Tot=              5.7271
 Quadrupole moment (field-independent basis, Debye-Ang):
   XX=           -125.9874   YY=           -132.8031   ZZ=           -122.3353
   XY=             -5.0529   XZ=             -3.4741   YZ=             -2.1448

  Exact polarizability: 353.229   7.792 352.553 -18.739  19.780 299.790
 Approx polarizability: 272.555   9.876 280.397 -18.063  19.589 256.168

 ******    1 imaginary frequencies (negative Signs) ******

                      1                      2                      3
                      A                      A                      A
 Frequencies --   -361.9833                32.0743                37.6734
 Red. masses --      5.9781                 5.1896                 4.4290
 Frc consts  --      0.4615                 0.0031                 0.0037
 IR Inten    --    524.4076                 0.2144                 0.1441

                      4                      5                      6
                      A                      A                      A
 Frequencies --     58.7490                65.8864                67.4384
 Red. masses --      3.7415                 3.9453                 4.5435
 Frc consts  --      0.0076                 0.0101                 0.0122
 IR Inten    --      0.6141                 0.7912                 4.0338

                      7                      8                      9
                      A                      A                      A
 Frequencies --     85.0985               105.7103               107.0468
 Red. masses --      3.9932                 3.1855                 2.9325
 Frc consts  --      0.0170                 0.0210                 0.0198
 IR Inten    --      0.4171                 0.4187                 0.4305

                     10                     11                     12
                      A                      A                      A
 Frequencies --    143.9565               154.5197               160.7980
 Red. masses --      4.2614                 3.5240                 4.3929
 Frc consts  --      0.0520                 0.0496                 0.0669
 IR Inten    --      0.2500                 4.0589                 9.1018

                     13                     14                     15
                      A                      A                      A
 Frequencies --    169.4511               177.5890               220.2707
 Red. masses --      1.7506                 2.6058                 4.8937
 Frc consts  --      0.0296                 0.0484                 0.1399
 IR Inten    --      1.4138                12.8262                 1.2852

                     16                     17                     18
                      A                      A                      A
 Frequencies --    231.3466               250.0799               254.7634
 Red. masses --      1.7995                 2.9533                 3.3704
 Frc consts  --      0.0567                 0.1088                 0.1289
 IR Inten    --      8.5555                17.5980                 7.6627

                     19                     20                     21
                      A                      A                      A
 Frequencies --    272.1890               283.1568               303.0568
 Red. masses --      4.7674                 3.6541                 3.4863
 Frc consts  --      0.2081                 0.1726                 0.1887
 IR Inten    --      0.9301                 6.0465                20.8319

                     22                     23                     24
                      A                      A                      A
 Frequencies --    325.3167               382.6959               420.4394
 Red. masses --      4.2356                 5.8691                 6.1200
 Frc consts  --      0.2641                 0.5064                 0.6374
 IR Inten    --     20.8603                57.6513                15.5704

                     25                     26                     27
                      A                      A                      A
 Frequencies --    424.6215               427.9064               497.3548
 Red. masses --      2.8770                 3.0521                 4.9471
 Frc consts  --      0.3056                 0.3293                 0.7210
 IR Inten    --      0.1593                 2.9647                13.3949

                     28                     29                     30
                      A                      A                      A
 Frequencies --    527.2925               576.4976               600.2685
 Red. masses --      3.3906                 3.5149                 2.4309
 Frc consts  --      0.5554                 0.6883                 0.5161
 IR Inten    --     45.7211                79.0843                45.3906

                     31                     32                     33
                      A                      A                      A
 Frequencies --    632.4438               638.3861               649.3221
 Red. masses --      5.8296                 6.1142                 3.4035
 Frc consts  --      1.3738                 1.4681                 0.8455
 IR Inten    --     23.9334                 5.7761                63.2220

                     34                     35                     36
                      A                      A                      A
 Frequencies --    675.9018               723.6742               725.1096
 Red. masses --      4.0931                 2.3765                 1.6891
 Frc consts  --      1.1017                 0.7333                 0.5232
 IR Inten    --     48.2298                36.2790                41.9069

                     37                     38                     39
                      A                      A                      A
 Frequencies --    732.1009               790.0015               800.1448
 Red. masses --      1.9024                 3.8627                 2.7839
 Frc consts  --      0.6008                 1.4204                 1.0501
 IR Inten    --    239.1960               126.2765                10.3404

                     40                     41                     42
                      A                      A                      A
 Frequencies --    807.3469               823.6859               875.1359
 Red. masses --      4.7125                 3.4504                 1.3146
 Frc consts  --      1.8098                 1.3793                 0.5932
 IR Inten    --     20.9752                98.3052                 6.1038

                     43                     44                     45
                      A                      A                      A
 Frequencies --    876.9946               878.3282               954.8810
 Red. masses --      4.6977                 1.2478                 1.4819
 Frc consts  --      2.1288                 0.5671                 0.7961
 IR Inten    --     24.7558                 1.2823                 3.6481

                     46                     47                     48
                      A                      A                      A
 Frequencies --    969.0358               992.3560              1010.6998
 Red. masses --      1.4160                 1.1019                 1.3827
 Frc consts  --      0.7834                 0.6393                 0.8322
 IR Inten    --      3.5687                96.9411                 0.3896

                     49                     50                     51
                      A                      A                      A
 Frequencies --   1012.7921              1019.9943              1024.8376
 Red. masses --      5.1353                 1.4444                 1.3830
 Frc consts  --      3.1036                 0.8854                 0.8558
 IR Inten    --     27.8927                 0.0752                 0.6495

                     52                     53                     54
                      A                      A                      A
 Frequencies --   1026.5365              1027.0827              1036.4349
 Red. masses --      4.5765                 4.9030                 1.3335
 Frc consts  --      2.8414                 3.0473                 0.8440
 IR Inten    --      1.5739                 1.8324                 0.2231

                     55                     56                     57
                      A                      A                      A
 Frequencies --   1057.9096              1061.3594              1068.6960
 Red. masses --      1.6602                 2.3530                 1.9953
 Frc consts  --      1.0947                 1.5617                 1.3427
 IR Inten    --     89.7211                45.2780                11.1438

                     58                     59                     60
                      A                      A                      A
 Frequencies --   1091.5693              1097.2455              1112.4948
 Red. masses --      3.1545                 2.7715                 1.5742
 Frc consts  --      2.2146                 1.9660                 1.1479
 IR Inten    --    143.1276                10.5181                 9.2870

                     61                     62                     63
                      A                      A                      A
 Frequencies --   1124.5296              1181.1677              1181.6143
 Red. masses --      1.5955                 1.2698                 1.1455
 Frc consts  --      1.1887                 1.0438                 0.9423
 IR Inten    --      5.5720                 1.5831                 0.4675

                     64                     65                     66
                      A                      A                      A
 Frequencies --   1186.7303              1191.1529              1195.8465
 Red. masses --      1.1254                 1.5317                 2.3800
 Frc consts  --      0.9338                 1.2804                 2.0053
 IR Inten    --      0.4386                41.5223                25.1306

                     67                     68                     69
                      A                      A                      A
 Frequencies --   1210.2757              1216.9741              1223.0670
 Red. masses --      1.1232                 1.1693                 1.7928
 Frc consts  --      0.9693                 1.0203                 1.5801
 IR Inten    --      0.7567                52.7853                77.9040

                     70                     71                     72
                      A                      A                      A
 Frequencies --   1267.5690              1307.5550              1322.2047
 Red. masses --      5.6746                 4.4125                 4.4089
 Frc consts  --      5.3720                 4.4448                 4.5413
 IR Inten    --    822.4158                65.8512                 8.4022

                     73                     74                     75
                      A                      A                      A
 Frequencies --   1337.3612              1352.5831              1360.9884
 Red. masses --      5.1726                 1.3258                 1.4897
 Frc consts  --      5.4507                 1.4291                 1.6257
 IR Inten    --    526.1307                 1.1634                 4.7771

                     76                     77                     78
                      A                      A                      A
 Frequencies --   1362.5615              1435.2283              1462.7241
 Red. masses --      1.4387                 3.0250                 1.4211
 Frc consts  --      1.5737                 3.6712                 1.7914
 IR Inten    --     21.0350               496.5996                81.3862

                     79                     80                     81
                      A                      A                      A
 Frequencies --   1478.7714              1481.7564              1489.5279
 Red. masses --      1.1861                 1.0674                 2.1336
 Frc consts  --      1.5282                 1.3808                 2.7890
 IR Inten    --     55.9146                16.1016                33.0857

                     82                     83                     84
                      A                      A                      A
 Frequencies --   1492.2695              1495.9413              1497.1690
 Red. masses --      2.0890                 1.1209                 1.0624
 Frc consts  --      2.7408                 1.4779                 1.4031
 IR Inten    --     58.1835                 8.0951                15.7346

                     85                     86                     87
                      A                      A                      A
 Frequencies --   1505.7805              1542.5815              1545.5827
 Red. masses --      1.0425                 2.3049                 2.4041
 Frc consts  --      1.3927                 3.2314                 3.3837
 IR Inten    --     12.0119                17.9356                46.7151

                     88                     89                     90
                      A                      A                      A
 Frequencies --   1619.7799              1645.2678              1650.5446
 Red. masses --      1.1696                 5.6428                 5.6076
 Frc consts  --      1.8080                 8.9996                 9.0008
 IR Inten    --    194.0078                 9.8206                 1.5786

                     91                     92                     93
                      A                      A                      A
 Frequencies --   1670.6130              1673.6301              1698.7771
 Red. masses --      5.8639                 5.9128                 7.2007
 Frc consts  --      9.6425                 9.7580                12.2433
 IR Inten    --     79.1211                 0.9326               496.4054

                     94                     95                     96
                      A                      A                      A
 Frequencies --   3044.9722              3062.2681              3117.0691
 Red. masses --      1.0400                 1.0310                 1.0979
 Frc consts  --      5.6813                 5.6964                 6.2848
 IR Inten    --     40.3523                64.4921                17.6343

                     97                     98                     99
                      A                      A                      A
 Frequencies --   3137.9475              3171.7697              3174.2175
 Red. masses --      1.1068                 1.1031                 1.1053
 Frc consts  --      6.4209                 6.5384                 6.5612
 IR Inten    --     36.0639                16.2340                25.0627

                    100                    101                    102
                      A                      A                      A
 Frequencies --   3187.4800              3191.6554              3199.3734
 Red. masses --      1.0859                 1.0878                 1.0865
 Frc consts  --      6.5006                 6.5290                 6.5527
 IR Inten    --      8.7157                 0.3405                 0.1040

                    103                    104                    105
                      A                      A                      A
 Frequencies --   3201.2744              3207.8009              3209.4104
 Red. masses --      1.0915                 1.0952                 1.0909
 Frc consts  --      6.5904                 6.6396                 6.6206
 IR Inten    --     16.4717                47.7227                16.5669

                    106                    107                    108
                      A                      A                      A
 Frequencies --   3218.6361              3220.9918              3239.1048
 Red. masses --      1.0988                 1.0963                 1.0928
 Frc consts  --      6.7069                 6.7011                 6.7555
 IR Inten    --     19.5891                25.1196                 4.5189

                    109                    110                    111
                      A                      A                      A
 Frequencies --   3248.2775              3514.6011              3619.0690
 Red. masses --      1.0924                 1.0519                 1.0965
 Frc consts  --      6.7910                 7.6553                 8.4620
 IR Inten    --      4.7339                55.4773                96.0771

 - Thermochemistry -
 -------------------
 Temperature   298.150 Kelvin.  Pressure   1.00000 Atm.
 Atom     1 has atomic number  6 and mass  12.00000

 Molecular mass:   347.05209 amu.
 Principal axes and moments of inertia in atomic units:
                           1         2         3
     Eigenvalues --  6428.288256581.83616**********
           X            0.90398  -0.42740  -0.01216
           Y            0.42684   0.90374  -0.03251
           Z            0.02488   0.02420   0.99940
 This molecule is an asymmetric top.
 Rotational symmetry number  1.
 Warning -- assumption of classical behavior for rotation
           may cause significant error
 Rotational temperatures (Kelvin)      0.01347     0.01316     0.00857
 Rotational constants (GHZ):           0.28075     0.27420     0.17848
    1 imaginary frequencies ignored.
 Zero-point vibrational energy     830984.7 (Joules/Mol)
                                  198.61011 (Kcal/Mol)
 Warning -- explicit consideration of  29 degrees of freedom as
           vibrations may cause significant error
 Vibrational temperatures:     46.15    54.20    84.53    94.80    97.03
          (Kelvin)            122.44   152.09   154.02   207.12   222.32
                              231.35   243.80   255.51   316.92   332.86
                              359.81   366.55   391.62   407.40   436.03
                              468.06   550.61   604.92   610.94   615.66
                              715.58   758.66   829.45   863.65   909.95
                              918.50   934.23   972.47  1041.21  1043.27
                             1053.33  1136.64  1151.23  1161.59  1185.10
                             1259.13  1261.80  1263.72  1373.86  1394.23
                             1427.78  1454.17  1457.18  1467.54  1474.51
                             1476.96  1477.74  1491.20  1522.10  1527.06
                             1537.62  1570.52  1578.69  1600.63  1617.95
                             1699.44  1700.08  1707.44  1713.80  1720.56
                             1741.32  1750.95  1759.72  1823.75  1881.28
                             1902.36  1924.16  1946.07  1958.16  1960.42
                             2064.97  2104.53  2127.62  2131.92  2143.10
                             2147.04  2152.33  2154.09  2166.48  2219.43
                             2223.75  2330.50  2367.17  2374.77  2403.64
                             2407.98  2444.16  4381.04  4405.92  4484.77
                             4514.81  4563.47  4566.99  4586.07  4592.08
                             4603.18  4605.92  4615.31  4617.63  4630.90
                             4634.29  4660.35  4673.55  5056.73  5207.03

 Zero-point correction=                           0.316505 (Hartree/Particle)
 Thermal correction to Energy=                    0.336633
 Thermal correction to Enthalpy=                  0.337577
 Thermal correction to Gibbs Free Energy=         0.266504
 Sum of electronic and zero-point Energies=          -3437.744545
 Sum of electronic and thermal Energies=             -3437.724417
 Sum of electronic and thermal Enthalpies=           -3437.723473
 Sum of electronic and thermal Free Energies=        -3437.794546

                     E (Thermal)             CV                S
                      KCal/Mol        Cal/Mol-Kelvin    Cal/Mol-Kelvin
 Total                  211.241             74.954            149.586
 Electronic               0.000              0.000              0.000
 Translational            0.889              2.981             43.427
 Rotational               0.889              2.981             34.414
 Vibrational            209.463             68.993             71.746
 Vibration     1          0.594              1.983              5.697
 Vibration     2          0.594              1.982              5.378
 Vibration     3          0.596              1.974              4.499
 Vibration     4          0.597              1.971              4.273
 Vibration     5          0.598              1.970              4.227
 Vibration     6          0.601              1.960              3.770
 Vibration     7          0.605              1.945              3.346
 Vibration     8          0.606              1.944              3.322
 Vibration     9          0.616              1.909              2.751
 Vibration    10          0.620              1.898              2.616
 Vibration    11          0.622              1.890              2.540
 Vibration    12          0.625              1.880              2.442
 Vibration    13          0.628              1.870              2.354
 Vibration    14          0.647              1.810              1.957
 Vibration    15          0.653              1.793              1.868
 Vibration    16          0.663              1.763              1.730
 Vibration    17          0.665              1.755              1.697
 Vibration    18          0.675              1.725              1.582
 Vibration    19          0.682              1.705              1.515
 Vibration    20          0.695              1.668              1.400
 Vibration    21          0.709              1.625              1.283
 Vibration    22          0.752              1.507              1.028
 Vibration    23          0.783              1.426              0.890
 Vibration    24          0.787              1.417              0.876
 Vibration    25          0.789              1.409              0.866
 Vibration    26          0.853              1.256              0.665
 Vibration    27          0.882              1.190              0.593
 Vibration    28          0.933              1.082              0.492
 Vibration    29          0.958              1.031              0.449

 Optimization completed.
    -- Stationary point found.
 Normal termination of Gaussian 16 at Sun Apr 11 10:21:47 2021.
