 Gaussian 16, Revision A.03,
 Gaussian 16:  ES64L-G16RevA.03 25-Dec-2016

 ----------------------------------------------------------------------
 # wB97XD def2tzvp, opt=(ts, noeigen, calcfc, maxcycles=70, maxstep=5),
  freq=noraman, scrf=(iefpcm, solvent=water)
 ----------------------------------------------------------------------

 ------------------------
 2_iteration/TS-160-2.out
 ------------------------
 Symbolic Z-matrix:
 Charge =  0 Multiplicity = 1

 SCF Done:  E(RwB97XD) =  -3783.10208478     A.U. after   15 cycles
 SCF Done:  E(RwB97XD) =  -3783.10217637     A.U. after   12 cycles
 SCF Done:  E(RwB97XD) =  -3783.10218465     A.U. after   11 cycles
 SCF Done:  E(RwB97XD) =  -3783.10218539     A.U. after    9 cycles
 SCF Done:  E(RwB97XD) =  -3783.10218533     A.U. after    7 cycles
 Optimization completed.
    -- Stationary point found.
 Normal termination of Gaussian 16 at Sun Feb  7 12:22:41 2021.

 ---------------------------------------------------------------------
 #N Geom=AllCheck Guess=TCheck SCRF=Check GenChk RwB97XD/def2TZVP Freq
 ---------------------------------------------------------------------

 Structure from the checkpoint file:  "/beegfs/scratch/user/q/tla25/Gau-4251.chk"
 ------------------------
 2_iteration/TS-160-2.out
 ------------------------
 Charge =  0 Multiplicity = 1

                         Standard orientation:
 ---------------------------------------------------------------------
 Center     Atomic      Atomic             Coordinates (Angstroms)
 Number     Number       Type             X           Y           Z
 ---------------------------------------------------------------------
      1          6           0        0.097425    1.143946   -0.354640
      2          6           0       -1.245270    1.501722   -0.733496
      3          8           0       -1.502312    2.538390   -1.341350
      4          6           0        0.631467   -0.043267    0.151339
      5          6           0        0.330618    1.172375    2.743316
      6          1           0        1.361129    1.459359    2.936741
      7          1           0       -0.112130    1.908165    2.070087
      8          1           0       -0.225809    1.167685    3.680055
      9          7           0        0.285036   -0.132099    2.092741
     10          1           0        0.867658   -0.823419    2.551998
     11          1           0       -0.660810   -0.497849    2.089079
     12          6           0        2.117091   -0.272139    0.030369
     13          6           0        3.022344   -0.214839    1.079423
     14          6           0        4.377595   -0.423038    0.853813
     15          6           0        4.844530   -0.689278   -0.420466
     16          6           0        3.944949   -0.743486   -1.477603
     17          6           0        2.597308   -0.537337   -1.253725
     18          1           0        2.709244    0.011225    2.086589
     19          1           0        5.065640   -0.371953    1.687623
     20          1           0        5.900484   -0.852168   -0.592726
     21          1           0        4.294300   -0.946973   -2.481610
     22          1           0        1.903695   -0.576990   -2.084047
     23         35           0       -0.274158   -1.731873   -0.252012
     24         17           0        1.246837    2.467542   -0.558247
     25          6           0       -2.408375    0.623749   -0.364901
     26          6           0       -3.140698   -0.002088   -1.367756
     27          6           0       -4.247172   -0.769713   -1.046009
     28          6           0       -4.647106   -0.897605    0.278507
     29          6           0       -3.943805   -0.241697    1.277048
     30          6           0       -2.826849    0.516899    0.955380
     31          1           0       -2.826927    0.096172   -2.399533
     32          1           0       -4.801065   -1.270503   -1.829901
     33          1           0       -5.512505   -1.497835    0.528595
     34          1           0       -4.264240   -0.315969    2.308332
     35          1           0       -2.300426    1.050730    1.737372
 ---------------------------------------------------------------------

 SCF Done:  E(RwB97XD) =  -3783.10218533     A.U. after    1 cycles

 The electronic state is 1-A.
 Alpha  occ. eigenvalues -- -483.14013-101.68980 -62.68828 -56.47965 -56.47590
 Alpha  occ. eigenvalues --  -56.47572 -19.22460 -14.49489 -10.41807 -10.37555
 Alpha  occ. eigenvalues --  -10.32968 -10.32359 -10.32218 -10.30532 -10.30293
 Alpha  occ. eigenvalues --  -10.29947 -10.29871 -10.29722 -10.29678 -10.29598
 Alpha  occ. eigenvalues --  -10.29588 -10.29560 -10.29483 -10.29413  -9.57509
 Alpha  occ. eigenvalues --   -8.82911  -7.32157  -7.31290  -7.31273  -6.65106
 Alpha  occ. eigenvalues --   -6.63922  -6.63862  -2.75480  -2.75156  -2.75109
 Alpha  occ. eigenvalues --   -2.74151  -2.74150  -1.13554  -1.05116  -0.99343
 Alpha  occ. eigenvalues --   -0.97293  -0.96345  -0.92355  -0.87381  -0.86441
 Alpha  occ. eigenvalues --   -0.86015  -0.85771  -0.82283  -0.79699  -0.76222
 Alpha  occ. eigenvalues --   -0.71721  -0.71548  -0.71065  -0.68568  -0.65115
 Alpha  occ. eigenvalues --   -0.64090  -0.61542  -0.59331  -0.58399  -0.57696
 Alpha  occ. eigenvalues --   -0.56599  -0.55937  -0.55574  -0.54220  -0.53606
 Alpha  occ. eigenvalues --   -0.53031  -0.51650  -0.51643  -0.51017  -0.49822
 Alpha  occ. eigenvalues --   -0.48711  -0.47996  -0.47176  -0.46644  -0.45360
 Alpha  occ. eigenvalues --   -0.44667  -0.44176  -0.43428  -0.43140  -0.41869
 Alpha  occ. eigenvalues --   -0.39597  -0.39156  -0.38004  -0.34887  -0.34560
 Alpha  occ. eigenvalues --   -0.34356  -0.33885  -0.32135  -0.29053
 Alpha virt. eigenvalues --    0.01018   0.01786   0.04486   0.04564   0.04765
 Alpha virt. eigenvalues --    0.05922   0.10228   0.11577   0.13075   0.13748
 Alpha virt. eigenvalues --    0.13829   0.14399   0.14766   0.15144   0.17113

 Mulliken charges:
               1
     1  C   -0.215622
     2  C    0.187867
     3  O   -0.444045
     4  C    0.287062
     5  C   -0.318357
     6  H    0.164628
     7  H    0.165397
     8  H    0.172887
     9  N   -0.356404
    10  H    0.294560
    11  H    0.280415
    12  C    0.174172
    13  C   -0.176802
    14  C   -0.172546
    15  C   -0.142703
    16  C   -0.121279
    17  C   -0.303671
    18  H    0.133643
    19  H    0.146860
    20  H    0.148319
    21  H    0.148333
    22  H    0.159135
    23  Br  -0.072431
    24  Cl  -0.153662
    25  C    0.204911
    26  C   -0.241567
    27  C   -0.121087
    28  C   -0.157704
    29  C   -0.125767
    30  C   -0.328700
    31  H    0.143336
    32  H    0.146548
    33  H    0.147000
    34  H    0.145805
    35  H    0.201470
 Sum of Mulliken charges =  -0.00000

 Dipole moment (field-independent basis, Debye):
    X=              2.2714    Y=             -6.7272    Z=              8.3911  Tot=             10.9921
 Quadrupole moment (field-independent basis, Debye-Ang):
   XX=           -120.3597   YY=           -157.2025   ZZ=           -114.5785
   XY=              8.1791   XZ=             -2.5015   YZ=             11.5330

  Exact polarizability: 372.485  17.316 280.590  11.407  -8.288 324.316
 Approx polarizability: 281.540  16.119 239.833   8.086  -6.264 281.579

 ******    1 imaginary frequencies (negative Signs) ******

                      1                      2                      3
                      A                      A                      A
 Frequencies --   -334.0538                30.4988                35.5241
 Red. masses --      5.4011                 5.5797                 4.0315
 Frc consts  --      0.3551                 0.0031                 0.0030
 IR Inten    --    714.1034                 1.4884                 0.6120

                      4                      5                      6
                      A                      A                      A
 Frequencies --     48.6668                64.6334                75.7840
 Red. masses --      6.5198                 6.7217                 4.7002
 Frc consts  --      0.0091                 0.0165                 0.0159
 IR Inten    --      2.1791                 4.0654                 0.5180

                      7                      8                      9
                      A                      A                      A
 Frequencies --     80.6546               117.7388               126.3415
 Red. masses --      6.5256                 4.6569                 4.3926
 Frc consts  --      0.0250                 0.0380                 0.0413
 IR Inten    --      1.6786                 1.3640                 3.4599

                     10                     11                     12
                      A                      A                      A
 Frequencies --    151.6023               173.0442               193.0351
 Red. masses --      4.6674                 5.0630                 1.8728
 Frc consts  --      0.0632                 0.0893                 0.0411
 IR Inten    --      2.4788                 6.4248                 0.8677

                     13                     14                     15
                      A                      A                      A
 Frequencies --    204.3332               221.3703               239.6167
 Red. masses --      2.3214                 6.7629                 6.9789
 Frc consts  --      0.0571                 0.1953                 0.2361
 IR Inten    --      2.0153                 2.1597                 0.2568

                     16                     17                     18
                      A                      A                      A
 Frequencies --    248.1487               277.6613               296.3642
 Red. masses --      2.7916                 4.1743                 3.3248
 Frc consts  --      0.1013                 0.1896                 0.1721
 IR Inten    --      2.7833                 4.2406                39.3641

                     19                     20                     21
                      A                      A                      A
 Frequencies --    313.1384               345.3163               369.5097
 Red. masses --     11.4690                 7.8379                 7.5330
 Frc consts  --      0.6626                 0.5507                 0.6060
 IR Inten    --      6.0310                14.0998                 7.5683

                     22                     23                     24
                      A                      A                      A
 Frequencies --    387.8016               418.5718               419.7210
 Red. masses --      5.1751                 2.8943                 2.9216
 Frc consts  --      0.4586                 0.2988                 0.3032
 IR Inten    --     10.3472                 0.2875                 1.3671

                     25                     26                     27
                      A                      A                      A
 Frequencies --    518.8678               556.6725               575.0732
 Red. masses --      3.8470                 3.3970                 4.4188
 Frc consts  --      0.6102                 0.6202                 0.8610
 IR Inten    --     34.6162                43.0161               117.5719

                     28                     29                     30
                      A                      A                      A
 Frequencies --    612.8799               634.7633               639.6796
 Red. masses --      3.1360                 6.4266                 6.1412
 Frc consts  --      0.6940                 1.5256                 1.4806
 IR Inten    --     27.6851                 0.5861                15.6873

                     31                     32                     33
                      A                      A                      A
 Frequencies --    665.4619               683.1313               721.8614
 Red. masses --      2.4441                 4.4804                 1.6724
 Frc consts  --      0.6377                 1.2319                 0.5135
 IR Inten    --    165.0166                13.2064                67.5415

                     34                     35                     36
                      A                      A                      A
 Frequencies --    730.7573               740.2255               768.5942
 Red. masses --      1.7470                 2.9328                 5.5552
 Frc consts  --      0.5497                 0.9468                 1.9335
 IR Inten    --    129.8861               178.4894                90.6941

                     37                     38                     39
                      A                      A                      A
 Frequencies --    794.3382               818.1114               847.4722
 Red. masses --      2.9866                 2.9191                 4.9641
 Frc consts  --      1.1103                 1.1511                 2.1006
 IR Inten    --     23.8106                67.5251                41.9226

                     40                     41                     42
                      A                      A                      A
 Frequencies --    867.6230               883.8593               910.6653
 Red. masses --      1.2529                 1.2619                 4.3925
 Frc consts  --      0.5557                 0.5808                 2.1463
 IR Inten    --      0.8245                 0.9555                 0.5937

                     43                     44                     45
                      A                      A                      A
 Frequencies --    956.1293               964.7147               992.2759
 Red. masses --      1.4596                 1.4446                 1.1495
 Frc consts  --      0.7861                 0.7921                 0.6668
 IR Inten    --      0.1385                14.9485                37.6242

                     46                     47                     48
                      A                      A                      A
 Frequencies --   1011.4072              1016.0514              1025.5575
 Red. masses --      1.3720                 1.4804                 5.2640
 Frc consts  --      0.8269                 0.9004                 3.2620
 IR Inten    --      0.5884                 5.6998                 3.3993

                     49                     50                     51
                      A                      A                      A
 Frequencies --   1026.9384              1033.6636              1034.2981
 Red. masses --      4.1260                 1.3199                 1.3299
 Frc consts  --      2.5637                 0.8309                 0.8382
 IR Inten    --      2.3956                 0.1182                 2.4887

                     52                     53                     54
                      A                      A                      A
 Frequencies --   1057.7918              1059.9245              1068.1543
 Red. masses --      1.7717                 1.5279                 2.2133
 Frc consts  --      1.1680                 1.0114                 1.4878
 IR Inten    --     62.0430                72.1741                13.7400

                     55                     56                     57
                      A                      A                      A
 Frequencies --   1074.6809              1112.5922              1129.3821
 Red. masses --      3.4602                 1.5497                 1.5957
 Frc consts  --      2.3546                 1.1302                 1.1991
 IR Inten    --     14.6849                15.2280                 6.0436

                     58                     59                     60
                      A                      A                      A
 Frequencies --   1149.6082              1185.0293              1188.1855
 Red. masses --      4.0828                 1.1406                 1.1572
 Frc consts  --      3.1791                 0.9437                 0.9626
 IR Inten    --     31.7175                 0.2912                 1.6503

                     61                     62                     63
                      A                      A                      A
 Frequencies --   1206.2539              1209.0365              1220.7078
 Red. masses --      1.3374                 2.2727                 1.3845
 Frc consts  --      1.1465                 1.9574                 1.2155
 IR Inten    --     36.2582                65.5411                20.8856

                     64                     65                     66
                      A                      A                      A
 Frequencies --   1226.7240              1316.8356              1320.7186
 Red. masses --      1.1779                 4.5017                 4.3391
 Frc consts  --      1.0444                 4.5992                 4.4593
 IR Inten    --      2.1056                84.2348                12.6873

                     67                     68                     69
                      A                      A                      A
 Frequencies --   1331.7674              1337.3958              1358.9301
 Red. masses --      4.7703                 1.3919                 1.4901
 Frc consts  --      4.9849                 1.4668                 1.6212
 IR Inten    --    118.5170                43.0174                 3.6830

                     70                     71                     72
                      A                      A                      A
 Frequencies --   1367.9443              1409.6866              1465.0090
 Red. masses --      1.4125                 5.9064                 1.2372
 Frc consts  --      1.5573                 6.9154                 1.5645
 IR Inten    --      5.2901              1218.6126                35.0604

                     73                     74                     75
                      A                      A                      A
 Frequencies --   1489.1640              1489.8543              1491.0468
 Red. masses --      2.0929                 2.0328                 1.1169
 Frc consts  --      2.7345                 2.6584                 1.4630
 IR Inten    --     28.0835                11.4499                17.9748

                     76                     77                     78
                      A                      A                      A
 Frequencies --   1510.4950              1541.8013              1545.5502
 Red. masses --      1.0439                 2.3295                 2.2599
 Frc consts  --      1.4033                 3.2627                 3.1805
 IR Inten    --     15.0443                 8.6605                13.1401

                     79                     80                     81
                      A                      A                      A
 Frequencies --   1646.2563              1649.2642              1655.4755
 Red. masses --      1.2906                 5.4615                 3.5422
 Frc consts  --      2.0608                 8.7527                 5.7197
 IR Inten    --    132.3504                91.4749                31.0669

                     82                     83                     84
                      A                      A                      A
 Frequencies --   1659.1474              1674.9700              1675.1666
 Red. masses --      9.5619                 5.8645                 5.8321
 Frc consts  --     15.5083                 9.6939                 9.6426
 IR Inten    --    546.6968                 0.7833                 0.6747

                     85                     86                     87
                      A                      A                      A
 Frequencies --   3068.2970              3141.8488              3175.8829
 Red. masses --      1.0347                 1.1034                 1.1045
 Frc consts  --      5.7394                 6.4176                 6.5636
 IR Inten    --     25.5430                 9.0831                15.5231

                     88                     89                     90
                      A                      A                      A
 Frequencies --   3195.2243              3199.2011              3200.6544
 Red. masses --      1.0862                 1.0880                 1.0865
 Frc consts  --      6.5336                 6.5606                 6.5577
 IR Inten    --      3.5962                 0.5476                 1.1793

                     91                     92                     93
                      A                      A                      A
 Frequencies --   3207.4195              3207.8980              3215.3210
 Red. masses --      1.0914                 1.0893                 1.0953
 Frc consts  --      6.6151                 6.6047                 6.6717
 IR Inten    --      8.6558                 3.3894                33.0340

                     94                     95                     96
                      A                      A                      A
 Frequencies --   3216.4491              3224.7505              3226.4744
 Red. masses --      1.0940                 1.0989                 1.0983
 Frc consts  --      6.6683                 6.7330                 6.7362
 IR Inten    --     19.1966                16.8023                19.3616

                     97                     98                     99
                      A                      A                      A
 Frequencies --   3259.3372              3515.1542              3593.7502
 Red. masses --      1.0912                 1.0522                 1.0953
 Frc consts  --      6.8296                 7.6603                 8.3341
 IR Inten    --     10.4078                44.5864                79.9582

 - Thermochemistry -
 -------------------
 Temperature   298.150 Kelvin.  Pressure   1.00000 Atm.
 Atom     1 has atomic number  6 and mass  12.00000

 Molecular mass:   351.00255 amu.
 Principal axes and moments of inertia in atomic units:
                           1         2         3
     Eigenvalues --  3885.557999306.02228**********
           X            0.99999  -0.00330  -0.00079
           Y            0.00334   0.99870   0.05083
           Z            0.00062  -0.05083   0.99871
 This molecule is an asymmetric top.
 Rotational symmetry number  1.
 Warning -- assumption of classical behavior for rotation
           may cause significant error
 Rotational temperatures (Kelvin)      0.02229     0.00931     0.00847
 Rotational constants (GHZ):           0.46447     0.19393     0.17652
    1 imaginary frequencies ignored.
 Zero-point vibrational energy     719807.2 (Joules/Mol)
                                  172.03804 (Kcal/Mol)
 Warning -- explicit consideration of  27 degrees of freedom as
           vibrations may cause significant error
 Vibrational temperatures:     43.88    51.11    70.02    92.99   109.04
          (Kelvin)            116.04   169.40   181.78   218.12   248.97
                              277.73   293.99   318.50   344.76   357.03
                              399.49   426.40   450.54   496.83   531.64
                              557.96   602.23   603.88   746.54   800.93
                              827.40   881.80   913.28   920.36   957.45
                              982.87  1038.60  1051.40  1065.02  1105.84
                             1142.88  1177.08  1219.32  1248.32  1271.68
                             1310.24  1375.66  1388.01  1427.66  1455.19
                             1461.87  1475.55  1477.54  1487.21  1488.12
                             1521.93  1524.99  1536.84  1546.23  1600.77
                             1624.93  1654.03  1704.99  1709.53  1735.53
                             1739.53  1756.33  1764.98  1894.63  1900.22
                             1916.12  1924.21  1955.20  1968.17  2028.22
                             2107.82  2142.57  2143.57  2145.28  2173.27
                             2218.31  2223.70  2368.60  2372.92  2381.86
                             2387.14  2409.91  2410.19  4414.60  4520.42
                             4569.39  4597.22  4602.94  4605.03  4614.76
                             4615.45  4626.13  4627.75  4639.70  4642.18
                             4689.46  5057.52  5170.60

 Zero-point correction=                           0.274160 (Hartree/Particle)
 Thermal correction to Energy=                    0.292844
 Thermal correction to Enthalpy=                  0.293788
 Thermal correction to Gibbs Free Energy=         0.225446
 Sum of electronic and zero-point Energies=          -3782.828025
 Sum of electronic and thermal Energies=             -3782.809342
 Sum of electronic and thermal Enthalpies=           -3782.808398
 Sum of electronic and thermal Free Energies=        -3782.876739

                     E (Thermal)             CV                S
                      KCal/Mol        Cal/Mol-Kelvin    Cal/Mol-Kelvin
 Total                  183.762             69.728            143.837
 Electronic               0.000              0.000              0.000
 Translational            0.889              2.981             43.461
 Rotational               0.889              2.981             34.268
 Vibrational            181.985             63.766             66.108
 Vibration     1          0.594              1.984              5.797
 Vibration     2          0.594              1.982              5.494
 Vibration     3          0.595              1.978              4.871
 Vibration     4          0.597              1.971              4.310
 Vibration     5          0.599              1.965              3.997
 Vibration     6          0.600              1.962              3.875
 Vibration     7          0.608              1.935              3.137
 Vibration     8          0.611              1.927              3.001
 Vibration     9          0.619              1.901              2.652
 Vibration    10          0.627              1.876              2.402
 Vibration    11          0.635              1.850              2.198
 Vibration    12          0.640              1.834              2.094
 Vibration    13          0.648              1.809              1.948
 Vibration    14          0.657              1.780              1.806
 Vibration    15          0.662              1.766              1.744
 Vibration    16          0.679              1.715              1.548
 Vibration    17          0.690              1.681              1.437
 Vibration    18          0.701              1.649              1.346
 Vibration    19          0.724              1.585              1.187
 Vibration    20          0.742              1.535              1.082
 Vibration    21          0.756              1.496              1.009
 Vibration    22          0.781              1.430              0.897
 Vibration    23          0.782              1.427              0.893
 Vibration    24          0.874              1.208              0.613
 Vibration    25          0.912              1.125              0.531
 Vibration    26          0.931              1.085              0.495
 Vibration    27          0.972              1.005              0.428

 Optimization completed.
    -- Stationary point found.
 Normal termination of Gaussian 16 at Sun Feb  7 14:40:18 2021.
