 Gaussian 16, Revision A.03,
 Gaussian 16:  ES64L-G16RevA.03 25-Dec-2016

 ----------------------------------------------------------------------
 # wB97XD def2tzvp, opt=(ts, noeigen, calcfc, maxcycles=70, maxstep=1),
  freq=noraman, scrf=(iefpcm, solvent=water)
 ----------------------------------------------------------------------

 ------------------------
 4_iteration/TS-112-4.out
 ------------------------
 Symbolic Z-matrix:
 Charge =  0 Multiplicity = 1

 SCF Done:  E(RwB97XD) =  -3362.82022004     A.U. after   15 cycles
 Optimization completed.
    -- Stationary point found.
 Normal termination of Gaussian 16 at Mon Feb  8 03:43:43 2021.

 ---------------------------------------------------------------------
 #N Geom=AllCheck Guess=TCheck SCRF=Check GenChk RwB97XD/def2TZVP Freq
 ---------------------------------------------------------------------

 Structure from the checkpoint file:  "/beegfs/scratch/user/q/tla25/Gau-5827.chk"
 ------------------------
 4_iteration/TS-112-4.out
 ------------------------
 Charge =  0 Multiplicity = 1

                         Standard orientation:
 ---------------------------------------------------------------------
 Center     Atomic      Atomic             Coordinates (Angstroms)
 Number     Number       Type             X           Y           Z
 ---------------------------------------------------------------------
      1          6           0       -0.122849    0.789069   -0.047239
      2          6           0       -1.464449    1.249940   -0.181759
      3          8           0       -1.779989    2.441000   -0.275129
      4          6           0        0.385491   -0.472231    0.325071
      5          6           0        0.788571   -1.461191    3.187541
      6          1           0        0.898981   -1.138991    4.223851
      7          1           0       -0.057629   -2.140661    3.119361
      8          1           0        1.687781   -1.992191    2.882201
      9          7           0        0.559851   -0.320131    2.296251
     10          1           0       -0.346209    0.097199    2.476391
     11          1           0        1.242221    0.415139    2.444811
     12          6           0        1.785451   -0.808151   -0.142919
     13          6           0        2.936951   -0.826241    0.630891
     14          6           0        4.159751   -1.178171    0.074141
     15          6           0        4.251481   -1.519061   -1.264389
     16          6           0        3.106571   -1.500181   -2.048609
     17          6           0        1.888811   -1.149201   -1.492559
     18          1           0        2.919451   -0.548131    1.673271
     19          1           0        5.044341   -1.178991    0.698141
     20          1           0        5.205941   -1.792451   -1.695389
     21          1           0        3.160161   -1.756481   -3.099059
     22          1           0        1.004481   -1.123961   -2.117489
     23          6           0       -0.472539   -1.722261    0.334141
     24          1           0       -0.721649   -2.001341   -0.688459
     25          1           0        0.099531   -2.539631    0.769531
     26          1           0       -1.400209   -1.599890    0.885281
     27         35           0        1.170411    2.219129   -0.121229
     28          6           0       -2.591999    0.258820   -0.292139
     29          6           0       -2.784909   -0.455070   -1.468309
     30          6           0       -3.868379   -1.311350   -1.595239
     31          6           0       -4.761259   -1.464270   -0.543779
     32          6           0       -4.576889   -0.744010    0.628791
     33          6           0       -3.502269    0.124020    0.749841
     34          1           0       -2.077329   -0.347930   -2.281969
     35          1           0       -4.013019   -1.863920   -2.515059
     36          1           0       -5.601759   -2.139900   -0.639159
     37          1           0       -5.273429   -0.856630    1.450051
     38          1           0       -3.360289    0.689390    1.663191
 ---------------------------------------------------------------------

 SCF Done:  E(RwB97XD) =  -3362.82022004     A.U. after    1 cycles

 The electronic state is 1-A.
 Alpha  occ. eigenvalues -- -483.11637 -62.66459 -56.45561 -56.45236 -56.45221
 Alpha  occ. eigenvalues --  -19.21292 -14.48456 -10.37456 -10.36421 -10.31989
 Alpha  occ. eigenvalues --  -10.31291 -10.31184 -10.30054 -10.29708 -10.29503
 Alpha  occ. eigenvalues --  -10.29397 -10.29386 -10.29369 -10.29319 -10.29288
 Alpha  occ. eigenvalues --  -10.29257 -10.29187 -10.29157 -10.28898  -8.80560
 Alpha  occ. eigenvalues --   -6.62656  -6.61619  -6.61573  -2.73054  -2.72758
 Alpha  occ. eigenvalues --   -2.72722  -2.71882  -2.71882  -1.12187  -1.04035
 Alpha  occ. eigenvalues --   -0.98038  -0.96944  -0.93660  -0.88026  -0.86814
 Alpha  occ. eigenvalues --   -0.85674  -0.85444  -0.84101  -0.79792  -0.78588
 Alpha  occ. eigenvalues --   -0.74507  -0.71126  -0.70963  -0.70716  -0.67742
 Alpha  occ. eigenvalues --   -0.64178  -0.63126  -0.61199  -0.59041  -0.57495
 Alpha  occ. eigenvalues --   -0.56910  -0.56065  -0.55176  -0.54876  -0.53673
 Alpha  occ. eigenvalues --   -0.53269  -0.52734  -0.51315  -0.51171  -0.50801
 Alpha  occ. eigenvalues --   -0.49688  -0.49369  -0.48182  -0.47406  -0.46714
 Alpha  occ. eigenvalues --   -0.45767  -0.45528  -0.43947  -0.43434  -0.43006
 Alpha  occ. eigenvalues --   -0.42740  -0.41371  -0.38398  -0.36885  -0.34649
 Alpha  occ. eigenvalues --   -0.34137  -0.34001  -0.33616  -0.31572  -0.28140
 Alpha virt. eigenvalues --    0.02262   0.04614   0.04700   0.04933   0.05477
 Alpha virt. eigenvalues --    0.08619   0.09527   0.12399   0.12926   0.13351
 Alpha virt. eigenvalues --    0.14053   0.14820   0.14896   0.16046   0.16657

 Mulliken charges:
               1
     1  C   -0.195928
     2  C    0.164498
     3  O   -0.475817
     4  C    0.160112
     5  C   -0.296329
     6  H    0.158769
     7  H    0.164716
     8  H    0.161009
     9  N   -0.369683
    10  H    0.281770
    11  H    0.281796
    12  C    0.219270
    13  C   -0.196084
    14  C   -0.164400
    15  C   -0.145011
    16  C   -0.139688
    17  C   -0.317776
    18  H    0.157434
    19  H    0.144156
    20  H    0.145415
    21  H    0.144570
    22  H    0.161822
    23  C   -0.434618
    24  H    0.168921
    25  H    0.177199
    26  H    0.176511
    27  Br  -0.170999
    28  C    0.196438
    29  C   -0.263184
    30  C   -0.129175
    31  C   -0.142765
    32  C   -0.145158
    33  C   -0.220669
    34  H    0.163264
    35  H    0.144546
    36  H    0.145637
    37  H    0.144336
    38  H    0.145096
 Sum of Mulliken charges =  -0.00000

 Dipole moment (field-independent basis, Debye):
    X=              2.7058    Y=             -9.8893    Z=              6.2930  Tot=             12.0300
 Quadrupole moment (field-independent basis, Debye-Ang):
   XX=           -122.7673   YY=           -148.8880   ZZ=           -105.1471
   XY=              9.5637   XZ=              0.3630   YZ=              4.0341

  Exact polarizability: 369.841   1.569 286.743   4.339   5.410 314.624
 Approx polarizability: 280.285   3.878 238.514   1.117   8.630 267.034

 ******    1 imaginary frequencies (negative Signs) ******

                      1                      2                      3
                      A                      A                      A
 Frequencies --   -309.8405                18.0026                27.4522
 Red. masses --      5.5522                 4.2445                 3.6521
 Frc consts  --      0.3140                 0.0008                 0.0016
 IR Inten    --    742.9074                 0.7583                 0.7791

                      4                      5                      6
                      A                      A                      A
 Frequencies --     47.2039                54.5812                70.7925
 Red. masses --      9.6224                 4.9730                 4.3807
 Frc consts  --      0.0126                 0.0087                 0.0129
 IR Inten    --      1.0884                 1.6363                 2.3130

                      7                      8                      9
                      A                      A                      A
 Frequencies --     75.2214                97.4877               138.4900
 Red. masses --      6.0347                 4.2251                 3.2647
 Frc consts  --      0.0201                 0.0237                 0.0369
 IR Inten    --      2.1202                 4.7513                 0.1505

                     10                     11                     12
                      A                      A                      A
 Frequencies --    152.9795               184.1933               200.5964
 Red. masses --      1.3532                 8.4499                 4.6080
 Frc consts  --      0.0187                 0.1689                 0.1092
 IR Inten    --      4.5130                 1.2496                 0.6916

                     13                     14                     15
                      A                      A                      A
 Frequencies --    208.5374               221.3534               238.8867
 Red. masses --      2.3893                 4.4704                 3.7334
 Frc consts  --      0.0612                 0.1291                 0.1255
 IR Inten    --      1.4675                 1.5387                 2.7647

                     16                     17                     18
                      A                      A                      A
 Frequencies --    285.2491               309.7347               317.0228
 Red. masses --      3.1035                 3.3341                 3.2621
 Frc consts  --      0.1488                 0.1885                 0.1932
 IR Inten    --     21.2156                18.8083                 8.3983

                     19                     20                     21
                      A                      A                      A
 Frequencies --    332.9765               378.8535               388.7450
 Red. masses --      3.2743                 4.2312                 3.2059
 Frc consts  --      0.2139                 0.3578                 0.2854
 IR Inten    --     21.7692                 9.9697                 3.3889

                     22                     23                     24
                      A                      A                      A
 Frequencies --    395.9417               418.0314               422.9122
 Red. masses --      1.6222                 2.8008                 2.9304
 Frc consts  --      0.1498                 0.2884                 0.3088
 IR Inten    --      7.4156                 0.3806                 0.0158

                     25                     26                     27
                      A                      A                      A
 Frequencies --    439.3796               541.5268               557.8338
 Red. masses --      4.0375                 3.8772                 4.1221
 Frc consts  --      0.4592                 0.6699                 0.7558
 IR Inten    --      5.3961               160.9706                18.7177

                     28                     29                     30
                      A                      A                      A
 Frequencies --    568.3488               634.5710               635.5061
 Red. masses --      3.3498                 6.2630                 3.2954
 Frc consts  --      0.6375                 1.4859                 0.7841
 IR Inten    --     96.4901                 2.1457                30.6498

                     31                     32                     33
                      A                      A                      A
 Frequencies --    639.1159               654.4572               681.5437
 Red. masses --      4.6909                 2.1286                 3.1989
 Frc consts  --      1.1289                 0.5372                 0.8755
 IR Inten    --     20.5887               127.5142                14.6215

                     34                     35                     36
                      A                      A                      A
 Frequencies --    727.9702               728.3326               772.9363
 Red. masses --      1.5673                 1.5371                 7.2104
 Frc consts  --      0.4894                 0.4804                 2.5380
 IR Inten    --     51.3228               130.0944                26.9352

                     37                     38                     39
                      A                      A                      A
 Frequencies --    781.9951               795.6221               826.1365
 Red. masses --      3.1040                 2.5793                 3.7296
 Frc consts  --      1.1184                 0.9620                 1.4997
 IR Inten    --     57.7417                24.2213                52.7035

                     40                     41                     42
                      A                      A                      A
 Frequencies --    839.6647               874.3821               880.9456
 Red. masses --      3.1086                 1.2453                 1.2493
 Frc consts  --      1.2913                 0.5609                 0.5712
 IR Inten    --     53.3202                 0.1100                 0.0660

                     43                     44                     45
                      A                      A                      A
 Frequencies --    953.1107               960.6713              1001.3951
 Red. masses --      1.4098                 1.5010                 1.7744
 Frc consts  --      0.7546                 0.8162                 1.0484
 IR Inten    --      3.8208                22.5409                66.4200

                     46                     47                     48
                      A                      A                      A
 Frequencies --   1011.9894              1013.2405              1018.8504
 Red. masses --      1.4513                 1.3814                 1.6732
 Frc consts  --      0.8757                 0.8356                 1.0233
 IR Inten    --      8.2685                 0.1800                19.1892

                     49                     50                     51
                      A                      A                      A
 Frequencies --   1025.8698              1026.0725              1031.4182
 Red. masses --      5.2211                 3.6442                 1.3206
 Frc consts  --      3.2374                 2.2605                 0.8278
 IR Inten    --      3.6207                 2.6994                 1.2517

                     52                     53                     54
                      A                      A                      A
 Frequencies --   1031.7422              1045.5505              1053.6074
 Red. masses --      1.3123                 1.4686                 2.1089
 Frc consts  --      0.8230                 0.9459                 1.3793
 IR Inten    --      5.2023               197.1590                37.3743

                     55                     56                     57
                      A                      A                      A
 Frequencies --   1061.0663              1067.7684              1072.2163
 Red. masses --      2.2294                 2.3236                 1.7475
 Frc consts  --      1.4788                 1.5609                 1.1837
 IR Inten    --     15.0602                92.7249                 8.6469

                     58                     59                     60
                      A                      A                      A
 Frequencies --   1109.4296              1110.7587              1130.4659
 Red. masses --      1.7414                 1.5452                 1.6013
 Frc consts  --      1.2629                 1.1232                 1.2057
 IR Inten    --      5.9605                12.1693                 6.3453

                     61                     62                     63
                      A                      A                      A
 Frequencies --   1173.6924              1183.0471              1186.9505
 Red. masses --      3.8718                 1.1402                 1.1359
 Frc consts  --      3.1424                 0.9402                 0.9429
 IR Inten    --     14.1388                 0.0173                 0.3368

                     64                     65                     66
                      A                      A                      A
 Frequencies --   1205.9952              1224.2184              1232.9469
 Red. masses --      1.1230                 1.1572                 1.3619
 Frc consts  --      0.9623                 1.0218                 1.2198
 IR Inten    --      0.9116                 6.1119                36.0498

                     67                     68                     69
                      A                      A                      A
 Frequencies --   1257.1346              1318.5305              1324.5399
 Red. masses --      4.1155                 4.4090                 4.7270
 Frc consts  --      3.8321                 4.5161                 4.8861
 IR Inten    --     45.9796                 4.6563                 0.8792

                     70                     71                     72
                      A                      A                      A
 Frequencies --   1340.8522              1344.6731              1358.5683
 Red. masses --      3.3041                 1.5967                 1.4514
 Frc consts  --      3.5000                 1.7010                 1.5783
 IR Inten    --     53.9740                31.7288                 1.3397

                     73                     74                     75
                      A                      A                      A
 Frequencies --   1367.8853              1414.9511              1424.5176
 Red. masses --      1.3970                 3.8288                 1.2183
 Frc consts  --      1.5400                 4.5164                 1.4566
 IR Inten    --      4.9651              1294.1070                22.0710

                     76                     77                     78
                      A                      A                      A
 Frequencies --   1468.6053              1487.1932              1488.4176
 Red. masses --      1.2081                 2.0104                 2.1228
 Frc consts  --      1.5351                 2.6197                 2.7709
 IR Inten    --     29.4095                46.1278                19.1681

                     79                     80                     81
                      A                      A                      A
 Frequencies --   1492.3870              1503.0611              1504.3865
 Red. masses --      1.2002                 1.0480                 1.0622
 Frc consts  --      1.5749                 1.3950                 1.4164
 IR Inten    --     54.3054                 9.6440                26.3334

                     82                     83                     84
                      A                      A                      A
 Frequencies --   1520.3064              1540.7115              1547.2430
 Red. masses --      1.0555                 2.3326                 2.2640
 Frc consts  --      1.4374                 3.2624                 3.1934
 IR Inten    --     25.2536                11.8348                14.5006

                     85                     86                     87
                      A                      A                      A
 Frequencies --   1622.6141              1649.8234              1650.6004
 Red. masses --     12.0080                 5.8155                 2.8710
 Frc consts  --     18.6273                 9.3263                 4.6086
 IR Inten    --    806.4960                 9.9829                17.2737

                     88                     89                     90
                      A                      A                      A
 Frequencies --   1661.1893              1673.9446              1677.1580
 Red. masses --      1.3815                 5.8775                 5.1303
 Frc consts  --      2.2461                 9.7035                 8.5024
 IR Inten    --     40.3336                 0.4091                 3.3078

                     91                     92                     93
                      A                      A                      A
 Frequencies --   3071.0165              3087.1707              3150.4858
 Red. masses --      1.0368                 1.0367                 1.1012
 Frc consts  --      5.7609                 5.8213                 6.4397
 IR Inten    --     49.8033                12.9750                15.1449

                     94                     95                     96
                      A                      A                      A
 Frequencies --   3159.3686              3176.3947              3188.2674
 Red. masses --      1.1016                 1.1054                 1.1024
 Frc consts  --      6.4787                 6.5712                 6.6021
 IR Inten    --     15.0607                15.7628                15.0163

                     97                     98                     99
                      A                      A                      A
 Frequencies --   3191.8769              3194.5953              3195.7429
 Red. masses --      1.0866                 1.0884                 1.0864
 Frc consts  --      6.5226                 6.5442                 6.5370
 IR Inten    --      3.9139                 1.9209                 2.4495

                    100                    101                    102
                      A                      A                      A
 Frequencies --   3202.8730              3203.8840              3211.7387
 Red. masses --      1.0888                 1.0912                 1.0936
 Frc consts  --      6.5809                 6.5995                 6.6462
 IR Inten    --      1.5906                 6.1050                24.1682

                    103                    104                    105
                      A                      A                      A
 Frequencies --   3212.0936              3222.9275              3223.1053
 Red. masses --      1.0951                 1.0988                 1.0980
 Frc consts  --      6.6568                 6.7245                 6.7205
 IR Inten    --     36.8056                23.0047                21.5783

                    106                    107                    108
                      A                      A                      A
 Frequencies --   3249.8711              3523.2076              3596.4135
 Red. masses --      1.0916                 1.0520                 1.0949
 Frc consts  --      6.7927                 7.6936                 8.3439
 IR Inten    --     15.6954                14.1367                35.5555

 - Thermochemistry -
 -------------------
 Temperature   298.150 Kelvin.  Pressure   1.00000 Atm.
 Atom     1 has atomic number  6 and mass  12.00000

 Molecular mass:   331.05718 amu.
 Principal axes and moments of inertia in atomic units:
                           1         2         3
     Eigenvalues --  4406.253699228.13111**********
           X            0.99985  -0.01716   0.00228
           Y            0.01717   0.99985  -0.00327
           Z           -0.00222   0.00331   0.99999
 This molecule is an asymmetric top.
 Rotational symmetry number  1.
 Warning -- assumption of classical behavior for rotation
           may cause significant error
 Rotational temperatures (Kelvin)      0.01966     0.00939     0.00838
 Rotational constants (GHZ):           0.40959     0.19557     0.17466
    1 imaginary frequencies ignored.
 Zero-point vibrational energy     820625.8 (Joules/Mol)
                                  196.13426 (Kcal/Mol)
 Warning -- explicit consideration of  27 degrees of freedom as
           vibrations may cause significant error
 Vibrational temperatures:     25.90    39.50    67.92    78.53   101.85
          (Kelvin)            108.23   140.26   199.26   220.10   265.01
                              288.61   300.04   318.48   343.70   410.41
                              445.64   456.13   479.08   545.09   559.32
                              569.67   601.45   608.48   632.17   779.14
                              802.60   817.73   913.01   914.35   919.55
                              941.62   980.59  1047.39  1047.91  1112.08
                             1125.12  1144.72  1188.63  1208.09  1258.04
                             1267.48  1371.31  1382.19  1440.78  1456.03
                             1457.83  1465.90  1476.00  1476.29  1483.98
                             1484.45  1504.31  1515.91  1526.64  1536.28
                             1542.68  1596.22  1598.13  1626.49  1688.68
                             1702.14  1707.76  1735.16  1761.38  1773.94
                             1808.74  1897.07  1905.72  1929.19  1934.68
                             1954.68  1968.08  2035.80  2049.56  2113.00
                             2139.74  2141.50  2147.21  2162.57  2164.48
                             2187.38  2216.74  2226.14  2334.58  2373.73
                             2374.85  2390.08  2408.43  2413.06  4418.51
                             4441.75  4532.85  4545.63  4570.12  4587.21
                             4592.40  4596.31  4597.96  4608.22  4609.67
                             4620.98  4621.49  4637.07  4637.33  4675.84
                             5069.11  5174.44

 Zero-point correction=                           0.312560 (Hartree/Particle)
 Thermal correction to Energy=                    0.331392
 Thermal correction to Enthalpy=                  0.332336
 Thermal correction to Gibbs Free Energy=         0.263011
 Sum of electronic and zero-point Energies=          -3362.507660
 Sum of electronic and thermal Energies=             -3362.488828
 Sum of electronic and thermal Enthalpies=           -3362.487884
 Sum of electronic and thermal Free Energies=        -3362.557209

                     E (Thermal)             CV                S
                      KCal/Mol        Cal/Mol-Kelvin    Cal/Mol-Kelvin
 Total                  207.951             71.281            145.907
 Electronic               0.000              0.000              0.000
 Translational            0.889              2.981             43.286
 Rotational               0.889              2.981             34.396
 Vibrational            206.174             65.320             68.225
 Vibration     1          0.593              1.986              6.843
 Vibration     2          0.593              1.984              6.006
 Vibration     3          0.595              1.979              4.931
 Vibration     4          0.596              1.976              4.644
 Vibration     5          0.598              1.968              4.131
 Vibration     6          0.599              1.966              4.012
 Vibration     7          0.603              1.951              3.504
 Vibration     8          0.614              1.915              2.825
 Vibration     9          0.619              1.899              2.635
 Vibration    10          0.631              1.861              2.285
 Vibration    11          0.638              1.839              2.128
 Vibration    12          0.642              1.828              2.056
 Vibration    13          0.648              1.809              1.948
 Vibration    14          0.657              1.781              1.811
 Vibration    15          0.683              1.701              1.502
 Vibration    16          0.699              1.655              1.364
 Vibration    17          0.704              1.641              1.325
 Vibration    18          0.715              1.610              1.246
 Vibration    19          0.749              1.515              1.044
 Vibration    20          0.757              1.494              1.005
 Vibration    21          0.763              1.479              0.978
 Vibration    22          0.781              1.431              0.899
 Vibration    23          0.785              1.420              0.882
 Vibration    24          0.799              1.384              0.829
 Vibration    25          0.897              1.158              0.562
 Vibration    26          0.913              1.123              0.528
 Vibration    27          0.924              1.100              0.507

 Optimization completed.
    -- Stationary point found.
 Normal termination of Gaussian 16 at Mon Feb  8 06:17:48 2021.
