 Gaussian 16, Revision A.03,
 Gaussian 16:  ES64L-G16RevA.03 25-Dec-2016

 ----------------------------------------------------------------------
 # wB97XD def2tzvp, opt=(ts, noeigen, calcfc, maxcycles=70, maxstep=5),
  freq=noraman, scrf=(iefpcm, solvent=water)
 ----------------------------------------------------------------------

 ------------------------
 2_iteration/TS-197-2.out
 ------------------------
 Symbolic Z-matrix:
 Charge =  0 Multiplicity = 1

 SCF Done:  E(RwB97XD) =  -1532.74324920     A.U. after   15 cycles
 SCF Done:  E(RwB97XD) =  -1532.74324917     A.U. after    7 cycles
 Optimization completed.
    -- Stationary point found.
 Normal termination of Gaussian 16 at Sun Feb  7 12:03:06 2021.

 ---------------------------------------------------------------------
 #N Geom=AllCheck Guess=TCheck SCRF=Check GenChk RwB97XD/def2TZVP Freq
 ---------------------------------------------------------------------

 Structure from the checkpoint file:  "/beegfs/scratch/user/q/tla25/Gau-122635.chk"
 ------------------------
 2_iteration/TS-197-2.out
 ------------------------
 Charge =  0 Multiplicity = 1

                         Standard orientation:
 ---------------------------------------------------------------------
 Center     Atomic      Atomic             Coordinates (Angstroms)
 Number     Number       Type             X           Y           Z
 ---------------------------------------------------------------------
      1          6           0        0.870470   -0.445079   -0.029417
      2          6           0        2.283412   -0.128049   -0.170874
      3          8           0        2.661711    1.033897   -0.389288
      4          6           0       -0.135384    0.466125   -0.308085
      5          6           0        0.478935    1.700568    2.200512
      6          1           0        1.141776    2.445384    2.640500
      7          1           0       -0.435541    1.646861    2.785453
      8          1           0        0.976811    0.729598    2.230655
      9          7           0        0.185851    2.014736    0.808257
     10          1           0       -0.500155    2.751241    0.691113
     11          1           0        1.045058    2.273691    0.328287
     12          6           0       -1.573800    0.070725   -0.146910
     13          6           0       -2.421874    0.598629    0.814947
     14          6           0       -3.742858    0.175358    0.898660
     15          6           0       -4.230367   -0.775569    0.019989
     16          6           0       -3.388696   -1.303726   -0.951281
     17          6           0       -2.074896   -0.882869   -1.034589
     18          1           0       -2.076796    1.341722    1.516201
     19          1           0       -4.388003    0.598145    1.657943
     20          1           0       -5.259749   -1.103436    0.086421
     21          1           0       -3.758000   -2.046040   -1.647158
     22          1           0       -1.422751   -1.297030   -1.792933
     23         17           0        0.021398    1.419559   -1.852290
     24         17           0        0.451768   -1.934171    0.815497
     25          7           0        3.180001   -1.127929   -0.033003
     26          6           0        4.601776   -0.892082   -0.111725
     27          1           0        2.847411   -2.062723    0.115803
     28          1           0        5.119560   -1.826038    0.094769
     29          1           0        4.895667   -0.539088   -1.102526
     30          1           0        4.915925   -0.146901    0.621111
 ---------------------------------------------------------------------

 SCF Done:  E(RwB97XD) =  -1532.74324917     A.U. after    1 cycles

 The electronic state is 1-A.
 Alpha  occ. eigenvalues -- -101.69480-101.69291 -19.20851 -14.48438 -14.45084
 Alpha  occ. eigenvalues --  -10.40922 -10.38552 -10.31754 -10.31722 -10.31567
 Alpha  occ. eigenvalues --  -10.30897 -10.30044 -10.29778 -10.29574 -10.29530
 Alpha  occ. eigenvalues --  -10.29475  -9.57998  -9.57881  -7.32637  -7.32521
 Alpha  occ. eigenvalues --   -7.31798  -7.31757  -7.31668  -7.31626  -1.13611
 Alpha  occ. eigenvalues --   -1.04436  -1.02032  -0.99254  -0.96350  -0.94393
 Alpha  occ. eigenvalues --   -0.87150  -0.85883  -0.83088  -0.80400  -0.78924
 Alpha  occ. eigenvalues --   -0.73460  -0.71345  -0.68541  -0.66408  -0.63842
 Alpha  occ. eigenvalues --   -0.61406  -0.59206  -0.57842  -0.56877  -0.55978
 Alpha  occ. eigenvalues --   -0.54890  -0.54546  -0.52993  -0.52277  -0.51784
 Alpha  occ. eigenvalues --   -0.51429  -0.48885  -0.48463  -0.47542  -0.47325
 Alpha  occ. eigenvalues --   -0.46786  -0.45613  -0.44040  -0.43200  -0.42578
 Alpha  occ. eigenvalues --   -0.40996  -0.40313  -0.38681  -0.34570  -0.34449
 Alpha  occ. eigenvalues --   -0.33825  -0.33432  -0.27548
 Alpha virt. eigenvalues --    0.02707   0.04294   0.04835   0.08100   0.10896
 Alpha virt. eigenvalues --    0.11846   0.12919   0.14165   0.14952   0.15106
 Alpha virt. eigenvalues --    0.15576   0.16619   0.17306   0.18096   0.18698

 Mulliken charges:
               1
     1  C   -0.332353
     2  C    0.407078
     3  O   -0.561580
     4  C    0.318203
     5  C   -0.284732
     6  H    0.157750
     7  H    0.150301
     8  H    0.153438
     9  N   -0.344854
    10  H    0.290368
    11  H    0.281132
    12  C    0.163014
    13  C   -0.167071
    14  C   -0.165411
    15  C   -0.146076
    16  C   -0.113871
    17  C   -0.315683
    18  H    0.130131
    19  H    0.145674
    20  H    0.147477
    21  H    0.147211
    22  H    0.155208
    23  Cl  -0.140975
    24  Cl  -0.157505
    25  N   -0.321597
    26  C   -0.247665
    27  H    0.252289
    28  H    0.142448
    29  H    0.128702
    30  H    0.128948
 Sum of Mulliken charges =  -0.00000

 Dipole moment (field-independent basis, Debye):
    X=             -2.2874    Y=              0.9036    Z=              4.1051  Tot=              4.7855
 Quadrupole moment (field-independent basis, Debye-Ang):
   XX=            -96.6450   YY=            -99.0367   ZZ=           -106.3950
   XY=             -9.1434   XZ=              1.4292   YZ=             12.7402

  Exact polarizability: 283.067  -2.152 237.138 -11.999  13.923 212.316
 Approx polarizability: 212.921   2.048 204.871 -10.305  10.240 184.038

 ******    1 imaginary frequencies (negative Signs) ******

                      1                      2                      3
                      A                      A                      A
 Frequencies --   -348.6299                23.7779                50.5933
 Red. masses --      5.5102                 3.7077                 4.3711
 Frc consts  --      0.3946                 0.0012                 0.0066
 IR Inten    --    537.9947                 0.5977                 5.5813

                      4                      5                      6
                      A                      A                      A
 Frequencies --     73.4925                77.5003                87.7548
 Red. masses --      5.5580                 3.1304                 1.4933
 Frc consts  --      0.0177                 0.0111                 0.0068
 IR Inten    --      4.9142                 6.3393                 6.2341

                      7                      8                      9
                      A                      A                      A
 Frequencies --    124.6676               129.9181               133.4394
 Red. masses --      4.7092                 1.7977                 2.3842
 Frc consts  --      0.0431                 0.0179                 0.0250
 IR Inten    --      5.1121                 3.0353                 0.9469

                     10                     11                     12
                      A                      A                      A
 Frequencies --    159.4197               164.8882               201.8848
 Red. masses --      2.1767                 5.6774                 3.3371
 Frc consts  --      0.0326                 0.0909                 0.0801
 IR Inten    --     20.1948                11.0356                10.5922

                     13                     14                     15
                      A                      A                      A
 Frequencies --    216.1577               231.8399               267.2815
 Red. masses --      4.8889                 3.5597                 6.1533
 Frc consts  --      0.1346                 0.1127                 0.2590
 IR Inten    --      9.1952                 3.6579                 0.2804

                     16                     17                     18
                      A                      A                      A
 Frequencies --    277.9515               300.8759               322.7118
 Red. masses --      4.7805                 4.4066                 3.5665
 Frc consts  --      0.2176                 0.2350                 0.2188
 IR Inten    --      5.3983                 6.7596                18.6577

                     19                     20                     21
                      A                      A                      A
 Frequencies --    346.4741               359.1256               418.0876
 Red. masses --      4.6439                 7.0533                 1.4319
 Frc consts  --      0.3285                 0.5360                 0.1475
 IR Inten    --     58.1183                57.8605                56.1169

                     22                     23                     24
                      A                      A                      A
 Frequencies --    419.1470               457.3838               522.0093
 Red. masses --      2.5824                 8.6472                 3.7959
 Frc consts  --      0.2673                 1.0658                 0.6094
 IR Inten    --      7.5954                 7.4359                10.3443

                     25                     26                     27
                      A                      A                      A
 Frequencies --    566.3098               610.4125               640.6081
 Red. masses --      4.0930                 4.4555                 6.3199
 Frc consts  --      0.7734                 0.9781                 1.5281
 IR Inten    --    173.3535                46.4822                22.0314

                     28                     29                     30
                      A                      A                      A
 Frequencies --    685.9422               720.7908               736.1074
 Red. masses --      2.0578                 1.9896                 2.1457
 Frc consts  --      0.5705                 0.6090                 0.6850
 IR Inten    --     99.0209                16.6278               301.9365

                     31                     32                     33
                      A                      A                      A
 Frequencies --    773.3655               786.3011               816.4665
 Red. masses --      5.2938                 6.5693                 2.8094
 Frc consts  --      1.8655                 2.3930                 1.1034
 IR Inten    --     72.5451                59.6289                23.9987

                     34                     35                     36
                      A                      A                      A
 Frequencies --    870.3019               890.7994               957.9850
 Red. masses --      1.2540                 4.0582                 1.4570
 Frc consts  --      0.5596                 1.8973                 0.7878
 IR Inten    --      0.3520                 5.3775                 0.5162

                     37                     38                     39
                      A                      A                      A
 Frequencies --    998.0797              1012.2308              1025.5893
 Red. masses --      1.1049                 1.3737                 4.9966
 Frc consts  --      0.6485                 0.8293                 3.0965
 IR Inten    --     48.1046                 1.4587                 7.9271

                     40                     41                     42
                      A                      A                      A
 Frequencies --   1028.7441              1033.7261              1066.2280
 Red. masses --      4.0666                 1.3364                 2.1425
 Frc consts  --      2.5357                 0.8414                 1.4350
 IR Inten    --      9.3740                 0.7379                13.7560

                     43                     44                     45
                      A                      A                      A
 Frequencies --   1080.1062              1102.5530              1122.8354
 Red. masses --      4.7068                 1.2232                 1.5941
 Frc consts  --      3.2353                 0.8761                 1.1841
 IR Inten    --     57.1229                54.2887                 9.3428

                     46                     47                     48
                      A                      A                      A
 Frequencies --   1150.4069              1158.2620              1186.4944
 Red. masses --      4.5694                 1.3089                 1.1373
 Frc consts  --      3.5630                 1.0346                 0.9433
 IR Inten    --     11.1395                 0.2290                 0.1279

                     49                     50                     51
                      A                      A                      A
 Frequencies --   1189.1631              1216.1775              1217.1238
 Red. masses --      1.7293                 1.1364                 1.8435
 Frc consts  --      1.4408                 0.9903                 1.6090
 IR Inten    --     20.0339                 6.2057                71.6767

                     52                     53                     54
                      A                      A                      A
 Frequencies --   1226.8679              1304.7816              1322.8536
 Red. masses --      2.2717                 2.1920                 4.2209
 Frc consts  --      2.0147                 2.1987                 4.3519
 IR Inten    --     37.1233               300.8147                40.2572

                     55                     56                     57
                      A                      A                      A
 Frequencies --   1357.1919              1361.1419              1445.8789
 Red. masses --      1.2919                 1.4382                 2.5195
 Frc consts  --      1.4020                 1.5700                 3.1033
 IR Inten    --     23.0163                 6.6874               577.2802

                     58                     59                     60
                      A                      A                      A
 Frequencies --   1458.1591              1474.1180              1477.2640
 Red. masses --      1.2512                 1.4829                 1.0784
 Frc consts  --      1.5674                 1.8986                 1.3865
 IR Inten    --      9.0865               129.3137                14.5958

                     61                     62                     63
                      A                      A                      A
 Frequencies --   1488.5265              1490.1034              1507.1730
 Red. masses --      1.0683                 2.0848                 1.0757
 Frc consts  --      1.3947                 2.7274                 1.4397
 IR Inten    --     15.9017                36.0610                16.2796

                     64                     65                     66
                      A                      A                      A
 Frequencies --   1510.4314              1547.6032              1564.0180
 Red. masses --      1.0425                 2.4352                 2.1352
 Frc consts  --      1.4013                 3.4364                 3.0774
 IR Inten    --      8.5086                26.3537               760.2677

                     67                     68                     69
                      A                      A                      A
 Frequencies --   1618.7291              1652.9155              1659.6120
 Red. masses --      1.4520                 4.9833                 3.1180
 Frc consts  --      2.2416                 8.0218                 5.0600
 IR Inten    --    331.5960                36.7684               138.4607

                     70                     71                     72
                      A                      A                      A
 Frequencies --   1676.6717              3050.7328              3066.2862
 Red. masses --      5.9765                 1.0360                 1.0348
 Frc consts  --      9.8990                 5.6810                 5.7322
 IR Inten    --      0.6542                77.4050                36.4518

                     73                     74                     75
                      A                      A                      A
 Frequencies --   3108.5513              3136.2855              3162.1370
 Red. masses --      1.1040                 1.1035                 1.1017
 Frc consts  --      6.2857                 6.3949                 6.4906
 IR Inten    --     41.4721                10.9189                21.8058

                     76                     77                     78
                      A                      A                      A
 Frequencies --   3174.7089              3199.9268              3207.3466
 Red. masses --      1.1039                 1.0863                 1.0894
 Frc consts  --      6.5554                 6.5534                 6.6031
 IR Inten    --     20.4994                 0.3715                 4.7718

                     79                     80                     81
                      A                      A                      A
 Frequencies --   3216.0015              3225.3908              3260.3673
 Red. masses --      1.0941                 1.0983                 1.0911
 Frc consts  --      6.6669                 6.7320                 6.8339
 IR Inten    --     20.8224                18.3721                12.0289

                     82                     83                     84
                      A                      A                      A
 Frequencies --   3473.4065              3591.8133              3684.2520
 Red. masses --      1.0571                 1.0912                 1.0781
 Frc consts  --      7.5138                 8.2943                 8.6222
 IR Inten    --     70.4572                94.0742                91.2561

 - Thermochemistry -
 -------------------
 Temperature   298.150 Kelvin.  Pressure   1.00000 Atm.
 Atom     1 has atomic number  6 and mass  12.00000

 Molecular mass:   260.04832 amu.
 Principal axes and moments of inertia in atomic units:
                           1         2         3
     Eigenvalues --  2544.627526077.883056598.21890
           X            0.99999  -0.00394  -0.00062
           Y            0.00398   0.98056   0.19619
           Z           -0.00017  -0.19619   0.98057
 This molecule is an asymmetric top.
 Rotational symmetry number  1.
 Warning -- assumption of classical behavior for rotation
           may cause significant error
 Rotational temperatures (Kelvin)      0.03404     0.01425     0.01313
 Rotational constants (GHZ):           0.70924     0.29694     0.27352
    1 imaginary frequencies ignored.
 Zero-point vibrational energy     626309.3 (Joules/Mol)
                                  149.69152 (Kcal/Mol)
 Warning -- explicit consideration of  25 degrees of freedom as
           vibrations may cause significant error
 Vibrational temperatures:     34.21    72.79   105.74   111.51   126.26
          (Kelvin)            179.37   186.92   191.99   229.37   237.24
                              290.47   311.00   333.57   384.56   399.91
                              432.89   464.31   498.50   516.70   601.53
                              603.06   658.07   751.05   814.79   878.25
                              921.69   986.92  1037.06  1059.09  1112.70
                             1131.31  1174.71  1252.17  1281.66  1378.33
                             1436.01  1456.37  1475.59  1480.13  1487.30
                             1534.06  1554.03  1586.33  1615.51  1655.18
                             1666.48  1707.10  1710.94  1749.81  1751.17
                             1765.19  1877.29  1903.29  1952.70  1958.38
                             2080.30  2097.97  2120.93  2125.45  2141.66
                             2143.93  2168.49  2173.17  2226.66  2250.27
                             2328.99  2378.18  2387.81  2412.36  4389.32
                             4411.70  4472.51  4512.42  4549.61  4567.70
                             4603.98  4614.66  4627.11  4640.62  4690.94
                             4997.46  5167.82  5300.82

 Zero-point correction=                           0.238549 (Hartree/Particle)
 Thermal correction to Energy=                    0.255501
 Thermal correction to Enthalpy=                  0.256445
 Thermal correction to Gibbs Free Energy=         0.192736
 Sum of electronic and zero-point Energies=          -1532.504701
 Sum of electronic and thermal Energies=             -1532.487748
 Sum of electronic and thermal Enthalpies=           -1532.486804
 Sum of electronic and thermal Free Energies=        -1532.550513

                     E (Thermal)             CV                S
                      KCal/Mol        Cal/Mol-Kelvin    Cal/Mol-Kelvin
 Total                  160.329             60.914            134.088
 Electronic               0.000              0.000              0.000
 Translational            0.889              2.981             42.567
 Rotational               0.889              2.981             32.989
 Vibrational            158.552             54.952             58.532
 Vibration     1          0.593              1.985              6.291
 Vibration     2          0.595              1.977              4.794
 Vibration     3          0.599              1.967              4.058
 Vibration     4          0.599              1.964              3.953
 Vibration     5          0.601              1.958              3.710
 Vibration     6          0.610              1.928              3.027
 Vibration     7          0.612              1.923              2.947
 Vibration     8          0.613              1.920              2.896
 Vibration     9          0.621              1.892              2.557
 Vibration    10          0.623              1.886              2.493
 Vibration    11          0.639              1.837              2.116
 Vibration    12          0.645              1.816              1.991
 Vibration    13          0.653              1.792              1.865
 Vibration    14          0.672              1.733              1.614
 Vibration    15          0.679              1.714              1.546
 Vibration    16          0.693              1.672              1.412
 Vibration    17          0.708              1.630              1.296
 Vibration    18          0.724              1.582              1.182
 Vibration    19          0.734              1.556              1.126
 Vibration    20          0.781              1.431              0.898
 Vibration    21          0.782              1.429              0.895
 Vibration    22          0.816              1.345              0.774
 Vibration    23          0.877              1.201              0.605
 Vibration    24          0.922              1.104              0.511
 Vibration    25          0.969              1.010              0.432

 Optimization completed.
    -- Stationary point found.
 Normal termination of Gaussian 16 at Sun Feb  7 13:09:24 2021.
