 Gaussian 16, Revision A.03,
 Gaussian 16:  ES64L-G16RevA.03 25-Dec-2016

 ----------------------------------------------------------------------
 # wB97XD def2tzvp, opt=(ts, noeigen, calcfc, maxcycles=70, maxstep=8),
  freq=noraman, scrf=(iefpcm, solvent=water)
 ----------------------------------------------------------------------

 ------------------------
 1_iteration/TS-181-1.out
 ------------------------
 Symbolic Z-matrix:
 Charge =  0 Multiplicity = 1

 SCF Done:  E(RwB97XD) =  -1112.43343487     A.U. after   15 cycles
 SCF Done:  E(RwB97XD) =  -1112.43702631     A.U. after   13 cycles
 SCF Done:  E(RwB97XD) =  -1112.44062593     A.U. after   13 cycles
 SCF Done:  E(RwB97XD) =  -1112.44385617     A.U. after   13 cycles
 SCF Done:  E(RwB97XD) =  -1112.44654629     A.U. after   12 cycles
 SCF Done:  E(RwB97XD) =  -1112.44894099     A.U. after   12 cycles
 SCF Done:  E(RwB97XD) =  -1112.44990870     A.U. after   12 cycles
 SCF Done:  E(RwB97XD) =  -1112.45039080     A.U. after   13 cycles
 SCF Done:  E(RwB97XD) =  -1112.45018448     A.U. after   13 cycles
 SCF Done:  E(RwB97XD) =  -1112.45028037     A.U. after   13 cycles
 SCF Done:  E(RwB97XD) =  -1112.45042181     A.U. after   12 cycles
 SCF Done:  E(RwB97XD) =  -1112.45068755     A.U. after   12 cycles
 SCF Done:  E(RwB97XD) =  -1112.45073062     A.U. after   12 cycles
 SCF Done:  E(RwB97XD) =  -1112.45072878     A.U. after   11 cycles
 SCF Done:  E(RwB97XD) =  -1112.45073517     A.U. after   10 cycles
 SCF Done:  E(RwB97XD) =  -1112.45073930     A.U. after   10 cycles
 SCF Done:  E(RwB97XD) =  -1112.45074197     A.U. after   10 cycles
 SCF Done:  E(RwB97XD) =  -1112.45074194     A.U. after    9 cycles
 SCF Done:  E(RwB97XD) =  -1112.45074193     A.U. after    7 cycles
 Optimization completed.
    -- Stationary point found.
 Normal termination of Gaussian 16 at Sun Feb  7 03:47:53 2021.

 ---------------------------------------------------------------------
 #N Geom=AllCheck Guess=TCheck SCRF=Check GenChk RwB97XD/def2TZVP Freq
 ---------------------------------------------------------------------

 Structure from the checkpoint file:  "/beegfs/scratch/user/q/tla25/Gau-99379.chk"
 ------------------------
 1_iteration/TS-181-1.out
 ------------------------
 Charge =  0 Multiplicity = 1

                         Standard orientation:
 ---------------------------------------------------------------------
 Center     Atomic      Atomic             Coordinates (Angstroms)
 Number     Number       Type             X           Y           Z
 ---------------------------------------------------------------------
      1          6           0       -0.900330   -0.547625   -0.290050
      2          6           0       -2.294283   -0.245048   -0.019639
      3          8           0       -2.686220    0.834340    0.465883
      4          6           0        0.083720    0.237910    0.284372
      5          6           0       -0.355846    2.171001   -1.728534
      6          1           0       -1.028805    2.986094   -1.994493
      7          1           0        0.614113    2.342979   -2.188699
      8          1           0       -0.770763    1.235462   -2.111119
      9          7           0       -0.227650    2.038273   -0.285119
     10          1           0        0.376645    2.730444    0.140949
     11          1           0       -1.151547    2.067818    0.150627
     12          6           0        1.533445   -0.080043    0.071629
     13          6           0        1.979389   -1.336551    0.486667
     14          6           0        3.303258   -1.706461    0.337075
     15          6           0        4.214586   -0.822912   -0.227222
     16          6           0        3.785328    0.429397   -0.630692
     17          6           0        2.455038    0.800569   -0.478449
     18          1           0        1.273272   -2.027659    0.928991
     19          1           0        3.625252   -2.687357    0.662832
     20          1           0        5.251472   -1.109788   -0.346556
     21          1           0        4.484985    1.130624   -1.067150
     22          1           0        2.161483    1.788551   -0.797510
     23         17           0       -0.092928    0.690565    2.079385
     24          6           0       -0.573359   -1.607580   -1.320316
     25          1           0        0.432873   -1.487361   -1.715956
     26          1           0       -0.635168   -2.627250   -0.920848
     27          1           0       -1.257309   -1.549730   -2.171202
     28          7           0       -3.209680   -1.184415   -0.375573
     29          6           0       -4.624192   -0.997460   -0.160813
     30          1           0       -2.887672   -2.100131   -0.628489
     31          1           0       -4.957995   -0.060488   -0.607164
     32          1           0       -5.160316   -1.818804   -0.632221
     33          1           0       -4.880203   -0.975899    0.902079
 ---------------------------------------------------------------------

 SCF Done:  E(RwB97XD) =  -1112.45074193     A.U. after    1 cycles

 The electronic state is 1-A.
 Alpha  occ. eigenvalues -- -101.67896 -19.20053 -14.47697 -14.44436 -10.39454
 Alpha  occ. eigenvalues --  -10.37129 -10.31340 -10.31247 -10.30554 -10.29779
 Alpha  occ. eigenvalues --  -10.29505 -10.29422 -10.29380 -10.29317 -10.27448
 Alpha  occ. eigenvalues --  -10.26003  -9.56493  -7.31088  -7.30301  -7.30264
 Alpha  occ. eigenvalues --   -1.12507  -1.03728  -1.01039  -0.98065  -0.94405
 Alpha  occ. eigenvalues --   -0.88251  -0.85943  -0.85550  -0.79775  -0.78606
 Alpha  occ. eigenvalues --   -0.77234  -0.72448  -0.71077  -0.67829  -0.65754
 Alpha  occ. eigenvalues --   -0.62992  -0.60624  -0.58259  -0.57276  -0.55955
 Alpha  occ. eigenvalues --   -0.55074  -0.54257  -0.54027  -0.52631  -0.51399
 Alpha  occ. eigenvalues --   -0.51168  -0.50945  -0.49062  -0.48150  -0.47373
 Alpha  occ. eigenvalues --   -0.46825  -0.46230  -0.45679  -0.45202  -0.44734
 Alpha  occ. eigenvalues --   -0.43354  -0.42639  -0.39340  -0.37993  -0.34267
 Alpha  occ. eigenvalues --   -0.33859  -0.33219  -0.33168  -0.26475
 Alpha virt. eigenvalues --    0.03181   0.04861   0.05872   0.09208   0.10601
 Alpha virt. eigenvalues --    0.12304   0.13374   0.14213   0.14828   0.15647
 Alpha virt. eigenvalues --    0.16307   0.16700   0.17006   0.17918   0.18831

 Mulliken charges:
               1
     1  C   -0.369331
     2  C    0.409472
     3  O   -0.585795
     4  C    0.342401
     5  C   -0.287276
     6  H    0.154610
     7  H    0.145520
     8  H    0.151116
     9  N   -0.324033
    10  H    0.280549
    11  H    0.275873
    12  C    0.139300
    13  C   -0.319146
    14  C   -0.109080
    15  C   -0.153046
    16  C   -0.161313
    17  C   -0.179667
    18  H    0.156330
    19  H    0.145705
    20  H    0.146026
    21  H    0.144438
    22  H    0.138679
    23  Cl  -0.204206
    24  C   -0.432890
    25  H    0.148042
    26  H    0.135210
    27  H    0.139148
    28  N   -0.325519
    29  C   -0.254134
    30  H    0.263178
    31  H    0.127761
    32  H    0.138988
    33  H    0.123090
 Sum of Mulliken charges =  -0.00000

 Dipole moment (field-independent basis, Debye):
    X=              2.6910    Y=             -0.1233    Z=             -5.0358  Tot=              5.7110
 Quadrupole moment (field-independent basis, Debye-Ang):
   XX=            -95.3658   YY=            -85.5819   ZZ=           -108.7177
   XY=              9.9871   XZ=              3.3875   YZ=             -6.1667

  Exact polarizability: 291.563  10.958 247.630  -7.060  -6.609 199.942
 Approx polarizability: 216.563   5.499 210.444  -6.939  -4.882 171.012

 ******    1 imaginary frequencies (negative Signs) ******

                      1                      2                      3
                      A                      A                      A
 Frequencies --   -393.8461                38.6043                60.4251
 Red. masses --      5.4413                 3.5602                 3.5874
 Frc consts  --      0.4973                 0.0031                 0.0077
 IR Inten    --    527.6777                 0.4273                 6.1573

                      4                      5                      6
                      A                      A                      A
 Frequencies --     78.9065                87.8564               110.7767
 Red. masses --      4.3694                 2.4750                 1.7853
 Frc consts  --      0.0160                 0.0113                 0.0129
 IR Inten    --      1.1232                11.7785                 9.8283

                      7                      8                      9
                      A                      A                      A
 Frequencies --    129.7560               141.9048               145.2108
 Red. masses --      2.2865                 2.2777                 2.5085
 Frc consts  --      0.0227                 0.0270                 0.0312
 IR Inten    --      2.4661                 0.8994                 8.9049

                     10                     11                     12
                      A                      A                      A
 Frequencies --    169.1060               174.1280               194.7318
 Red. masses --      1.5309                 3.6006                 1.3811
 Frc consts  --      0.0258                 0.0643                 0.0309
 IR Inten    --     11.5398                 4.7318                 4.4848

                     13                     14                     15
                      A                      A                      A
 Frequencies --    210.0928               231.5297               272.6111
 Red. masses --      3.7666                 3.3665                 3.7693
 Frc consts  --      0.0980                 0.1063                 0.1650
 IR Inten    --      3.7443                14.0083                 0.3025

                     16                     17                     18
                      A                      A                      A
 Frequencies --    288.9358               296.5260               333.6861
 Red. masses --      3.8407                 3.8230                 3.3741
 Frc consts  --      0.1889                 0.1981                 0.2214
 IR Inten    --     14.3553                 3.1461                22.2139

                     19                     20                     21
                      A                      A                      A
 Frequencies --    339.9378               357.1529               361.0258
 Red. masses --      3.1270                 4.0867                 3.9640
 Frc consts  --      0.2129                 0.3071                 0.3044
 IR Inten    --     85.7723                25.1573               107.5786

                     22                     23                     24
                      A                      A                      A
 Frequencies --    424.2358               441.4807               516.9257
 Red. masses --      2.8838                 1.3632                 4.3532
 Frc consts  --      0.3058                 0.1565                 0.6853
 IR Inten    --      1.4351                67.7493                45.2590

                     25                     26                     27
                      A                      A                      A
 Frequencies --    536.1962               590.1017               621.7978
 Red. masses --      4.3044                 2.9779                 6.2702
 Frc consts  --      0.7291                 0.6110                 1.4283
 IR Inten    --     40.7243                55.2135                67.1509

                     28                     29                     30
                      A                      A                      A
 Frequencies --    643.9651               703.1245               723.7356
 Red. masses --      6.3107                 3.1682                 1.8881
 Frc consts  --      1.5419                 0.9229                 0.5827
 IR Inten    --     36.2623                87.7925                19.0783

                     31                     32                     33
                      A                      A                      A
 Frequencies --    733.2230               788.8479               800.7557
 Red. masses --      1.5187                 3.0208                 4.3995
 Frc consts  --      0.4810                 1.1076                 1.6621
 IR Inten    --    240.9896                55.2056                55.9820

                     34                     35                     36
                      A                      A                      A
 Frequencies --    840.3586               875.2500               888.0914
 Red. masses --      3.8734                 1.2502                 3.2244
 Frc consts  --      1.6117                 0.5643                 1.4984
 IR Inten    --     77.2986                 0.3284                 4.2349

                     37                     38                     39
                      A                      A                      A
 Frequencies --    962.6090               994.1681              1015.4734
 Red. masses --      1.4506                 1.0937                 1.3779
 Frc consts  --      0.7920                 0.6369                 0.8372
 IR Inten    --      1.3548                60.0932                 0.8123

                     40                     41                     42
                      A                      A                      A
 Frequencies --   1026.2071              1031.7342              1033.5939
 Red. masses --      5.6065                 1.7047                 1.3593
 Frc consts  --      3.4786                 1.0691                 0.8556
 IR Inten    --      6.4254               230.5438                26.7238

                     43                     44                     45
                      A                      A                      A
 Frequencies --   1063.7336              1068.1257              1084.3720
 Red. masses --      1.9298                 1.6039                 2.4582
 Frc consts  --      1.2865                 1.0781                 1.7030
 IR Inten    --     14.2484                 0.2997                 7.0765

                     46                     47                     48
                      A                      A                      A
 Frequencies --   1087.5071              1118.1323              1127.3931
 Red. masses --      4.6896                 1.2594                 1.5740
 Frc consts  --      3.2677                 0.9276                 1.1787
 IR Inten    --     50.8985                49.8277                19.6982

                     49                     50                     51
                      A                      A                      A
 Frequencies --   1153.0097              1184.6381              1186.3649
 Red. masses --      1.2966                 1.6980                 1.1457
 Frc consts  --      1.0156                 1.4040                 0.9501
 IR Inten    --      4.3535                19.4634                 0.2555

                     52                     53                     54
                      A                      A                      A
 Frequencies --   1215.2572              1221.2669              1222.2984
 Red. masses --      3.3488                 1.3676                 1.1808
 Frc consts  --      2.9139                 1.2018                 1.0394
 IR Inten    --     18.7688                69.9433                14.5660

                     55                     56                     57
                      A                      A                      A
 Frequencies --   1256.2478              1317.6222              1327.4884
 Red. masses --      3.6520                 3.8182                 3.2210
 Frc consts  --      3.3957                 3.9056                 3.3443
 IR Inten    --     71.1342                88.0876               286.4840

                     58                     59                     60
                      A                      A                      A
 Frequencies --   1365.1885              1367.3563              1422.8474
 Red. masses --      1.2642                 1.3988                 1.2951
 Frc consts  --      1.3883                 1.5408                 1.5447
 IR Inten    --     25.4980                10.7524                90.7391

                     61                     62                     63
                      A                      A                      A
 Frequencies --   1449.8792              1453.5673              1476.5486
 Red. masses --      1.2647                 1.2110                 1.7846
 Frc consts  --      1.5664                 1.5075                 2.2924
 IR Inten    --     94.7754                26.7861               265.8582

                     64                     65                     66
                      A                      A                      A
 Frequencies --   1477.3313              1488.9080              1489.5614
 Red. masses --      1.1915                 1.0432                 1.1693
 Frc consts  --      1.5322                 1.3625                 1.5286
 IR Inten    --      8.6558                17.2106                15.9065

                     67                     68                     69
                      A                      A                      A
 Frequencies --   1491.0145              1505.3078              1509.8631
 Red. masses --      1.7629                 1.0800                 1.0502
 Frc consts  --      2.3090                 1.4419                 1.4106
 IR Inten    --     57.4138                 3.1926                 0.1783

                     70                     71                     72
                      A                      A                      A
 Frequencies --   1516.0373              1551.1943              1557.6760
 Red. masses --      1.2567                 2.4175                 2.0136
 Frc consts  --      1.7018                 3.4273                 2.8786
 IR Inten    --    309.2991               133.5192               555.9023

                     73                     74                     75
                      A                      A                      A
 Frequencies --   1623.4867              1650.9982              1659.6133
 Red. masses --      1.9358                 3.4395                 2.3044
 Frc consts  --      3.0061                 5.5239                 3.7396
 IR Inten    --    405.1709                22.1362                75.8819

                     76                     77                     78
                      A                      A                      A
 Frequencies --   1677.2893              3009.2202              3042.3278
 Red. masses --      5.8362                 1.0514                 1.0416
 Frc consts  --      9.6738                 5.6093                 5.6800
 IR Inten    --      1.5686               110.6291                92.9669

                     79                     80                     81
                      A                      A                      A
 Frequencies --   3058.8847              3072.9617              3109.6474
 Red. masses --      1.0358                 1.0912                 1.0963
 Frc consts  --      5.7103                 6.0710                 6.2458
 IR Inten    --     49.0436                48.5059                41.6891

                     82                     83                     84
                      A                      A                      A
 Frequencies --   3129.7982              3148.8736              3156.3916
 Red. masses --      1.1019                 1.0943                 1.1030
 Frc consts  --      6.3597                 6.3929                 6.4744
 IR Inten    --     12.2334                25.0539                24.9124

                     85                     86                     87
                      A                      A                      A
 Frequencies --   3169.7339              3197.9787              3205.8935
 Red. masses --      1.1037                 1.0861                 1.0893
 Frc consts  --      6.5335                 6.5447                 6.5962
 IR Inten    --     23.9815                 0.6889                 4.8324

                     88                     89                     90
                      A                      A                      A
 Frequencies --   3214.7085              3223.8902              3256.1310
 Red. masses --      1.0939                 1.0982                 1.0910
 Frc consts  --      6.6605                 6.7247                 6.8153
 IR Inten    --     22.8223                20.3888                14.1621

                     91                     92                     93
                      A                      A                      A
 Frequencies --   3407.5999              3585.9681              3688.8394
 Red. masses --      1.0637                 1.0856                 1.0779
 Frc consts  --      7.2772                 8.2251                 8.6415
 IR Inten    --    154.8436                81.9718                66.0178

 - Thermochemistry -
 -------------------
 Temperature   298.150 Kelvin.  Pressure   1.00000 Atm.
 Atom     1 has atomic number  6 and mass  12.00000

 Molecular mass:   240.10294 amu.
 Principal axes and moments of inertia in atomic units:
                           1         2         3
     Eigenvalues --  2162.098115968.139486312.63015
           X            0.99995   0.01006   0.00261
           Y           -0.00973   0.99444  -0.10486
           Z           -0.00365   0.10483   0.99448
 This molecule is an asymmetric top.
 Rotational symmetry number  1.
 Warning -- assumption of classical behavior for rotation
           may cause significant error
 Rotational temperatures (Kelvin)      0.04006     0.01451     0.01372
 Rotational constants (GHZ):           0.83472     0.30240     0.28589
    1 imaginary frequencies ignored.
 Zero-point vibrational energy     725300.4 (Joules/Mol)
                                  173.35095 (Kcal/Mol)
 Warning -- explicit consideration of  25 degrees of freedom as
           vibrations may cause significant error
 Vibrational temperatures:     55.54    86.94   113.53   126.41   159.38
          (Kelvin)            186.69   204.17   208.93   243.31   250.53
                              280.18   302.28   333.12   392.23   415.71
                              426.63   480.10   489.09   513.86   519.44
                              610.38   635.19   743.74   771.47   849.02
                              894.63   926.52  1011.64  1041.29  1054.94
                             1134.98  1152.11  1209.09  1259.29  1277.77
                             1384.98  1430.39  1461.04  1476.48  1484.44
                             1487.11  1530.48  1536.79  1560.17  1564.68
                             1608.74  1622.07  1658.92  1704.43  1706.91
                             1748.48  1757.13  1758.61  1807.46  1895.76
                             1909.96  1964.20  1967.32  2047.16  2086.05
                             2091.36  2124.42  2125.55  2142.21  2143.15
                             2145.24  2165.80  2172.36  2181.24  2231.82
                             2241.15  2335.84  2375.42  2387.81  2413.25
                             4329.60  4377.23  4401.05  4421.31  4474.09
                             4503.08  4530.53  4541.34  4560.54  4601.18
                             4612.57  4625.25  4638.46  4684.85  4902.78
                             5159.41  5307.42

 Zero-point correction=                           0.276252 (Hartree/Particle)
 Thermal correction to Energy=                    0.293279
 Thermal correction to Enthalpy=                  0.294223
 Thermal correction to Gibbs Free Energy=         0.231633
 Sum of electronic and zero-point Energies=          -1112.174490
 Sum of electronic and thermal Energies=             -1112.157463
 Sum of electronic and thermal Enthalpies=           -1112.156518
 Sum of electronic and thermal Free Energies=        -1112.219109

                     E (Thermal)             CV                S
                      KCal/Mol        Cal/Mol-Kelvin    Cal/Mol-Kelvin
 Total                  184.036             62.686            131.733
 Electronic               0.000              0.000              0.000
 Translational            0.889              2.981             42.329
 Rotational               0.889              2.981             32.765
 Vibrational            182.258             56.725             56.639
 Vibration     1          0.594              1.981              5.329
 Vibration     2          0.597              1.973              4.443
 Vibration     3          0.600              1.963              3.918
 Vibration     4          0.601              1.958              3.707
 Vibration     5          0.607              1.941              3.255
 Vibration     6          0.612              1.924              2.950
 Vibration     7          0.615              1.911              2.778
 Vibration     8          0.617              1.908              2.734
 Vibration     9          0.625              1.881              2.445
 Vibration    10          0.627              1.874              2.390
 Vibration    11          0.635              1.847              2.182
 Vibration    12          0.642              1.825              2.043
 Vibration    13          0.653              1.793              1.867
 Vibration    14          0.676              1.724              1.580
 Vibration    15          0.685              1.694              1.480
 Vibration    16          0.690              1.680              1.436
 Vibration    17          0.715              1.608              1.242
 Vibration    18          0.720              1.596              1.212
 Vibration    19          0.732              1.561              1.134
 Vibration    20          0.735              1.553              1.118
 Vibration    21          0.786              1.418              0.878
 Vibration    22          0.801              1.380              0.822
 Vibration    23          0.872              1.213              0.617
 Vibration    24          0.891              1.170              0.574
 Vibration    25          0.947              1.053              0.467

 Optimization completed.
    -- Stationary point found.
 Normal termination of Gaussian 16 at Sun Feb  7 05:08:44 2021.
