 Gaussian 16, Revision A.03,
 Gaussian 16:  ES64L-G16RevA.03 25-Dec-2016

 ----------------------------------------------------------------------
 # wB97XD def2tzvp, opt=(ts, noeigen, calcfc, maxcycles=70, maxstep=1),
  freq=noraman, scrf=(iefpcm, solvent=water)
 ----------------------------------------------------------------------

 ------------------------
 4_iteration/TS-120-4.out
 ------------------------
 Symbolic Z-matrix:
 Charge =  0 Multiplicity = 1

 SCF Done:  E(RwB97XD) =  -1248.81554690     A.U. after   15 cycles
 SCF Done:  E(RwB97XD) =  -1248.81554673     A.U. after    8 cycles
 Optimization completed.
    -- Stationary point found.
 Normal termination of Gaussian 16 at Mon Feb  8 03:40:39 2021.

 ---------------------------------------------------------------------
 #N Geom=AllCheck Guess=TCheck SCRF=Check GenChk RwB97XD/def2TZVP Freq
 ---------------------------------------------------------------------

 Structure from the checkpoint file:  "/beegfs/scratch/user/q/tla25/Gau-71054.chk"
 ------------------------
 4_iteration/TS-120-4.out
 ------------------------
 Charge =  0 Multiplicity = 1

                         Standard orientation:
 ---------------------------------------------------------------------
 Center     Atomic      Atomic             Coordinates (Angstroms)
 Number     Number       Type             X           Y           Z
 ---------------------------------------------------------------------
      1          6           0        0.035218    1.034869   -0.271193
      2          6           0        1.382461    1.488817   -0.199742
      3          8           0        1.723623    2.659740   -0.405278
      4          6           0       -0.517577   -0.240704   -0.013580
      5          6           0       -0.935829   -2.561112   -1.889646
      6          1           0       -0.847250   -2.901525   -2.922080
      7          1           0       -0.356849   -3.222556   -1.249189
      8          1           0       -1.980592   -2.602991   -1.588145
      9          7           0       -0.442373   -1.191068   -1.734421
     10          1           0        0.556677   -1.146633   -1.899880
     11          1           0       -0.869822   -0.560724   -2.402873
     12          6           0       -1.995786   -0.288754    0.311970
     13          6           0       -3.016708   -0.289995   -0.631827
     14          6           0       -4.347148   -0.320303   -0.243309
     15          6           0       -4.685403   -0.334160    1.100683
     16          6           0       -3.677709   -0.316977    2.052237
     17          6           0       -2.348174   -0.300140    1.660772
     18          1           0       -2.796160   -0.250883   -1.688536
     19          1           0       -5.121063   -0.326346   -1.000180
     20          1           0       -5.724425   -0.354875    1.403278
     21          1           0       -3.922532   -0.319731    3.106749
     22          1           0       -1.579259   -0.283667    2.421700
     23          6           0        0.252078   -1.285627    0.778688
     24          1           0        0.480058   -0.907068    1.773643
     25          1           0       -0.360840   -2.178048    0.887613
     26          1           0        1.192861   -1.561832    0.314263
     27         17           0       -1.072230    2.282061   -0.863503
     28          6           0        2.493603    0.526701    0.123542
     29          6           0        2.984649    0.423993    1.419122
     30          6           0        4.039912   -0.430531    1.698830
     31          6           0        4.620036   -1.178914    0.683226
     32          6           0        4.149607   -1.058478   -0.616543
     33          6           0        3.091842   -0.204986   -0.895774
     34          1           0        2.525870    0.999606    2.214059
     35          1           0        4.409368   -0.515232    2.713057
     36          1           0        5.441109   -1.849033    0.903590
     37          1           0        4.606073   -1.629333   -1.415214
     38          1           0        2.731875   -0.106804   -1.913876
 ---------------------------------------------------------------------

 SCF Done:  E(RwB97XD) =  -1248.81554673     A.U. after    1 cycles

 The electronic state is 1-A.
 Alpha  occ. eigenvalues -- -101.68062 -19.21085 -14.48617 -10.37359 -10.36221
 Alpha  occ. eigenvalues --  -10.31939 -10.31491 -10.31220 -10.30171 -10.29678
 Alpha  occ. eigenvalues --  -10.29557 -10.29552 -10.29453 -10.29417 -10.29355
 Alpha  occ. eigenvalues --  -10.29346 -10.29339 -10.29228 -10.29214 -10.28817
 Alpha  occ. eigenvalues --   -9.56609  -7.31227  -7.30411  -7.30382  -1.12005
 Alpha  occ. eigenvalues --   -1.04238  -0.98257  -0.97068  -0.95422  -0.90424
 Alpha  occ. eigenvalues --   -0.86986  -0.85683  -0.85577  -0.84196  -0.79960
 Alpha  occ. eigenvalues --   -0.78829  -0.74669  -0.71032  -0.71007  -0.70903
 Alpha  occ. eigenvalues --   -0.67772  -0.64108  -0.63488  -0.61385  -0.59259
 Alpha  occ. eigenvalues --   -0.57680  -0.56934  -0.55958  -0.55504  -0.55169
 Alpha  occ. eigenvalues --   -0.53836  -0.53475  -0.52719  -0.51429  -0.51344
 Alpha  occ. eigenvalues --   -0.50643  -0.49832  -0.49275  -0.48583  -0.47551
 Alpha  occ. eigenvalues --   -0.46892  -0.46415  -0.45660  -0.44265  -0.43922
 Alpha  occ. eigenvalues --   -0.43299  -0.42982  -0.41746  -0.40117  -0.38849
 Alpha  occ. eigenvalues --   -0.34655  -0.34269  -0.34081  -0.33789  -0.31717
 Alpha  occ. eigenvalues --   -0.27879
 Alpha virt. eigenvalues --    0.02316   0.04494   0.04767   0.04948   0.05799
 Alpha virt. eigenvalues --    0.09756   0.11165   0.12697   0.12837   0.13757
 Alpha virt. eigenvalues --    0.14268   0.14805   0.15031   0.15796   0.17035

 Mulliken charges:
               1
     1  C   -0.139715
     2  C    0.131304
     3  O   -0.481097
     4  C    0.168878
     5  C   -0.281049
     6  H    0.157030
     7  H    0.161209
     8  H    0.160563
     9  N   -0.345031
    10  H    0.264449
    11  H    0.283512
    12  C    0.320292
    13  C   -0.323173
    14  C   -0.125760
    15  C   -0.159081
    16  C   -0.131765
    17  C   -0.298094
    18  H    0.153685
    19  H    0.145139
    20  H    0.145466
    21  H    0.144949
    22  H    0.148392
    23  C   -0.448410
    24  H    0.167051
    25  H    0.179454
    26  H    0.179777
    27  Cl  -0.180584
    28  C    0.211348
    29  C   -0.250453
    30  C   -0.127028
    31  C   -0.157312
    32  C   -0.126653
    33  C   -0.304687
    34  H    0.150692
    35  H    0.145542
    36  H    0.146135
    37  H    0.146348
    38  H    0.168677
 Sum of Mulliken charges =  -0.00000

 Dipole moment (field-independent basis, Debye):
    X=             -2.7985    Y=            -12.2511    Z=             -1.6775  Tot=             12.6781
 Quadrupole moment (field-independent basis, Debye-Ang):
   XX=           -116.6359   YY=           -143.8170   ZZ=           -104.6784
   XY=            -11.0126   XZ=              3.9167   YZ=             11.0931

  Exact polarizability: 359.076  -1.421 280.720  11.928   9.993 297.244
 Approx polarizability: 269.091  -6.170 233.466   8.876   6.882 258.605

 ******    1 imaginary frequencies (negative Signs) ******

                      1                      2                      3
                      A                      A                      A
 Frequencies --   -325.0584                24.5379                31.9052
 Red. masses --      5.7487                 4.3172                 3.6744
 Frc consts  --      0.3579                 0.0015                 0.0022
 IR Inten    --    860.8067                 1.1722                 2.0133

                      4                      5                      6
                      A                      A                      A
 Frequencies --     52.7351                61.8454                74.6304
 Red. masses --      6.6042                 6.4347                 4.2456
 Frc consts  --      0.0108                 0.0145                 0.0139
 IR Inten    --      3.4276                 1.2550                 0.4750

                      7                      8                      9
                      A                      A                      A
 Frequencies --     86.1293               104.4505               106.5597
 Red. masses --      5.1360                 2.5638                 3.0559
 Frc consts  --      0.0224                 0.0165                 0.0204
 IR Inten    --      2.5829                 4.2652                 3.7600

                     10                     11                     12
                      A                      A                      A
 Frequencies --    152.3987               201.6175               214.4516
 Red. masses --      1.5254                 4.0329                 3.6847
 Frc consts  --      0.0209                 0.0966                 0.0998
 IR Inten    --      3.6911                 1.3173                 1.6183

                     13                     14                     15
                      A                      A                      A
 Frequencies --    234.4872               249.7105               251.8672
 Red. masses --      4.3156                 3.7097                 4.4315
 Frc consts  --      0.1398                 0.1363                 0.1656
 IR Inten    --      6.6357                 6.9001                 5.7552

                     16                     17                     18
                      A                      A                      A
 Frequencies --    281.4434               306.2704               335.6564
 Red. masses --      3.0590                 1.8387                 3.4311
 Frc consts  --      0.1428                 0.1016                 0.2278
 IR Inten    --     17.5304                 8.6071                14.7974

                     19                     20                     21
                      A                      A                      A
 Frequencies --    344.6754               362.3891               378.3012
 Red. masses --      3.1858                 2.5329                 5.2809
 Frc consts  --      0.2230                 0.1960                 0.4453
 IR Inten    --      8.3305                 4.2442                14.0089

                     22                     23                     24
                      A                      A                      A
 Frequencies --    388.7232               417.6333               421.3943
 Red. masses --      4.2984                 2.8947                 2.8827
 Frc consts  --      0.3827                 0.2975                 0.3016
 IR Inten    --     11.9313                 0.7533                 0.1597

                     25                     26                     27
                      A                      A                      A
 Frequencies --    467.1537               526.9799               566.3460
 Red. masses --      4.0451                 3.9576                 3.9127
 Frc consts  --      0.5201                 0.6475                 0.7394
 IR Inten    --     15.1947               116.4870                19.6349

                     28                     29                     30
                      A                      A                      A
 Frequencies --    582.5249               635.2336               638.9050
 Red. masses --      3.7058                 6.4144                 6.1948
 Frc consts  --      0.7409                 1.5250                 1.4899
 IR Inten    --    142.9560                 1.2532                 4.9215

                     31                     32                     33
                      A                      A                      A
 Frequencies --    645.0051               666.9958               684.5333
 Red. masses --      3.9739                 1.7504                 3.0835
 Frc consts  --      0.9741                 0.4588                 0.8513
 IR Inten    --     53.8443               120.7972                 6.3966

                     34                     35                     36
                      A                      A                      A
 Frequencies --    726.4793               731.8855               779.2887
 Red. masses --      1.5444                 1.5287                 8.3087
 Frc consts  --      0.4802                 0.4825                 2.9729
 IR Inten    --     96.4382                91.6319                22.5046

                     37                     38                     39
                      A                      A                      A
 Frequencies --    792.0031               795.0605               833.1436
 Red. masses --      2.4913                 2.7856                 3.4700
 Frc consts  --      0.9207                 1.0374                 1.4191
 IR Inten    --     28.4473                61.5619                22.8938

                     40                     41                     42
                      A                      A                      A
 Frequencies --    849.6912               873.3240               883.6704
 Red. masses --      3.7597                 1.2496                 1.2529
 Frc consts  --      1.5993                 0.5615                 0.5765
 IR Inten    --     86.0112                 0.3652                 0.6957

                     43                     44                     45
                      A                      A                      A
 Frequencies --    955.7329               961.5733              1004.6189
 Red. masses --      1.4176                 1.4872                 1.3950
 Frc consts  --      0.7629                 0.8102                 0.8295
 IR Inten    --      1.0311                25.1256                30.5824

                     46                     47                     48
                      A                      A                      A
 Frequencies --   1011.9294              1014.8512              1022.5943
 Red. masses --      1.4269                 1.4254                 1.7892
 Frc consts  --      0.8609                 0.8649                 1.1023
 IR Inten    --      7.1475                 6.5484               102.7130

                     49                     50                     51
                      A                      A                      A
 Frequencies --   1026.0986              1027.1400              1030.9282
 Red. masses --      5.0803                 4.5136                 1.3212
 Frc consts  --      3.1515                 2.8057                 0.8273
 IR Inten    --      1.8237                 4.5331                 0.5342

                     52                     53                     54
                      A                      A                      A
 Frequencies --   1032.9921              1045.1091              1054.4401
 Red. masses --      1.3255                 1.3811                 2.3203
 Frc consts  --      0.8333                 0.8888                 1.5200
 IR Inten    --      5.6869                97.5106                47.8206

                     55                     56                     57
                      A                      A                      A
 Frequencies --   1062.0973              1069.4286              1071.5071
 Red. masses --      2.2269                 1.8154                 2.6522
 Frc consts  --      1.4801                 1.2233                 1.7941
 IR Inten    --     15.6279                28.0598                95.0572

                     58                     59                     60
                      A                      A                      A
 Frequencies --   1104.5712              1111.0117              1134.5924
 Red. masses --      1.7603                 1.5480                 1.6386
 Frc consts  --      1.2654                 1.1258                 1.2428
 IR Inten    --      9.2589                11.7242                 3.7380

                     61                     62                     63
                      A                      A                      A
 Frequencies --   1178.6454              1183.9019              1188.4423
 Red. masses --      3.6194                 1.1414                 1.1520
 Frc consts  --      2.9625                 0.9426                 0.9587
 IR Inten    --     21.5053                 0.0410                 0.3991

                     64                     65                     66
                      A                      A                      A
 Frequencies --   1206.9429              1229.5316              1237.5680
 Red. masses --      1.1226                 1.2669                 1.3002
 Frc consts  --      0.9635                 1.1284                 1.1733
 IR Inten    --      1.0118                18.0034                23.9241

                     67                     68                     69
                      A                      A                      A
 Frequencies --   1262.0931              1317.3913              1323.5809
 Red. masses --      3.6673                 4.2943                 5.1292
 Frc consts  --      3.4418                 4.3911                 5.2942
 IR Inten    --     36.6904                 1.9995                 4.8626

                     70                     71                     72
                      A                      A                      A
 Frequencies --   1343.8433              1353.4774              1359.2131
 Red. masses --      1.3413                 5.2728                 1.4824
 Frc consts  --      1.4272                 5.6910                 1.6136
 IR Inten    --      2.8823                75.3080                 2.0554

                     73                     74                     75
                      A                      A                      A
 Frequencies --   1379.6759              1413.4361              1423.8012
 Red. masses --      1.3436                 4.4405                 1.2268
 Frc consts  --      1.5069                 5.2268                 1.4653
 IR Inten    --      7.3701              1392.9470                20.6169

                     76                     77                     78
                      A                      A                      A
 Frequencies --   1461.9586              1485.8528              1488.4222
 Red. masses --      1.2177                 1.3025                 2.0557
 Frc consts  --      1.5335                 1.6942                 2.6833
 IR Inten    --     51.2207                16.2151                23.7158

                     79                     80                     81
                      A                      A                      A
 Frequencies --   1492.7141              1494.7917              1506.0568
 Red. masses --      1.6266                 1.0408                 1.0852
 Frc consts  --      2.1355                 1.3702                 1.4503
 IR Inten    --      2.3888                 9.4777                34.2331

                     82                     83                     84
                      A                      A                      A
 Frequencies --   1509.5298              1542.1793              1551.4698
 Red. masses --      1.0639                 2.3664                 2.2096
 Frc consts  --      1.4284                 3.3160                 3.1336
 IR Inten    --     39.1946                16.6486                 8.9640

                     85                     86                     87
                      A                      A                      A
 Frequencies --   1619.8922              1648.6789              1649.9456
 Red. masses --     11.8250                 3.0663                 2.5300
 Frc consts  --     18.2819                 4.9107                 4.0579
 IR Inten    --    891.8104                20.0881                 9.0366

                     88                     89                     90
                      A                      A                      A
 Frequencies --   1657.8132              1675.0308              1678.8430
 Red. masses --      1.8722                 5.8897                 5.2598
 Frc consts  --      3.0316                 9.7362                 8.7346
 IR Inten    --     25.7876                 0.6075                 1.5335

                     91                     92                     93
                      A                      A                      A
 Frequencies --   3068.9112              3090.4805              3147.7591
 Red. masses --      1.0356                 1.0378                 1.1027
 Frc consts  --      5.7466                 5.8403                 6.4376
 IR Inten    --     47.8825                12.6481                13.6820

                     94                     95                     96
                      A                      A                      A
 Frequencies --   3163.2299              3173.3497              3184.9243
 Red. masses --      1.1026                 1.1053                 1.0887
 Frc consts  --      6.5003                 6.5580                 6.5069
 IR Inten    --     18.0552                10.8381                 9.8646

                     97                     98                     99
                      A                      A                      A
 Frequencies --   3189.3431              3194.0870              3199.2098
 Red. masses --      1.1014                 1.0873                 1.0860
 Frc consts  --      6.6010                 6.5355                 6.5491
 IR Inten    --      9.0982                 2.0736                 0.3693

                    100                    101                    102
                      A                      A                      A
 Frequencies --   3203.2296              3207.9504              3212.2225
 Red. masses --      1.0906                 1.0895                 1.0948
 Frc consts  --      6.5929                 6.6059                 6.6556
 IR Inten    --      5.4040                 6.0693                33.9070

                    103                    104                    105
                      A                      A                      A
 Frequencies --   3218.3215              3222.9281              3226.0408
 Red. masses --      1.0932                 1.0988                 1.0965
 Frc consts  --      6.6711                 6.7244                 6.7234
 IR Inten    --     28.9093                19.2106                21.9352

                    106                    107                    108
                      A                      A                      A
 Frequencies --   3239.5722              3528.1969              3602.8161
 Red. masses --      1.0930                 1.0520                 1.0948
 Frc consts  --      6.7583                 7.7156                 8.3725
 IR Inten    --     13.6029                12.6822                53.5545

 - Thermochemistry -
 -------------------
 Temperature   298.150 Kelvin.  Pressure   1.00000 Atm.
 Atom     1 has atomic number  6 and mass  12.00000

 Molecular mass:   287.10769 amu.
 Principal axes and moments of inertia in atomic units:
                           1         2         3
     Eigenvalues --  3261.502248952.221449566.56892
           X            1.00000  -0.00144   0.00191
           Y            0.00123   0.99440   0.10572
           Z           -0.00205  -0.10571   0.99439
 This molecule is an asymmetric top.
 Rotational symmetry number  1.
 Warning -- assumption of classical behavior for rotation
           may cause significant error
 Rotational temperatures (Kelvin)      0.02656     0.00968     0.00905
 Rotational constants (GHZ):           0.55335     0.20160     0.18865
    1 imaginary frequencies ignored.
 Zero-point vibrational energy     822077.0 (Joules/Mol)
                                  196.48113 (Kcal/Mol)
 Warning -- explicit consideration of  27 degrees of freedom as
           vibrations may cause significant error
 Vibrational temperatures:     35.30    45.90    75.87    88.98   107.38
          (Kelvin)            123.92   150.28   153.32   219.27   290.08
                              308.55   337.37   359.28   362.38   404.93
                              440.65   482.93   495.91   521.40   544.29
                              559.29   600.88   606.29   672.13   758.21
                              814.85   838.12   913.96   919.24   928.02
                              959.66   984.89  1045.24  1053.02  1121.22
                             1139.52  1143.91  1198.71  1222.52  1256.52
                             1271.40  1375.09  1383.49  1445.42  1455.94
                             1460.14  1471.29  1476.33  1477.83  1483.28
                             1486.25  1503.68  1517.10  1528.12  1538.67
                             1541.66  1589.23  1598.50  1632.43  1695.81
                             1703.37  1709.90  1736.52  1769.02  1780.58
                             1815.87  1895.43  1904.34  1933.49  1947.35
                             1955.60  1985.05  2033.62  2048.53  2103.43
                             2137.81  2141.51  2147.68  2150.67  2166.88
                             2171.88  2218.85  2232.22  2330.66  2372.08
                             2373.90  2385.22  2410.00  2415.48  4415.48
                             4446.51  4528.92  4551.18  4565.74  4582.40
                             4588.75  4595.58  4602.95  4608.73  4615.53
                             4621.67  4630.45  4637.07  4641.55  4661.02
                             5076.29  5183.65

 Zero-point correction=                           0.313113 (Hartree/Particle)
 Thermal correction to Energy=                    0.331721
 Thermal correction to Enthalpy=                  0.332665
 Thermal correction to Gibbs Free Energy=         0.264833
 Sum of electronic and zero-point Energies=          -1248.502434
 Sum of electronic and thermal Energies=             -1248.483826
 Sum of electronic and thermal Enthalpies=           -1248.482882
 Sum of electronic and thermal Free Energies=        -1248.550713

                     E (Thermal)             CV                S
                      KCal/Mol        Cal/Mol-Kelvin    Cal/Mol-Kelvin
 Total                  208.158             70.947            142.764
 Electronic               0.000              0.000              0.000
 Translational            0.889              2.981             42.862
 Rotational               0.889              2.981             33.990
 Vibrational            206.381             64.985             65.912
 Vibration     1          0.593              1.985              6.228
 Vibration     2          0.594              1.983              5.707
 Vibration     3          0.596              1.977              4.712
 Vibration     4          0.597              1.973              4.397
 Vibration     5          0.599              1.966              4.027
 Vibration     6          0.601              1.959              3.746
 Vibration     7          0.605              1.946              3.370
 Vibration     8          0.605              1.944              3.331
 Vibration     9          0.619              1.900              2.642
 Vibration    10          0.639              1.838              2.118
 Vibration    11          0.644              1.819              2.005
 Vibration    12          0.654              1.788              1.844
 Vibration    13          0.663              1.763              1.733
 Vibration    14          0.664              1.760              1.717
 Vibration    15          0.681              1.708              1.525
 Vibration    16          0.697              1.662              1.382
 Vibration    17          0.717              1.604              1.233
 Vibration    18          0.723              1.586              1.190
 Vibration    19          0.736              1.550              1.112
 Vibration    20          0.749              1.516              1.046
 Vibration    21          0.757              1.494              1.005
 Vibration    22          0.781              1.432              0.900
 Vibration    23          0.784              1.424              0.887
 Vibration    24          0.824              1.323              0.746
 Vibration    25          0.882              1.190              0.594
 Vibration    26          0.922              1.104              0.511
 Vibration    27          0.939              1.069              0.481

 Optimization completed.
    -- Stationary point found.
 Normal termination of Gaussian 16 at Mon Feb  8 06:08:56 2021.
