 Gaussian 16, Revision A.03,
 Gaussian 16:  ES64L-G16RevA.03 25-Dec-2016

 ----------------------------------------------------------------------
 # wB97XD def2tzvp, opt=(ts, noeigen, calcfc, maxcycles=70, maxstep=8),
  freq=noraman, scrf=(iefpcm, solvent=water)
 ----------------------------------------------------------------------

 ------------------------
 1_iteration/TS-107-1.out
 ------------------------
 Symbolic Z-matrix:
 Charge =  0 Multiplicity = 1

 SCF Done:  E(RwB97XD) =  -3187.14323917     A.U. after   15 cycles
 SCF Done:  E(RwB97XD) =  -3187.14628648     A.U. after   14 cycles
 SCF Done:  E(RwB97XD) =  -3187.14920505     A.U. after   14 cycles
 SCF Done:  E(RwB97XD) =  -3187.15161478     A.U. after   14 cycles
 SCF Done:  E(RwB97XD) =  -3187.15338911     A.U. after   13 cycles
 SCF Done:  E(RwB97XD) =  -3187.15404071     A.U. after   12 cycles
 SCF Done:  E(RwB97XD) =  -3187.15412097     A.U. after   11 cycles
 SCF Done:  E(RwB97XD) =  -3187.15393885     A.U. after   13 cycles
 SCF Done:  E(RwB97XD) =  -3187.15368444     A.U. after   12 cycles
 SCF Done:  E(RwB97XD) =  -3187.15372871     A.U. after   13 cycles
 SCF Done:  E(RwB97XD) =  -3187.15388831     A.U. after   13 cycles
 SCF Done:  E(RwB97XD) =  -3187.15415515     A.U. after   12 cycles
 SCF Done:  E(RwB97XD) =  -3187.15412318     A.U. after   12 cycles
 SCF Done:  E(RwB97XD) =  -3187.15413779     A.U. after   12 cycles
 SCF Done:  E(RwB97XD) =  -3187.15415498     A.U. after   11 cycles
 SCF Done:  E(RwB97XD) =  -3187.15415882     A.U. after   10 cycles
 SCF Done:  E(RwB97XD) =  -3187.15415912     A.U. after   11 cycles
 SCF Done:  E(RwB97XD) =  -3187.15415953     A.U. after    8 cycles
 SCF Done:  E(RwB97XD) =  -3187.15415953     A.U. after    8 cycles
 Optimization completed.
    -- Stationary point found.
 Normal termination of Gaussian 16 at Sun Feb  7 09:55:39 2021.

 ---------------------------------------------------------------------
 #N Geom=AllCheck Guess=TCheck SCRF=Check GenChk RwB97XD/def2TZVP Freq
 ---------------------------------------------------------------------

 Structure from the checkpoint file:  "/beegfs/scratch/user/q/tla25/Gau-121026.chk"
 ------------------------
 1_iteration/TS-107-1.out
 ------------------------
 Charge =  0 Multiplicity = 1

                         Standard orientation:
 ---------------------------------------------------------------------
 Center     Atomic      Atomic             Coordinates (Angstroms)
 Number     Number       Type             X           Y           Z
 ---------------------------------------------------------------------
      1          6           0       -1.192638   -0.093596    0.283035
      2          6           0       -2.565944    0.332525    0.320439
      3          8           0       -2.880844    1.539945    0.360095
      4          6           0       -0.112717    0.809040    0.434694
      5          6           0        0.615232    3.154834   -1.245622
      6          1           0        0.364686    3.703719   -2.154649
      7          1           0        0.542573    3.831558   -0.397504
      8          1           0        1.638567    2.789674   -1.320374
      9          7           0       -0.287981    2.024497   -1.040401
     10          1           0       -1.239950    2.316980   -0.824742
     11          1           0       -0.340646    1.432106   -1.859767
     12          6           0        1.289205    0.268903    0.285563
     13          6           0        1.861623   -0.002587   -0.954049
     14          6           0        3.147641   -0.508267   -1.052416
     15          6           0        3.886376   -0.767990    0.092212
     16          6           0        3.325090   -0.513052    1.333143
     17          6           0        2.042576    0.006890    1.427240
     18          1           0        1.305468    0.163838   -1.866033
     19          1           0        3.569985   -0.703941   -2.029760
     20          1           0        4.890133   -1.166064    0.016539
     21          1           0        3.886174   -0.714489    2.236843
     22          1           0        1.627401    0.196646    2.407427
     23          6           0       -0.214800    1.853481    1.538158
     24          1           0       -0.195085    1.346124    2.502616
     25          1           0        0.629138    2.541061    1.502263
     26          1           0       -1.147666    2.401774    1.473038
     27         35           0       -0.861759   -1.881222   -0.358397
     28          7           0       -3.562374   -0.599959    0.317986
     29          1           0       -3.368845   -1.565257    0.123906
     30          1           0       -4.491017   -0.263390    0.135837
 ---------------------------------------------------------------------

 SCF Done:  E(RwB97XD) =  -3187.15415953     A.U. after    1 cycles

 The electronic state is 1-A.
 Alpha  occ. eigenvalues -- -483.11928 -62.66758 -56.45858 -56.45531 -56.45522
 Alpha  occ. eigenvalues --  -19.19992 -14.47815 -14.43530 -10.38075 -10.36268
 Alpha  occ. eigenvalues --  -10.31620 -10.30896 -10.29833 -10.29551 -10.29424
 Alpha  occ. eigenvalues --  -10.29296 -10.29270 -10.29186 -10.27642  -8.80867
 Alpha  occ. eigenvalues --   -6.62961  -6.61920  -6.61889  -2.73358  -2.73060
 Alpha  occ. eigenvalues --   -2.73034  -2.72192  -2.72191  -1.12416  -1.03589
 Alpha  occ. eigenvalues --   -0.99187  -0.97600  -0.92736  -0.87782  -0.85582
 Alpha  occ. eigenvalues --   -0.83971  -0.79295  -0.77611  -0.73635  -0.70792
 Alpha  occ. eigenvalues --   -0.68568  -0.64943  -0.62718  -0.61692  -0.59189
 Alpha  occ. eigenvalues --   -0.57201  -0.55960  -0.55439  -0.54552  -0.53482
 Alpha  occ. eigenvalues --   -0.52479  -0.51192  -0.50496  -0.49372  -0.48679
 Alpha  occ. eigenvalues --   -0.47779  -0.47313  -0.46355  -0.44825  -0.43818
 Alpha  occ. eigenvalues --   -0.42717  -0.41431  -0.38865  -0.37840  -0.34872
 Alpha  occ. eigenvalues --   -0.34011  -0.33667  -0.33144  -0.26308
 Alpha virt. eigenvalues --    0.03308   0.04916   0.06388   0.09323   0.10449
 Alpha virt. eigenvalues --    0.13115   0.13480   0.13772   0.14860   0.15668
 Alpha virt. eigenvalues --    0.16795   0.17418   0.17618   0.18560   0.18886

 Mulliken charges:
               1
     1  C   -0.282113
     2  C    0.346512
     3  O   -0.580452
     4  C    0.229062
     5  C   -0.284596
     6  H    0.152801
     7  H    0.157617
     8  H    0.154066
     9  N   -0.337708
    10  H    0.277662
    11  H    0.272358
    12  C    0.267635
    13  C   -0.310118
    14  C   -0.129008
    15  C   -0.146994
    16  C   -0.150159
    17  C   -0.257406
    18  H    0.144338
    19  H    0.144608
    20  H    0.145313
    21  H    0.143742
    22  H    0.144287
    23  C   -0.437786
    24  H    0.147237
    25  H    0.153197
    26  H    0.167547
    27  Br  -0.181950
    28  N   -0.478656
    29  H    0.263630
    30  H    0.265334
 Sum of Mulliken charges =  -0.00000

 Dipole moment (field-independent basis, Debye):
    X=              3.9081    Y=              2.7792    Z=             -3.2095  Tot=              5.7705
 Quadrupole moment (field-independent basis, Debye-Ang):
   XX=            -99.4007   YY=            -98.8742   ZZ=            -93.9530
   XY=              7.7036   XZ=              4.5072   YZ=             -5.6851

  Exact polarizability: 275.781  -5.210 227.718  -8.376  -2.113 211.540
 Approx polarizability: 207.685  -9.530 186.603  -4.630  -0.207 184.660

 ******    1 imaginary frequencies (negative Signs) ******

                      1                      2                      3
                      A                      A                      A
 Frequencies --   -361.9205                27.8388                48.0922
 Red. masses --      5.5327                 3.9754                 6.3668
 Frc consts  --      0.4270                 0.0018                 0.0087
 IR Inten    --    829.1766                 1.4186                 2.9020

                      4                      5                      6
                      A                      A                      A
 Frequencies --     74.8891                83.0301                97.1358
 Red. masses --      5.8059                 3.7643                 3.3163
 Frc consts  --      0.0192                 0.0153                 0.0184
 IR Inten    --      1.9728                19.8059                 7.6769

                      7                      8                      9
                      A                      A                      A
 Frequencies --    116.2361               146.9585               199.6890
 Red. masses --      2.9344                 1.4873                 5.9302
 Frc consts  --      0.0234                 0.0189                 0.1393
 IR Inten    --     20.4196                 1.6602                20.9157

                     10                     11                     12
                      A                      A                      A
 Frequencies --    206.0364               226.6177               254.5996
 Red. masses --      3.1103                 2.6666                 2.7828
 Frc consts  --      0.0778                 0.0807                 0.1063
 IR Inten    --      2.9900                 4.2151                54.3625

                     13                     14                     15
                      A                      A                      A
 Frequencies --    268.2189               272.5976               289.7410
 Red. masses --      1.6854                 2.1639                 1.2794
 Frc consts  --      0.0714                 0.0947                 0.0633
 IR Inten    --    257.3373                69.9062                 4.4163

                     16                     17                     18
                      A                      A                      A
 Frequencies --    318.6604               338.3349               368.7975
 Red. masses --      4.3271                 3.5833                 3.3047
 Frc consts  --      0.2589                 0.2417                 0.2648
 IR Inten    --     11.5067                 2.7540                20.7547

                     19                     20                     21
                      A                      A                      A
 Frequencies --    401.1701               419.0963               456.1770
 Red. masses --      4.7908                 2.8475                 3.1054
 Frc consts  --      0.4543                 0.2947                 0.3807
 IR Inten    --     19.4526                 0.1827                14.3908

                     22                     23                     24
                      A                      A                      A
 Frequencies --    502.9836               519.9114               562.7851
 Red. masses --      1.3941                 2.5348                 3.5246
 Frc consts  --      0.2078                 0.4037                 0.6577
 IR Inten    --     43.8901                48.4847               108.6892

                     25                     26                     27
                      A                      A                      A
 Frequencies --    597.2008               638.6767               677.9637
 Red. masses --      3.0051                 6.3499                 2.9493
 Frc consts  --      0.6315                 1.5261                 0.7987
 IR Inten    --     57.6596                 1.8678                31.9181

                     28                     29                     30
                      A                      A                      A
 Frequencies --    699.9530               723.8869               777.5231
 Red. masses --      1.5594                 1.5427                 9.9936
 Frc consts  --      0.4501                 0.4763                 3.5596
 IR Inten    --     31.2273                86.5529                64.9639

                     31                     32                     33
                      A                      A                      A
 Frequencies --    795.7866               825.2514               871.6807
 Red. masses --      2.2288                 3.3964                 1.2534
 Frc consts  --      0.8316                 1.3628                 0.5611
 IR Inten    --     17.4752                17.0681                 0.3224

                     34                     35                     36
                      A                      A                      A
 Frequencies --    953.5364               965.5133              1010.4082
 Red. masses --      1.4530                 3.5050                 1.3848
 Frc consts  --      0.7784                 1.9251                 0.8330
 IR Inten    --      2.5305                45.5902                 0.3090

                     37                     38                     39
                      A                      A                      A
 Frequencies --   1024.8049              1027.1430              1031.4055
 Red. masses --      1.1869                 4.9540                 1.3191
 Frc consts  --      0.7344                 3.0794                 0.8268
 IR Inten    --      0.1838                 3.5411                 0.4463

                     40                     41                     42
                      A                      A                      A
 Frequencies --   1035.4311              1054.4996              1063.1708
 Red. masses --      1.8468                 1.5541                 2.1108
 Frc consts  --      1.1666                 1.0182                 1.4058
 IR Inten    --    142.3924                45.1183                51.1904

                     43                     44                     45
                      A                      A                      A
 Frequencies --   1068.4406              1084.3049              1104.2456
 Red. masses --      1.9000                 1.8887                 1.9710
 Frc consts  --      1.2779                 1.3083                 1.4160
 IR Inten    --     25.2823                56.3679                88.7498

                     46                     47                     48
                      A                      A                      A
 Frequencies --   1127.7543              1130.8545              1186.3170
 Red. masses --      1.9644                 2.0322                 1.1283
 Frc consts  --      1.4720                 1.5312                 0.9355
 IR Inten    --     20.7771                 6.6812                 0.0954

                     49                     50                     51
                      A                      A                      A
 Frequencies --   1218.3125              1226.7095              1259.3369
 Red. masses --      1.1460                 1.3371                 4.7125
 Frc consts  --      1.0022                 1.1855                 4.4034
 IR Inten    --      9.7751                55.0310                44.4549

                     52                     53                     54
                      A                      A                      A
 Frequencies --   1322.7192              1341.6814              1362.9432
 Red. masses --      4.6414                 1.3416                 1.4304
 Frc consts  --      4.7845                 1.4229                 1.5656
 IR Inten    --      4.2009                13.6420                 5.1501

                     55                     56                     57
                      A                      A                      A
 Frequencies --   1379.3644              1397.9256              1409.7776
 Red. masses --      3.3980                 3.1325                 1.4236
 Frc consts  --      3.8091                 3.6068                 1.6670
 IR Inten    --     16.6735              1180.0730               209.4322

                     58                     59                     60
                      A                      A                      A
 Frequencies --   1461.6773              1482.9420              1492.6113
 Red. masses --      1.2130                 1.1839                 1.8609
 Frc consts  --      1.5269                 1.5340                 2.4427
 IR Inten    --     37.2068                46.9920                12.3550

                     61                     62                     63
                      A                      A                      A
 Frequencies --   1495.8878              1506.3363              1516.9644
 Red. masses --      1.0554                 1.0361                 1.0715
 Frc consts  --      1.3914                 1.3851                 1.4528
 IR Inten    --     14.4808                14.8386                10.6284

                     64                     65                     66
                      A                      A                      A
 Frequencies --   1547.8560              1583.5875              1626.1573
 Red. masses --      2.3126                 2.1647                 2.0809
 Frc consts  --      3.2645                 3.1983                 3.2421
 IR Inten    --      7.8842               473.6726               457.9299

                     67                     68                     69
                      A                      A                      A
 Frequencies --   1651.8788              1662.1323              1677.7594
 Red. masses --      4.4694                 1.1681                 5.5078
 Frc consts  --      7.1855                 1.9014                 9.1345
 IR Inten    --      4.3997                64.2843                 0.2849

                     70                     71                     72
                      A                      A                      A
 Frequencies --   3066.1553              3079.8465              3142.0242
 Red. masses --      1.0360                 1.0385                 1.1029
 Frc consts  --      5.7384                 5.8037                 6.4150
 IR Inten    --     57.3382                28.9224                18.7238

                     73                     74                     75
                      A                      A                      A
 Frequencies --   3148.3326              3172.9501              3198.2420
 Red. masses --      1.1019                 1.1043                 1.0878
 Frc consts  --      6.4352                 6.5501                 6.5558
 IR Inten    --     25.5072                15.4394                 1.1548

                     76                     77                     78
                      A                      A                      A
 Frequencies --   3198.6911              3206.7519              3217.6955
 Red. masses --      1.0992                 1.0895                 1.0932
 Frc consts  --      6.6262                 6.6007                 6.6687
 IR Inten    --      1.6114                 6.5426                29.6418

                     79                     80                     81
                      A                      A                      A
 Frequencies --   3226.5116              3230.2545              3454.6981
 Red. masses --      1.0933                 1.0967                 1.0630
 Frc consts  --      6.7061                 6.7424                 7.4749
 IR Inten    --     32.8038                 1.6072                87.0501

                     82                     83                     84
                      A                      A                      A
 Frequencies --   3584.3236              3624.0871              3746.9305
 Red. masses --      1.0861                 1.0458                 1.1039
 Frc consts  --      8.2214                 8.0924                 9.1311
 IR Inten    --     42.7982                74.1105                90.9567

 - Thermochemistry -
 -------------------
 Temperature   298.150 Kelvin.  Pressure   1.00000 Atm.
 Atom     1 has atomic number  6 and mass  12.00000

 Molecular mass:   270.03677 amu.
 Principal axes and moments of inertia in atomic units:
                           1         2         3
     Eigenvalues --  2906.425464647.279076189.47420
           X            0.99961  -0.02768  -0.00319
           Y            0.02757   0.99918  -0.02964
           Z            0.00401   0.02954   0.99956
 This molecule is an asymmetric top.
 Rotational symmetry number  1.
 Warning -- assumption of classical behavior for rotation
           may cause significant error
 Rotational temperatures (Kelvin)      0.02980     0.01864     0.01399
 Rotational constants (GHZ):           0.62095     0.38834     0.29158
    1 imaginary frequencies ignored.
 Zero-point vibrational energy     649556.7 (Joules/Mol)
                                  155.24778 (Kcal/Mol)
 Warning -- explicit consideration of  24 degrees of freedom as
           vibrations may cause significant error
 Vibrational temperatures:     40.05    69.19   107.75   119.46   139.76
          (Kelvin)            167.24   211.44   287.31   296.44   326.05
                              366.31   385.91   392.21   416.87   458.48
                              486.79   530.62   577.19   602.99   656.34
                              723.68   748.04   809.72   859.24   918.91
                              975.44  1007.08  1041.51  1118.68  1144.96
                             1187.35  1254.15  1371.93  1389.16  1453.75
                             1474.47  1477.83  1483.96  1489.75  1517.19
                             1529.67  1537.25  1560.07  1588.76  1622.59
                             1627.05  1706.85  1752.88  1764.96  1811.90
                             1903.10  1930.38  1960.97  1984.60  2011.30
                             2028.36  2103.03  2133.62  2147.53  2152.25
                             2167.28  2182.57  2227.02  2278.43  2339.68
                             2376.69  2391.44  2413.92  4411.51  4431.21
                             4520.67  4529.75  4565.17  4601.56  4602.20
                             4613.80  4629.55  4642.23  4647.62  4970.54
                             5157.04  5214.25  5391.00

 Zero-point correction=                           0.247403 (Hartree/Particle)
 Thermal correction to Energy=                    0.263179
 Thermal correction to Enthalpy=                  0.264124
 Thermal correction to Gibbs Free Energy=         0.203255
 Sum of electronic and zero-point Energies=          -3186.906756
 Sum of electronic and thermal Energies=             -3186.890980
 Sum of electronic and thermal Enthalpies=           -3186.890036
 Sum of electronic and thermal Free Energies=        -3186.950905

                     E (Thermal)             CV                S
                      KCal/Mol        Cal/Mol-Kelvin    Cal/Mol-Kelvin
 Total                  165.148             58.416            128.109
 Electronic               0.000              0.000              0.000
 Translational            0.889              2.981             42.679
 Rotational               0.889              2.981             32.791
 Vibrational            163.370             52.455             52.639
 Vibration     1          0.593              1.984              5.978
 Vibration     2          0.595              1.978              4.894
 Vibration     3          0.599              1.966              4.021
 Vibration     4          0.600              1.961              3.818
 Vibration     5          0.603              1.951              3.511
 Vibration     6          0.608              1.936              3.162
 Vibration     7          0.617              1.906              2.711
 Vibration     8          0.638              1.840              2.136
 Vibration     9          0.641              1.831              2.079
 Vibration    10          0.650              1.800              1.906
 Vibration    11          0.665              1.755              1.699
 Vibration    12          0.673              1.732              1.608
 Vibration    13          0.676              1.724              1.580
 Vibration    14          0.686              1.693              1.475
 Vibration    15          0.705              1.638              1.317
 Vibration    16          0.719              1.599              1.220
 Vibration    17          0.741              1.536              1.085
 Vibration    18          0.767              1.468              0.958
 Vibration    19          0.782              1.429              0.895
 Vibration    20          0.814              1.347              0.777
 Vibration    21          0.858              1.243              0.651
 Vibration    22          0.875              1.206              0.610
 Vibration    23          0.919              1.112              0.518
 Vibration    24          0.955              1.038              0.454

 Optimization completed.
    -- Stationary point found.
 Normal termination of Gaussian 16 at Sun Feb  7 11:02:42 2021.
