 Gaussian 16, Revision A.03,
 Gaussian 16:  ES64L-G16RevA.03 25-Dec-2016

 ----------------------------------------------------------------------
 # wB97XD def2tzvp, opt=(ts, noeigen, calcfc, maxcycles=70, maxstep=5),
  freq=noraman, scrf=(iefpcm, solvent=water)
 ----------------------------------------------------------------------

 -----------------------
 2_iteration/TS-11-2.out
 -----------------------
 Symbolic Z-matrix:
 Charge =  0 Multiplicity = 1

 SCF Done:  E(RwB97XD) =  -805.270292480     A.U. after   15 cycles
 SCF Done:  E(RwB97XD) =  -805.270308649     A.U. after   12 cycles
 SCF Done:  E(RwB97XD) =  -805.270308833     A.U. after    8 cycles
 SCF Done:  E(RwB97XD) =  -805.270308936     A.U. after    7 cycles
 SCF Done:  E(RwB97XD) =  -805.270308969     A.U. after    7 cycles
 Optimization completed.
    -- Stationary point found.
 Normal termination of Gaussian 16 at Sun Jan 31 19:51:03 2021.

 ---------------------------------------------------------------------
 #N Geom=AllCheck Guess=TCheck SCRF=Check GenChk RwB97XD/def2TZVP Freq
 ---------------------------------------------------------------------

 Structure from the checkpoint file:  "/beegfs/scratch/user/q/tla25/Gau-27760.chk"
 -----------------------
 2_iteration/TS-11-2.out
 -----------------------
 Charge =  0 Multiplicity = 1

                         Standard orientation:
 ---------------------------------------------------------------------
 Center     Atomic      Atomic             Coordinates (Angstroms)
 Number     Number       Type             X           Y           Z
 ---------------------------------------------------------------------
      1          6           0       -0.237392    1.574603   -0.763703
      2          6           0       -1.432925    2.330085   -0.721904
      3          8           0       -1.595058    3.397663   -1.348635
      4          6           0        0.070562    0.427389    0.039431
      5          6           0        0.978278    2.139144    1.952109
      6          1           0        2.026815    1.855345    1.940465
      7          1           0        0.774308    2.836013    1.139251
      8          1           0        0.735148    2.603467    2.905332
      9          7           0        0.148629    0.951013    1.745022
     10          1           0        0.457730    0.194365    2.345634
     11          1           0       -0.818520    1.169118    1.970563
     12          6           0        1.470273   -0.139799   -0.162481
     13          6           0        1.727094   -1.499250    0.006106
     14          6           0        3.006685   -2.013007   -0.148523
     15          6           0        4.061684   -1.175752   -0.471164
     16          6           0        3.823891    0.181233   -0.634288
     17          6           0        2.545542    0.691739   -0.480223
     18          1           0        0.921913   -2.177048    0.253520
     19          1           0        3.173760   -3.074550   -0.017106
     20          1           0        5.060430   -1.574906   -0.593810
     21          1           0        4.638236    0.850452   -0.881464
     22          1           0        2.394423    1.754496   -0.603373
     23          6           0       -0.989835   -0.675329    0.071196
     24          6           0       -1.463862   -1.325559    1.207410
     25          6           0       -2.403759   -2.344543    1.109563
     26          6           0       -2.877062   -2.746173   -0.126832
     27          6           0       -2.402878   -2.117085   -1.269752
     28          6           0       -1.475914   -1.094949   -1.168329
     29          1           0       -1.123821   -1.066514    2.199493
     30          1           0       -2.760535   -2.823581    2.012243
     31          1           0       -3.608426   -3.540527   -0.201305
     32          1           0       -2.760360   -2.419461   -2.245871
     33          1           0       -1.117267   -0.597936   -2.059611
     34          1           0        0.556036    2.044546   -1.322091
     35          7           0       -2.470091    1.927513    0.130518
     36          1           0       -3.327745    2.423349   -0.056367
     37          1           0       -2.613731    0.935910    0.243096
 ---------------------------------------------------------------------

 SCF Done:  E(RwB97XD) =  -805.270308969     A.U. after    2 cycles

 The electronic state is 1-A.
 Alpha  occ. eigenvalues --  -19.18057 -14.50997 -14.42363 -10.36458 -10.35763
 Alpha  occ. eigenvalues --  -10.32052 -10.31146 -10.30968 -10.30052 -10.29635
 Alpha  occ. eigenvalues --  -10.29508 -10.29433 -10.29408 -10.29374 -10.29329
 Alpha  occ. eigenvalues --  -10.29318 -10.29274 -10.29240 -10.23155  -1.10155
 Alpha  occ. eigenvalues --   -1.06515  -0.98391  -0.97239  -0.96783  -0.91030
 Alpha  occ. eigenvalues --   -0.86089  -0.85730  -0.85284  -0.82572  -0.80032
 Alpha  occ. eigenvalues --   -0.75048  -0.71459  -0.70959  -0.70153  -0.67361
 Alpha  occ. eigenvalues --   -0.65378  -0.63585  -0.62620  -0.61096  -0.59495
 Alpha  occ. eigenvalues --   -0.58031  -0.56884  -0.56104  -0.55106  -0.54331
 Alpha  occ. eigenvalues --   -0.53226  -0.52156  -0.51762  -0.51337  -0.50863
 Alpha  occ. eigenvalues --   -0.48946  -0.48358  -0.48232  -0.47028  -0.46681
 Alpha  occ. eigenvalues --   -0.46028  -0.45052  -0.44151  -0.43138  -0.42606
 Alpha  occ. eigenvalues --   -0.41640  -0.35137  -0.34514  -0.34263  -0.34021
 Alpha  occ. eigenvalues --   -0.33444  -0.31947  -0.25945
 Alpha virt. eigenvalues --    0.02739   0.04000   0.04452   0.05658   0.09718
 Alpha virt. eigenvalues --    0.10616   0.12521   0.13119   0.13325   0.13891
 Alpha virt. eigenvalues --    0.14894   0.16115   0.16308   0.16855   0.17577

 Mulliken charges:
               1
     1  C   -0.513840
     2  C    0.254468
     3  O   -0.575380
     4  C    0.552396
     5  C   -0.328678
     6  H    0.169680
     7  H    0.168936
     8  H    0.168778
     9  N   -0.219228
    10  H    0.293433
    11  H    0.287134
    12  C    0.048404
    13  C   -0.235864
    14  C   -0.148051
    15  C   -0.148565
    16  C   -0.127032
    17  C   -0.316121
    18  H    0.169344
    19  H    0.142913
    20  H    0.145127
    21  H    0.143617
    22  H    0.165093
    23  C   -0.131379
    24  C   -0.150707
    25  C   -0.155253
    26  C   -0.118453
    27  C   -0.138688
    28  C   -0.216217
    29  H    0.122774
    30  H    0.146044
    31  H    0.146924
    32  H    0.144115
    33  H    0.142631
    34  H    0.098930
    35  N   -0.496324
    36  H    0.243861
    37  H    0.265174
 Sum of Mulliken charges =  -0.00000

 Dipole moment (field-independent basis, Debye):
    X=              2.9496    Y=             -7.7683    Z=              9.0234  Tot=             12.2665
 Quadrupole moment (field-independent basis, Debye-Ang):
   XX=            -99.5992   YY=           -132.6706   ZZ=           -106.2986
   XY=             17.7976   XZ=             -4.7940   YZ=             16.6963

  Exact polarizability: 309.879   6.069 299.505   0.593 -20.459 248.617
 Approx polarizability: 237.384   8.695 242.246  -2.181 -17.187 215.791

 ******    1 imaginary frequencies (negative Signs) ******

                      1                      2                      3
                      A                      A                      A
 Frequencies --   -320.8508                29.1519                55.0853
 Red. masses --      4.8810                 3.6957                 4.0859
 Frc consts  --      0.2961                 0.0019                 0.0073
 IR Inten    --    463.1918                 1.7019                 2.0625

                      4                      5                      6
                      A                      A                      A
 Frequencies --     64.0355                73.2688                94.0102
 Red. masses --      5.2406                 4.2603                 5.7808
 Frc consts  --      0.0127                 0.0135                 0.0301
 IR Inten    --      5.7764                 6.9602                 7.0270

                      7                      8                      9
                      A                      A                      A
 Frequencies --    104.7321               110.2788               140.6296
 Red. masses --      3.6911                 4.9792                 1.9317
 Frc consts  --      0.0239                 0.0357                 0.0225
 IR Inten    --      6.9984                 7.3982                40.3691

                     10                     11                     12
                      A                      A                      A
 Frequencies --    184.3246               229.4201               256.4832
 Red. masses --      3.4272                 1.2242                 4.0447
 Frc consts  --      0.0686                 0.0380                 0.1568
 IR Inten    --      3.4795                 2.9056                 1.2990

                     13                     14                     15
                      A                      A                      A
 Frequencies --    267.4308               275.9963               307.7708
 Red. masses --      3.7565                 4.5955                 4.5359
 Frc consts  --      0.1583                 0.2062                 0.2531
 IR Inten    --      6.6342                 0.4681                 2.6565

                     16                     17                     18
                      A                      A                      A
 Frequencies --    328.0523               345.6148               380.0407
 Red. masses --      3.2251                 4.3202                 4.7296
 Frc consts  --      0.2045                 0.3040                 0.4025
 IR Inten    --      7.9221                40.4514                11.3254

                     19                     20                     21
                      A                      A                      A
 Frequencies --    418.3101               427.2439               440.5254
 Red. masses --      2.8193                 2.9124                 1.1697
 Frc consts  --      0.2907                 0.3132                 0.1337
 IR Inten    --      0.1479                 0.4081                48.3003

                     22                     23                     24
                      A                      A                      A
 Frequencies --    495.1761               526.7185               562.5799
 Red. masses --      3.4800                 3.6305                 3.3200
 Frc consts  --      0.5027                 0.5934                 0.6191
 IR Inten    --     38.2185                 2.5372                12.2835

                     25                     26                     27
                      A                      A                      A
 Frequencies --    598.6480               612.8583               637.0841
 Red. masses --      1.3698                 2.6203                 5.5541
 Frc consts  --      0.2892                 0.5799                 1.3282
 IR Inten    --    284.9328               260.4880                 0.4800

                     28                     29                     30
                      A                      A                      A
 Frequencies --    639.5127               642.0608               653.2688
 Red. masses --      5.6651                 2.2291                 2.4944
 Frc consts  --      1.3651                 0.5414                 0.6272
 IR Inten    --      9.7451                13.4673                36.8351

                     31                     32                     33
                      A                      A                      A
 Frequencies --    668.6396               722.9545               724.7814
 Red. masses --      2.6935                 1.8472                 1.6835
 Frc consts  --      0.7095                 0.5688                 0.5211
 IR Inten    --     63.3101                97.8912                17.0276

                     34                     35                     36
                      A                      A                      A
 Frequencies --    731.4687               785.3380               796.1204
 Red. masses --      1.5847                 2.8704                 2.5467
 Frc consts  --      0.4996                 1.0430                 0.9510
 IR Inten    --    122.3789                51.9339                20.4283

                     37                     38                     39
                      A                      A                      A
 Frequencies --    806.6737               837.0732               872.2476
 Red. masses --      3.2668                 3.5993                 1.2594
 Frc consts  --      1.2525                 1.4859                 0.5645
 IR Inten    --    109.4230                51.3246                 0.8817

                     40                     41                     42
                      A                      A                      A
 Frequencies --    882.2670               922.0498               950.2624
 Red. masses --      1.2490                 2.4586                 2.5256
 Frc consts  --      0.5728                 1.2315                 1.3437
 IR Inten    --      0.7102                24.1136                 6.1423

                     43                     44                     45
                      A                      A                      A
 Frequencies --    971.4406               973.9863              1015.3552
 Red. masses --      2.1032                 1.5043                 1.3781
 Frc consts  --      1.1694                 0.8408                 0.8371
 IR Inten    --      4.6747                 4.4949                 1.9596

                     46                     47                     48
                      A                      A                      A
 Frequencies --   1022.7088              1024.6817              1026.7596
 Red. masses --      1.4295                 5.7589                 4.8461
 Frc consts  --      0.8809                 3.5626                 3.0101
 IR Inten    --      0.2044                 4.2810                 3.2662

                     49                     50                     51
                      A                      A                      A
 Frequencies --   1035.0872              1036.6252              1050.2715
 Red. masses --      1.3246                 1.3145                 1.2623
 Frc consts  --      0.8362                 0.8323                 0.8204
 IR Inten    --      0.1271                 0.4515                45.5019

                     52                     53                     54
                      A                      A                      A
 Frequencies --   1064.2221              1067.2454              1076.2884
 Red. masses --      2.2142                 2.1649                 3.4430
 Frc consts  --      1.4775                 1.4528                 2.3499
 IR Inten    --     22.3655                26.8040                26.0222

                     55                     56                     57
                      A                      A                      A
 Frequencies --   1098.9514              1113.7343              1117.3900
 Red. masses --      1.2625                 1.6205                 1.6187
 Frc consts  --      0.8984                 1.1843                 1.1908
 IR Inten    --     65.4970                92.2685                71.5803

                     58                     59                     60
                      A                      A                      A
 Frequencies --   1123.4271              1152.3329              1186.1755
 Red. masses --      1.5414                 2.4040                 1.1266
 Frc consts  --      1.1462                 1.8808                 0.9340
 IR Inten    --     26.6614                36.1211                 0.3037

                     61                     62                     63
                      A                      A                      A
 Frequencies --   1187.2697              1216.9653              1219.1116
 Red. masses --      1.1252                 1.1323                 1.1294
 Frc consts  --      0.9345                 0.9881                 0.9890
 IR Inten    --      0.3624                 4.7167                10.1685

                     64                     65                     66
                      A                      A                      A
 Frequencies --   1234.2293              1267.5297              1285.4383
 Red. masses --      2.9142                 1.6330                 2.3978
 Frc consts  --      2.6155                 1.5458                 2.3343
 IR Inten    --     58.8704                85.0435                72.2165

                     67                     68                     69
                      A                      A                      A
 Frequencies --   1321.3784              1334.0703              1357.7855
 Red. masses --      4.3087                 3.5582                 1.6894
 Frc consts  --      4.4326                 3.7312                 1.8350
 IR Inten    --      4.9983                83.6027                50.0029

                     70                     71                     72
                      A                      A                      A
 Frequencies --   1358.3582              1370.0908              1376.5350
 Red. masses --      1.4859                 1.3190                 2.1695
 Frc consts  --      1.6154                 1.4587                 2.4220
 IR Inten    --      9.8084                14.4430               178.7225

                     73                     74                     75
                      A                      A                      A
 Frequencies --   1426.1210              1447.2438              1488.6613
 Red. masses --      3.1457                 1.2162                 2.1939
 Frc consts  --      3.7694                 1.5009                 2.8646
 IR Inten    --    362.6410                14.0433                24.4442

                     76                     77                     78
                      A                      A                      A
 Frequencies --   1494.3554              1497.7177              1506.7966
 Red. masses --      2.1399                 1.0845                 1.0427
 Frc consts  --      2.8155                 1.4333                 1.3948
 IR Inten    --     44.4138                 4.3123                23.4430

                     79                     80                     81
                      A                      A                      A
 Frequencies --   1540.3803              1542.9201              1603.0383
 Red. masses --      2.2448                 2.2299                 2.5060
 Frc consts  --      3.1382                 3.1277                 3.7942
 IR Inten    --     21.8122                29.2582              1269.7725

                     82                     83                     84
                      A                      A                      A
 Frequencies --   1630.3837              1633.7364              1651.9278
 Red. masses --      1.3246                 1.4288                 5.5049
 Frc consts  --      2.0745                 2.2469                 8.8508
 IR Inten    --    391.8863               137.3499                 4.1216

                     85                     86                     87
                      A                      A                      A
 Frequencies --   1653.4786              1673.0233              1675.5448
 Red. masses --      4.0914                 5.8742                 5.8510
 Frc consts  --      6.5905                 9.6873                 9.6781
 IR Inten    --     12.0243                 3.2843                 1.7456

                     88                     89                     90
                      A                      A                      A
 Frequencies --   3078.2406              3162.6185              3186.0628
 Red. masses --      1.0339                 1.1035                 1.1063
 Frc consts  --      5.7721                 6.5033                 6.6168
 IR Inten    --     36.0932                 1.8068                11.2239

                     91                     92                     93
                      A                      A                      A
 Frequencies --   3197.6074              3199.4882              3206.5291
 Red. masses --      1.0862                 1.0863                 1.0900
 Frc consts  --      6.5435                 6.5515                 6.6033
 IR Inten    --      0.1108                 0.8306                13.0125

                     94                     95                     96
                      A                      A                      A
 Frequencies --   3208.0769              3217.8507              3218.3032
 Red. masses --      1.0894                 1.0938                 1.0928
 Frc consts  --      6.6058                 6.6732                 6.6685
 IR Inten    --      6.0760                24.1814                17.3977

                     97                     98                     99
                      A                      A                      A
 Frequencies --   3224.8714              3226.9314              3230.9532
 Red. masses --      1.0951                 1.0941                 1.0945
 Frc consts  --      6.7103                 6.7127                 6.7316
 IR Inten    --     25.1757                14.3746                 2.2814

                    100                    101                    102
                      A                      A                      A
 Frequencies --   3232.0061              3244.9189              3489.8233
 Red. masses --      1.0956                 1.0870                 1.0533
 Frc consts  --      6.7428                 6.7438                 7.5579
 IR Inten    --     13.7972                18.5408                34.2567

                    103                    104                    105
                      A                      A                      A
 Frequencies --   3574.5003              3583.5359              3677.9834
 Red. masses --      1.0481                 1.0939                 1.0982
 Frc consts  --      7.8903                 8.2768                 8.7528
 IR Inten    --     36.1303                76.4222                76.9837

 - Thermochemistry -
 -------------------
 Temperature   298.150 Kelvin.  Pressure   1.00000 Atm.
 Atom     1 has atomic number  6 and mass  12.00000

 Molecular mass:   254.14191 amu.
 Principal axes and moments of inertia in atomic units:
                           1         2         3
     Eigenvalues --  3873.609875217.662087274.16284
           X            0.99920   0.04003  -0.00159
           Y           -0.03998   0.99897   0.02143
           Z            0.00244  -0.02135   0.99977
 This molecule is an asymmetric top.
 Rotational symmetry number  1.
 Warning -- assumption of classical behavior for rotation
           may cause significant error
 Rotational temperatures (Kelvin)      0.02236     0.01660     0.01191
 Rotational constants (GHZ):           0.46591     0.34589     0.24810
    1 imaginary frequencies ignored.
 Zero-point vibrational energy     818911.2 (Joules/Mol)
                                  195.72448 (Kcal/Mol)
 Warning -- explicit consideration of  25 degrees of freedom as
           vibrations may cause significant error
 Vibrational temperatures:     41.94    79.26    92.13   105.42   135.26
          (Kelvin)            150.69   158.67   202.33   265.20   330.08
                              369.02   384.77   397.10   442.81   471.99
                              497.26   546.79   601.85   614.71   633.82
                              712.45   757.83   809.43   861.32   881.77
                              916.62   920.12   923.78   939.91   962.02
                             1040.17  1042.80  1052.42  1129.93  1145.44
                             1160.62  1204.36  1254.97  1269.39  1326.62
                             1367.22  1397.69  1401.35  1460.87  1471.45
                             1474.29  1477.28  1489.26  1491.47  1511.11
                             1531.18  1535.53  1548.54  1581.15  1602.42
                             1607.67  1616.36  1657.95  1706.64  1708.22
                             1750.94  1754.03  1775.78  1823.69  1849.46
                             1901.17  1919.43  1953.55  1954.37  1971.26
                             1980.53  2051.87  2082.26  2141.85  2150.04
                             2154.88  2167.94  2216.26  2219.92  2306.41
                             2345.76  2350.58  2376.76  2378.99  2407.11
                             2410.74  4428.90  4550.30  4584.03  4600.64
                             4603.35  4613.48  4615.71  4629.77  4630.42
                             4639.87  4642.83  4648.62  4650.14  4668.71
                             5021.08  5142.91  5155.91  5291.80

 Zero-point correction=                           0.311907 (Hartree/Particle)
 Thermal correction to Energy=                    0.328878
 Thermal correction to Enthalpy=                  0.329822
 Thermal correction to Gibbs Free Energy=         0.266733
 Sum of electronic and zero-point Energies=           -804.958402
 Sum of electronic and thermal Energies=              -804.941431
 Sum of electronic and thermal Enthalpies=            -804.940487
 Sum of electronic and thermal Free Energies=         -805.003576

                     E (Thermal)             CV                S
                      KCal/Mol        Cal/Mol-Kelvin    Cal/Mol-Kelvin
 Total                  206.374             66.671            132.783
 Electronic               0.000              0.000              0.000
 Translational            0.889              2.981             42.498
 Rotational               0.889              2.981             33.352
 Vibrational            204.596             60.709             56.932
 Vibration     1          0.593              1.984              5.886
 Vibration     2          0.596              1.976              4.626
 Vibration     3          0.597              1.971              4.329
 Vibration     4          0.599              1.967              4.064
 Vibration     5          0.603              1.953              3.575
 Vibration     6          0.605              1.945              3.364
 Vibration     7          0.606              1.941              3.264
 Vibration     8          0.615              1.913              2.795
 Vibration     9          0.631              1.861              2.284
 Vibration    10          0.652              1.796              1.883
 Vibration    11          0.666              1.752              1.686
 Vibration    12          0.673              1.733              1.613
 Vibration    13          0.678              1.718              1.558
 Vibration    14          0.698              1.659              1.374
 Vibration    15          0.711              1.619              1.270
 Vibration    16          0.724              1.584              1.186
 Vibration    17          0.750              1.513              1.039
 Vibration    18          0.781              1.430              0.898
 Vibration    19          0.789              1.411              0.868
 Vibration    20          0.800              1.382              0.825
 Vibration    21          0.851              1.261              0.670
 Vibration    22          0.882              1.191              0.595
 Vibration    23          0.918              1.112              0.519
 Vibration    24          0.957              1.035              0.452
 Vibration    25          0.972              1.005              0.428

 Optimization completed.
    -- Stationary point found.
 Normal termination of Gaussian 16 at Sun Jan 31 22:11:32 2021.
