 Gaussian 16, Revision A.03,
 Gaussian 16:  ES64L-G16RevA.03 25-Dec-2016

 ----------------------------------------------------------------------
 # wB97XD def2tzvp, opt=(ts, noeigen, calcfc, maxcycles=70, maxstep=5),
  freq=noraman, scrf=(iefpcm, solvent=water)
 ----------------------------------------------------------------------

 ------------------------
 2_iteration/TS-190-2.out
 ------------------------
 Symbolic Z-matrix:
 Charge =  0 Multiplicity = 1

 SCF Done:  E(RwB97XD) =  -3686.05036832     A.U. after   15 cycles
 SCF Done:  E(RwB97XD) =  -3686.05039517     A.U. after   11 cycles
 SCF Done:  E(RwB97XD) =  -3686.05039506     A.U. after    7 cycles
 Optimization completed.
    -- Stationary point found.
 Normal termination of Gaussian 16 at Sun Feb  7 15:57:49 2021.

 ---------------------------------------------------------------------
 #N Geom=AllCheck Guess=TCheck SCRF=Check GenChk RwB97XD/def2TZVP Freq
 ---------------------------------------------------------------------

 Structure from the checkpoint file:  "/beegfs/scratch/user/q/tla25/Gau-113867.chk"
 ------------------------
 2_iteration/TS-190-2.out
 ------------------------
 Charge =  0 Multiplicity = 1

                         Standard orientation:
 ---------------------------------------------------------------------
 Center     Atomic      Atomic             Coordinates (Angstroms)
 Number     Number       Type             X           Y           Z
 ---------------------------------------------------------------------
      1          6           0        0.706239   -0.043188   -0.081210
      2          6           0        2.066381    0.507557   -0.126372
      3          8           0        2.280010    1.693466    0.179342
      4          6           0       -0.404141    0.771936   -0.262771
      5          6           0       -0.343992    1.668425    2.429872
      6          1           0        0.412155    0.889215    2.503192
      7          1           0       -0.083823    2.477590    3.112696
      8          1           0       -1.307709    1.252921    2.714892
      9          7           0       -0.376421    2.143897    1.049407
     10          1           0       -1.054795    2.881361    0.896877
     11          1           0        0.554291    2.474236    0.786624
     12          6           0       -1.791693    0.197634   -0.284968
     13          6           0       -2.017408   -0.882278   -1.140095
     14          6           0       -3.276199   -1.442035   -1.256985
     15          6           0       -4.338278   -0.929753   -0.523404
     16          6           0       -4.127172    0.151566    0.314399
     17          6           0       -2.863797    0.716979    0.427944
     18          1           0       -1.192585   -1.280487   -1.716468
     19          1           0       -3.428768   -2.280388   -1.924506
     20          1           0       -5.324133   -1.367956   -0.611125
     21          1           0       -4.947340    0.567280    0.885319
     22          1           0       -2.744748    1.568818    1.079458
     23         17           0       -0.247376    1.929845   -1.662671
     24         35           0        0.486072   -1.657196    0.941176
     25          7           0        3.091078   -0.299987   -0.487121
     26          6           0        4.451887    0.168145   -0.330772
     27          6           0        2.931617   -1.518543   -1.252736
     28          1           0        4.507751    0.875446    0.492040
     29          1           0        5.097095   -0.685011   -0.117667
     30          1           0        4.814542    0.659383   -1.239109
     31          1           0        1.904017   -1.618376   -1.591004
     32          1           0        3.581629   -1.474081   -2.129928
     33          1           0        3.201946   -2.399230   -0.665185
 ---------------------------------------------------------------------

 SCF Done:  E(RwB97XD) =  -3686.05039506     A.U. after    1 cycles

 The electronic state is 1-A.
 Alpha  occ. eigenvalues -- -483.12387-101.69405 -62.67187 -56.46306 -56.45957
 Alpha  occ. eigenvalues --  -56.45946 -19.21273 -14.48317 -14.46216 -10.40942
 Alpha  occ. eigenvalues --  -10.38752 -10.31666 -10.31637 -10.30858 -10.30610
 Alpha  occ. eigenvalues --  -10.30521 -10.30049 -10.29709 -10.29564 -10.29507
 Alpha  occ. eigenvalues --  -10.29449  -9.57995  -8.81275  -7.32630  -7.31776
 Alpha  occ. eigenvalues --   -7.31750  -6.63417  -6.62300  -6.62270  -2.73805
 Alpha  occ. eigenvalues --   -2.73485  -2.73461  -2.72557  -2.72557  -1.13971
 Alpha  occ. eigenvalues --   -1.04519  -1.03499  -0.98766  -0.95739  -0.90923
 Alpha  occ. eigenvalues --   -0.86837  -0.85849  -0.82321  -0.81300  -0.79645
 Alpha  occ. eigenvalues --   -0.78598  -0.73103  -0.71310  -0.67478  -0.64780
 Alpha  occ. eigenvalues --   -0.62068  -0.60534  -0.58644  -0.57720  -0.56948
 Alpha  occ. eigenvalues --   -0.56302  -0.55720  -0.55006  -0.53346  -0.52244
 Alpha  occ. eigenvalues --   -0.51415  -0.51192  -0.48776  -0.48670  -0.48442
 Alpha  occ. eigenvalues --   -0.47575  -0.47261  -0.46707  -0.45763  -0.45270
 Alpha  occ. eigenvalues --   -0.43998  -0.43210  -0.40190  -0.39481  -0.39019
 Alpha  occ. eigenvalues --   -0.37776  -0.34955  -0.34347  -0.33341  -0.32215
 Alpha  occ. eigenvalues --   -0.26963
 Alpha virt. eigenvalues --    0.02650   0.03971   0.04762   0.07792   0.09484
 Alpha virt. eigenvalues --    0.10732   0.12228   0.13706   0.14639   0.14813
 Alpha virt. eigenvalues --    0.15929   0.16601   0.17021   0.17606   0.18040

 Mulliken charges:
               1
     1  C   -0.398562
     2  C    0.363030
     3  O   -0.559738
     4  C    0.286570
     5  C   -0.295468
     6  H    0.157019
     7  H    0.157435
     8  H    0.150169
     9  N   -0.317582
    10  H    0.281276
    11  H    0.278929
    12  C    0.190149
    13  C   -0.303727
    14  C   -0.120110
    15  C   -0.147169
    16  C   -0.159490
    17  C   -0.219205
    18  H    0.171552
    19  H    0.145782
    20  H    0.147068
    21  H    0.146084
    22  H    0.153074
    23  Cl  -0.144295
    24  Br  -0.136137
    25  N   -0.102844
    26  C   -0.292286
    27  C   -0.303571
    28  H    0.141408
    29  H    0.141250
    30  H    0.138631
    31  H    0.164680
    32  H    0.141803
    33  H    0.144276
 Sum of Mulliken charges =  -0.00000

 Dipole moment (field-independent basis, Debye):
    X=             -2.3867    Y=              0.5150    Z=              1.9571  Tot=              3.1292
 Quadrupole moment (field-independent basis, Debye-Ang):
   XX=           -103.7092   YY=           -116.2509   ZZ=           -116.6645
   XY=             -9.7378   XZ=             -6.8332   YZ=             14.3943

  Exact polarizability: 311.494  -6.023 276.611 -18.780  19.495 232.910
 Approx polarizability: 234.981  -2.583 234.403 -13.723  16.058 199.834

 ******    1 imaginary frequencies (negative Signs) ******

                      1                      2                      3
                      A                      A                      A
 Frequencies --   -373.8313                30.4959                51.3678
 Red. masses --      5.5250                 3.8645                 5.0429
 Frc consts  --      0.4549                 0.0021                 0.0078
 IR Inten    --    675.8681                 0.4924                 3.2434

                      4                      5                      6
                      A                      A                      A
 Frequencies --     70.5044                73.3940                97.8112
 Red. masses --      5.2846                 4.8347                 3.7883
 Frc consts  --      0.0155                 0.0153                 0.0214
 IR Inten    --      3.1679                 4.1553                 1.3536

                      7                      8                      9
                      A                      A                      A
 Frequencies --    111.0127               125.6709               133.2778
 Red. masses --      3.1215                 2.0901                 1.9396
 Frc consts  --      0.0227                 0.0194                 0.0203
 IR Inten    --      0.6727                 0.3685                 1.5805

                     10                     11                     12
                      A                      A                      A
 Frequencies --    158.8692               162.0348               175.8856
 Red. masses --      2.5617                 2.2760                 2.4156
 Frc consts  --      0.0381                 0.0352                 0.0440
 IR Inten    --     15.4749                 2.5883                 1.4950

                     13                     14                     15
                      A                      A                      A
 Frequencies --    189.3051               206.2965               227.0721
 Red. masses --      2.6561                 2.0969                 5.9094
 Frc consts  --      0.0561                 0.0526                 0.1795
 IR Inten    --      2.7057                 6.0834                21.9288

                     16                     17                     18
                      A                      A                      A
 Frequencies --    235.6297               253.3822               274.3005
 Red. masses --      3.1238                 3.1592                 3.0965
 Frc consts  --      0.1022                 0.1195                 0.1373
 IR Inten    --      2.3135                 4.4632                 6.9179

                     19                     20                     21
                      A                      A                      A
 Frequencies --    288.1037               304.9817               342.9185
 Red. masses --      2.6880                 3.6826                 6.5459
 Frc consts  --      0.1315                 0.2018                 0.4535
 IR Inten    --      5.2274                28.2809                20.1482

                     22                     23                     24
                      A                      A                      A
 Frequencies --    389.6752               422.5067               427.9038
 Red. masses --      4.3182                 2.8880                 3.1311
 Frc consts  --      0.3863                 0.3037                 0.3378
 IR Inten    --     45.4129                 0.7320                 7.8676

                     25                     26                     27
                      A                      A                      A
 Frequencies --    484.7124               525.9068               559.1870
 Red. masses --      4.9212                 3.6455                 5.9709
 Frc consts  --      0.6812                 0.5941                 1.1000
 IR Inten    --     15.4010                 9.8029               222.4915

                     28                     29                     30
                      A                      A                      A
 Frequencies --    606.2477               639.7273               669.6702
 Red. masses --      4.5426                 6.4578                 4.3463
 Frc consts  --      0.9837                 1.5571                 1.1484
 IR Inten    --     21.8516                12.1522                55.9887

                     31                     32                     33
                      A                      A                      A
 Frequencies --    694.8694               722.1819               752.4986
 Red. masses --      3.1462                 1.7230                 2.1884
 Frc consts  --      0.8950                 0.5294                 0.7301
 IR Inten    --    115.0539                52.0806               237.8384

                     34                     35                     36
                      A                      A                      A
 Frequencies --    782.2089               814.3859               835.8015
 Red. masses --      4.3016                 2.5062                 5.6295
 Frc consts  --      1.5507                 0.9793                 2.3170
 IR Inten    --     35.1587                17.1996                32.2304

                     37                     38                     39
                      A                      A                      A
 Frequencies --    871.7006               952.8484               963.7620
 Red. masses --      1.2489                 2.6611                 1.8274
 Frc consts  --      0.5591                 1.4235                 1.0001
 IR Inten    --      0.5221                 2.5029                 2.2360

                     40                     41                     42
                      A                      A                      A
 Frequencies --   1006.7000              1014.2982              1026.1483
 Red. masses --      1.1653                 1.3300                 5.5373
 Frc consts  --      0.6958                 0.8062                 3.4353
 IR Inten    --     46.8738                 9.5037                 1.1677

                     43                     44                     45
                      A                      A                      A
 Frequencies --   1034.0060              1052.2863              1066.1576
 Red. masses --      1.3204                 2.7386                 2.1856
 Frc consts  --      0.8317                 1.7867                 1.4637
 IR Inten    --      0.4057                84.4319                14.0278

                     46                     47                     48
                      A                      A                      A
 Frequencies --   1078.0808              1094.2618              1117.2598
 Red. masses --      3.9113                 1.3657                 1.3137
 Frc consts  --      2.6784                 0.9635                 0.9662
 IR Inten    --     18.0175                18.8764                66.9585

                     49                     50                     51
                      A                      A                      A
 Frequencies --   1124.7186              1132.4871              1171.0619
 Red. masses --      1.5632                 1.2292                 1.4246
 Frc consts  --      1.1651                 0.9289                 1.1511
 IR Inten    --     15.0024                 0.5555                 6.1432

                     52                     53                     54
                      A                      A                      A
 Frequencies --   1186.3128              1196.1992              1217.5112
 Red. masses --      1.1405                 3.0143                 1.1270
 Frc consts  --      0.9457                 2.5412                 0.9843
 IR Inten    --      0.3304                46.0098                 3.1058

                     55                     56                     57
                      A                      A                      A
 Frequencies --   1225.3994              1250.3414              1316.7166
 Red. masses --      3.0794                 1.4330                 5.1697
 Frc consts  --      2.7244                 1.3199                 5.2808
 IR Inten    --    287.3621                55.7772                34.2595

                     58                     59                     60
                      A                      A                      A
 Frequencies --   1322.0050              1361.5666              1367.3241
 Red. masses --      4.5830                 1.4397                 1.2840
 Frc consts  --      4.7192                 1.5725                 1.4144
 IR Inten    --     21.7673                 3.9462                38.2352

                     61                     62                     63
                      A                      A                      A
 Frequencies --   1431.3764              1445.1263              1451.7276
 Red. masses --      2.9278                 2.1040                 1.1701
 Frc consts  --      3.5342                 2.5889                 1.4529
 IR Inten    --    937.5118                14.6353                 8.9628

                     64                     65                     66
                      A                      A                      A
 Frequencies --   1466.3921              1476.9193              1484.2820
 Red. masses --      1.3524                 1.2194                 1.0649
 Frc consts  --      1.7134                 1.5671                 1.3822
 IR Inten    --     46.2184                56.3992                 5.9125

                     67                     68                     69
                      A                      A                      A
 Frequencies --   1490.6604              1492.2933              1498.2048
 Red. masses --      2.0788                 1.0605                 1.0645
 Frc consts  --      2.7216                 1.3914                 1.4079
 IR Inten    --     42.1754                11.7717                18.7629

                     70                     71                     72
                      A                      A                      A
 Frequencies --   1501.5221              1505.7663              1535.8021
 Red. masses --      1.0581                 1.0359                 1.7228
 Frc consts  --      1.4055                 1.3838                 2.3942
 IR Inten    --     25.6758                10.0928               232.8663

                     73                     74                     75
                      A                      A                      A
 Frequencies --   1546.1791              1607.1248              1647.0562
 Red. masses --      2.4326                 1.8290                 2.1232
 Frc consts  --      3.4264                 2.7832                 3.3936
 IR Inten    --     15.0622               641.5636               152.4943

                     76                     77                     78
                      A                      A                      A
 Frequencies --   1655.5522              1675.8147              3037.2295
 Red. masses --      4.2531                 5.9410                 1.0427
 Frc consts  --      6.8682                 9.8302                 5.6670
 IR Inten    --     28.1545                 0.8064                70.6358

                     79                     80                     81
                      A                      A                      A
 Frequencies --   3043.6679              3074.5329              3099.7248
 Red. masses --      1.0385                 1.0350                 1.1031
 Frc consts  --      5.6685                 5.7643                 6.2448
 IR Inten    --    108.1166                40.7419                62.4005

                     82                     83                     84
                      A                      A                      A
 Frequencies --   3109.9175              3153.3663              3175.1489
 Red. masses --      1.0974                 1.1026                 1.0989
 Frc consts  --      6.2535                 6.4598                 6.5276
 IR Inten    --     20.8131                14.3966                11.9536

                     85                     86                     87
                      A                      A                      A
 Frequencies --   3175.5294              3176.4916              3200.3224
 Red. masses --      1.1002                 1.1054                 1.0863
 Frc consts  --      6.5368                 6.5715                 6.5550
 IR Inten    --     10.7491                15.8878                 0.2644

                     88                     89                     90
                      A                      A                      A
 Frequencies --   3208.5895              3217.4658              3225.7489
 Red. masses --      1.0895                 1.0938                 1.0981
 Frc consts  --      6.6086                 6.6713                 6.7323
 IR Inten    --      6.1569                20.8303                18.0374

                     91                     92                     93
                      A                      A                      A
 Frequencies --   3254.5363              3400.3219              3573.9577
 Red. masses --      1.0916                 1.0642                 1.0855
 Frc consts  --      6.8124                 7.2497                 8.1694
 IR Inten    --     12.8341               172.4253                83.0150

 - Thermochemistry -
 -------------------
 Temperature   298.150 Kelvin.  Pressure   1.00000 Atm.
 Atom     1 has atomic number  6 and mass  12.00000

 Molecular mass:   318.01345 amu.
 Principal axes and moments of inertia in atomic units:
                           1         2         3
     Eigenvalues --  3539.140386836.658087850.21826
           X            0.99985   0.00578  -0.01621
           Y           -0.00272   0.98316   0.18273
           Z            0.01699  -0.18266   0.98303
 This molecule is an asymmetric top.
 Rotational symmetry number  1.
 Warning -- assumption of classical behavior for rotation
           may cause significant error
 Rotational temperatures (Kelvin)      0.02447     0.01267     0.01103
 Rotational constants (GHZ):           0.50994     0.26398     0.22990
    1 imaginary frequencies ignored.
 Zero-point vibrational energy     699978.7 (Joules/Mol)
                                  167.29893 (Kcal/Mol)
 Warning -- explicit consideration of  27 degrees of freedom as
           vibrations may cause significant error
 Vibrational temperatures:     43.88    73.91   101.44   105.60   140.73
          (Kelvin)            159.72   180.81   191.76   228.58   233.13
                              253.06   272.37   296.81   326.71   339.02
                              364.56   394.66   414.52   438.80   493.38
                              560.66   607.89   615.66   697.39   756.66
                              804.55   872.26   920.42   963.51   999.76
                             1039.06  1082.68  1125.42  1171.72  1202.53
                             1254.18  1370.94  1386.64  1448.42  1459.35
                             1476.40  1487.70  1514.01  1533.96  1551.12
                             1574.40  1607.49  1618.22  1629.40  1684.90
                             1706.84  1721.06  1751.73  1763.08  1798.96
                             1894.46  1902.07  1958.99  1967.27  2059.43
                             2079.21  2088.71  2109.81  2124.96  2135.55
                             2144.73  2147.08  2155.58  2160.36  2166.46
                             2209.68  2224.61  2312.29  2369.75  2381.97
                             2411.12  4369.90  4379.16  4423.57  4459.81
                             4474.48  4536.99  4568.33  4568.88  4570.26
                             4604.55  4616.44  4629.22  4641.13  4682.55
                             4892.30  5142.13

 Zero-point correction=                           0.266608 (Hartree/Particle)
 Thermal correction to Energy=                    0.284852
 Thermal correction to Enthalpy=                  0.285796
 Thermal correction to Gibbs Free Energy=         0.219314
 Sum of electronic and zero-point Energies=          -3685.783787
 Sum of electronic and thermal Energies=             -3685.765543
 Sum of electronic and thermal Enthalpies=           -3685.764599
 Sum of electronic and thermal Free Energies=        -3685.831081

                     E (Thermal)             CV                S
                      KCal/Mol        Cal/Mol-Kelvin    Cal/Mol-Kelvin
 Total                  178.747             65.718            139.923
 Electronic               0.000              0.000              0.000
 Translational            0.889              2.981             43.167
 Rotational               0.889              2.981             33.607
 Vibrational            176.970             59.756             63.150
 Vibration     1          0.594              1.984              5.797
 Vibration     2          0.596              1.977              4.764
 Vibration     3          0.598              1.968              4.139
 Vibration     4          0.599              1.967              4.060
 Vibration     5          0.603              1.951              3.497
 Vibration     6          0.607              1.940              3.251
 Vibration     7          0.611              1.927              3.011
 Vibration     8          0.613              1.920              2.898
 Vibration     9          0.621              1.893              2.563
 Vibration    10          0.622              1.889              2.526
 Vibration    11          0.628              1.872              2.372
 Vibration    12          0.633              1.855              2.235
 Vibration    13          0.641              1.831              2.076
 Vibration    14          0.651              1.800              1.902
 Vibration    15          0.655              1.786              1.836
 Vibration    16          0.665              1.757              1.707
 Vibration    17          0.677              1.721              1.569
 Vibration    18          0.685              1.696              1.485
 Vibration    19          0.696              1.664              1.389
 Vibration    20          0.722              1.590              1.199
 Vibration    21          0.758              1.492              1.001
 Vibration    22          0.785              1.421              0.883
 Vibration    23          0.789              1.410              0.866
 Vibration    24          0.841              1.284              0.697
 Vibration    25          0.881              1.193              0.596
 Vibration    26          0.915              1.120              0.525
 Vibration    27          0.965              1.019              0.439

 Optimization completed.
    -- Stationary point found.
 Normal termination of Gaussian 16 at Sun Feb  7 17:33:05 2021.
