 Gaussian 16, Revision A.03,
 Gaussian 16:  ES64L-G16RevA.03 25-Dec-2016

 ----------------------------------------------------------------------
 # wB97XD def2tzvp, opt=(ts, noeigen, calcfc, maxcycles=70, maxstep=3),
  freq=noraman, scrf=(iefpcm, solvent=water)
 ----------------------------------------------------------------------

 ------------------------
 3_iteration/TS-199-3.out
 ------------------------
 Symbolic Z-matrix:
 Charge =  0 Multiplicity = 1

 SCF Done:  E(RwB97XD) =  -1724.48233634     A.U. after   16 cycles
 Optimization completed.
    -- Stationary point found.
 Normal termination of Gaussian 16 at Sun Feb  7 19:00:06 2021.

 ---------------------------------------------------------------------
 #N Geom=AllCheck Guess=TCheck SCRF=Check GenChk RwB97XD/def2TZVP Freq
 ---------------------------------------------------------------------

 Structure from the checkpoint file:  "/beegfs/scratch/user/q/tla25/Gau-53003.chk"
 ------------------------
 3_iteration/TS-199-3.out
 ------------------------
 Charge =  0 Multiplicity = 1

                         Standard orientation:
 ---------------------------------------------------------------------
 Center     Atomic      Atomic             Coordinates (Angstroms)
 Number     Number       Type             X           Y           Z
 ---------------------------------------------------------------------
      1          6           0       -0.311610   -0.239851   -0.169400
      2          6           0        1.035820    0.297390   -0.109230
      3          8           0        1.232860    1.499340    0.091780
      4          6           0       -1.433900    0.578558   -0.234370
      5          6           0       -0.994290    1.168819    2.578330
      6          1           0       -0.403670    0.273689    2.361510
      7          1           0       -0.387541    1.841099    3.184570
      8          1           0       -1.882750    0.889838    3.138300
      9          7           0       -1.362071    1.789208    1.315460
     10          1           0       -2.213831    2.334228    1.362280
     11          1           0       -0.599171    2.360769    0.968400
     12          6           0       -2.812330   -0.006382   -0.164040
     13          6           0       -3.695200    0.067677   -1.235890
     14          6           0       -4.954499   -0.509303   -1.153940
     15          6           0       -5.353139   -1.158023    0.002810
     16          6           0       -4.477309   -1.239103    1.076620
     17          6           0       -3.217059   -0.675502    0.990290
     18          1           0       -3.402140    0.573518   -2.144270
     19          1           0       -5.624739   -0.445134   -2.001370
     20          1           0       -6.338649   -1.600884    0.068630
     21          1           0       -4.773239   -1.747953    1.984850
     22          1           0       -2.538749   -0.774342    1.824610
     23         17           0       -1.355691    1.955228   -1.407280
     24         17           0       -0.516559   -1.985001   -0.065100
     25          7           0        2.061041   -0.597660   -0.262910
     26          6           0        3.441180   -0.395139   -0.159850
     27          6           0        4.253611   -1.528479   -0.264840
     28          6           0        5.629291   -1.421418   -0.180240
     29          6           0        6.227530   -0.183048    0.013620
     30          6           0        5.423690    0.940712    0.117540
     31          6           0        4.040880    0.850081    0.031260
     32          1           0        1.781291   -1.550090   -0.429690
     33          1           0        3.797861   -2.500849   -0.413180
     34          1           0        6.236841   -2.313708   -0.264860
     35          1           0        7.304220   -0.097897    0.080980
     36          1           0        5.873799    1.914572    0.266610
     37          1           0        3.427039    1.731801    0.109050
 ---------------------------------------------------------------------

 SCF Done:  E(RwB97XD) =  -1724.48233634     A.U. after    1 cycles

 The electronic state is 1-A.
 Alpha  occ. eigenvalues -- -101.69909-101.69572 -19.21674 -14.48212 -14.46871
 Alpha  occ. eigenvalues --  -10.41259 -10.39767 -10.34037 -10.32288 -10.31738
 Alpha  occ. eigenvalues --  -10.31715 -10.29959 -10.29873 -10.29656 -10.29557
 Alpha  occ. eigenvalues --  -10.29516 -10.29146 -10.28994 -10.28990 -10.28379
 Alpha  occ. eigenvalues --  -10.28362  -9.58437  -9.58179  -7.33081  -7.32817
 Alpha  occ. eigenvalues --   -7.32235  -7.32188  -7.31964  -7.31923  -1.14684
 Alpha  occ. eigenvalues --   -1.04804  -1.04172  -0.99558  -0.96843  -0.95667
 Alpha  occ. eigenvalues --   -0.94648  -0.87369  -0.85865  -0.85522  -0.85215
 Alpha  occ. eigenvalues --   -0.82457  -0.78959  -0.75962  -0.72481  -0.71386
 Alpha  occ. eigenvalues --   -0.71058  -0.67691  -0.65549  -0.63388  -0.63089
 Alpha  occ. eigenvalues --   -0.60909  -0.59256  -0.58210  -0.57614  -0.56020
 Alpha  occ. eigenvalues --   -0.55802  -0.55030  -0.53885  -0.52882  -0.52551
 Alpha  occ. eigenvalues --   -0.52006  -0.51777  -0.51129  -0.50590  -0.49105
 Alpha  occ. eigenvalues --   -0.48255  -0.47914  -0.47103  -0.45650  -0.44923
 Alpha  occ. eigenvalues --   -0.44030  -0.43600  -0.43010  -0.42594  -0.41554
 Alpha  occ. eigenvalues --   -0.40804  -0.39451  -0.38603  -0.34644  -0.34345
 Alpha  occ. eigenvalues --   -0.33888  -0.33833  -0.30746  -0.27562
 Alpha virt. eigenvalues --    0.00465   0.04488   0.04960   0.05286   0.06652
 Alpha virt. eigenvalues --    0.08604   0.11071   0.12137   0.12979   0.13848
 Alpha virt. eigenvalues --    0.14118   0.14689   0.15322   0.16214   0.17002

 Mulliken charges:
               1
     1  C   -0.334364
     2  C    0.459420
     3  O   -0.553654
     4  C    0.345548
     5  C   -0.327891
     6  H    0.156671
     7  H    0.162511
     8  H    0.167781
     9  N   -0.329251
    10  H    0.286416
    11  H    0.282186
    12  C    0.108673
    13  C   -0.262324
    14  C   -0.132718
    15  C   -0.143383
    16  C   -0.139722
    17  C   -0.241793
    18  H    0.145977
    19  H    0.146777
    20  H    0.147730
    21  H    0.146343
    22  H    0.182153
    23  Cl  -0.123079
    24  Cl  -0.144667
    25  N   -0.269580
    26  C    0.302891
    27  C   -0.312720
    28  C   -0.097358
    29  C   -0.194687
    30  C   -0.111809
    31  C   -0.291389
    32  H    0.236577
    33  H    0.142199
    34  H    0.144152
    35  H    0.141291
    36  H    0.141966
    37  H    0.163129
 Sum of Mulliken charges =  -0.00000

 Dipole moment (field-independent basis, Debye):
    X=             -4.6872    Y=             -0.1855    Z=              4.2009  Tot=              6.2969
 Quadrupole moment (field-independent basis, Debye-Ang):
   XX=           -117.5504   YY=           -130.8278   ZZ=           -129.8851
   XY=             -6.7303   XZ=             -5.2178   YZ=              6.4401

  Exact polarizability: 439.312   3.152 309.946   3.622  -3.165 257.757
 Approx polarizability: 310.772   6.573 270.073   5.057  -4.722 225.684

 ******    1 imaginary frequencies (negative Signs) ******

                      1                      2                      3
                      A                      A                      A
 Frequencies --   -347.7291                18.7901                23.1958
 Red. masses --      6.0239                 4.4510                 4.1993
 Frc consts  --      0.4292                 0.0009                 0.0013
 IR Inten    --    643.4128                 0.4969                 0.6034

                      4                      5                      6
                      A                      A                      A
 Frequencies --     29.4480                56.9774                73.1878
 Red. masses --      5.0310                 4.6922                 7.0254
 Frc consts  --      0.0026                 0.0090                 0.0222
 IR Inten    --      1.0392                 0.5411                 0.4325

                      7                      8                      9
                      A                      A                      A
 Frequencies --     87.6949               106.2774               116.5515
 Red. masses --      5.3658                 5.8513                 3.4995
 Frc consts  --      0.0243                 0.0389                 0.0280
 IR Inten    --     11.0676                 3.6068                 4.6522

                     10                     11                     12
                      A                      A                      A
 Frequencies --    155.5074               166.1248               183.4529
 Red. masses --      2.8325                 4.4504                 8.1652
 Frc consts  --      0.0404                 0.0724                 0.1619
 IR Inten    --     34.9974                12.9169                 5.3974

                     13                     14                     15
                      A                      A                      A
 Frequencies --    201.6004               235.5203               241.2734
 Red. masses --      6.1260                 2.7250                 4.4787
 Frc consts  --      0.1467                 0.0891                 0.1536
 IR Inten    --      3.2880                 5.9647                 2.7037

                     16                     17                     18
                      A                      A                      A
 Frequencies --    245.2739               255.9071               273.8392
 Red. masses --      3.1381                 2.2605                 6.3849
 Frc consts  --      0.1112                 0.0872                 0.2821
 IR Inten    --      2.0439                 8.7827                 0.8948

                     19                     20                     21
                      A                      A                      A
 Frequencies --    320.0643               336.4578               361.2095
 Red. masses --      3.3675                 5.7905                 8.8835
 Frc consts  --      0.2033                 0.3862                 0.6829
 IR Inten    --     51.4557                 1.9039                16.9776

                     22                     23                     24
                      A                      A                      A
 Frequencies --    369.2966               423.2430               424.1922
 Red. masses --      9.1338                 3.0076                 2.9519
 Frc consts  --      0.7339                 0.3174                 0.3130
 IR Inten    --     22.0954                 0.3819                 0.8390

                     25                     26                     27
                      A                      A                      A
 Frequencies --    432.1794               485.9276               528.9087
 Red. masses --      7.7276                 6.0235                 2.8121
 Frc consts  --      0.8504                 0.8380                 0.4635
 IR Inten    --     24.8570                45.7990                25.7611

                     28                     29                     30
                      A                      A                      A
 Frequencies --    539.2515               573.0391               584.3479
 Red. masses --      4.7148                 1.1521                 3.9162
 Frc consts  --      0.8078                 0.2229                 0.7879
 IR Inten    --     17.8697                74.4012               211.9827

                     31                     32                     33
                      A                      A                      A
 Frequencies --    621.2228               635.4621               637.3507
 Red. masses --      2.7265                 6.4218                 5.9417
 Frc consts  --      0.6200                 1.5279                 1.4221
 IR Inten    --     45.8620                 3.9046                 9.8478

                     34                     35                     36
                      A                      A                      A
 Frequencies --    665.4696               719.2201               724.5570
 Red. masses --      2.6616                 1.8838                 1.7276
 Frc consts  --      0.6945                 0.5741                 0.5344
 IR Inten    --     62.5600                66.4245                62.9339

                     37                     38                     39
                      A                      A                      A
 Frequencies --    744.7804               769.4959               785.0644
 Red. masses --      4.2489                 8.5499                 1.8351
 Frc consts  --      1.3886                 2.9828                 0.6664
 IR Inten    --    155.7779                33.4144               102.1447

                     40                     41                     42
                      A                      A                      A
 Frequencies --    800.1247               815.1564               863.0063
 Red. masses --      2.6547                 5.5632                 1.2601
 Frc consts  --      1.0013                 2.1780                 0.5530
 IR Inten    --     42.5830               139.3954                 0.0474

                     43                     44                     45
                      A                      A                      A
 Frequencies --    876.2426               877.6045               927.7841
 Red. masses --      5.5578                 1.2469                 5.9899
 Frc consts  --      2.5142                 0.5658                 3.0378
 IR Inten    --     22.2367                 0.5617                 1.6507

                     46                     47                     48
                      A                      A                      A
 Frequencies --    935.5657               969.1926              1002.6921
 Red. masses --      1.4670                 1.4204                 1.3483
 Frc consts  --      0.7565                 0.7861                 0.7987
 IR Inten    --     13.7331                 0.8173                 0.0222

                     49                     50                     51
                      A                      A                      A
 Frequencies --   1010.1422              1018.1051              1020.0282
 Red. masses --      1.0966                 1.4209                 1.3956
 Frc consts  --      0.6593                 0.8678                 0.8555
 IR Inten    --     74.4623                 0.1090                 1.2569

                     52                     53                     54
                      A                      A                      A
 Frequencies --   1020.9489              1027.9520              1036.6466
 Red. masses --      4.3404                 4.6896                 1.3443
 Frc consts  --      2.6656                 2.9197                 0.8512
 IR Inten    --      3.5761                 3.7309                 0.2769

                     55                     56                     57
                      A                      A                      A
 Frequencies --   1059.8366              1065.7611              1068.5537
 Red. masses --      2.4056                 2.1623                 1.9137
 Frc consts  --      1.5920                 1.4470                 1.2874
 IR Inten    --     12.6351                37.6905                58.1031

                     58                     59                     60
                      A                      A                      A
 Frequencies --   1089.9322              1099.7983              1122.6794
 Red. masses --      3.8084                 1.7612                 1.5790
 Frc consts  --      2.6656                 1.2551                 1.1726
 IR Inten    --     43.8017                26.7309                 9.5698

                     61                     62                     63
                      A                      A                      A
 Frequencies --   1126.5240              1182.6790              1187.7234
 Red. masses --      1.6592                 1.1232                 1.1295
 Frc consts  --      1.2406                 0.9257                 0.9388
 IR Inten    --      3.4960                 3.6195                 0.9171

                     64                     65                     66
                      A                      A                      A
 Frequencies --   1198.5616              1208.2663              1212.4818
 Red. masses --      1.5005                 1.1608                 2.8021
 Frc consts  --      1.2700                 0.9985                 2.4271
 IR Inten    --     39.4784                44.4156                63.4987

                     67                     68                     69
                      A                      A                      A
 Frequencies --   1219.6035              1258.4759              1279.7051
 Red. masses --      1.2083                 2.5833                 3.9817
 Frc consts  --      1.0589                 2.4105                 3.8419
 IR Inten    --     50.5492               690.7025                10.5434

                     70                     71                     72
                      A                      A                      A
 Frequencies --   1324.7618              1346.9854              1351.6413
 Red. masses --      4.7149                 3.7381                 1.3242
 Frc consts  --      4.8752                 3.9960                 1.4254
 IR Inten    --     29.4912               610.1823                16.1368

                     73                     74                     75
                      A                      A                      A
 Frequencies --   1360.8870              1365.1262              1430.2173
 Red. masses --      1.5416                 1.4360                 3.9301
 Frc consts  --      1.6821                 1.5767                 4.7365
 IR Inten    --     20.2838                 6.3732               792.5756

                     76                     77                     78
                      A                      A                      A
 Frequencies --   1466.2847              1482.0515              1492.9836
 Red. masses --      1.2861                 2.2081                 2.2781
 Frc consts  --      1.6292                 2.8575                 2.9918
 IR Inten    --     74.6999               363.3223                44.1976

                     79                     80                     81
                      A                      A                      A
 Frequencies --   1501.0679              1507.5261              1545.5887
 Red. masses --      1.0445                 1.0336                 2.3381
 Frc consts  --      1.3866                 1.3839                 3.2908
 IR Inten    --     17.0386                 5.1077               137.1923

                     82                     83                     84
                      A                      A                      A
 Frequencies --   1548.1259              1570.0162              1614.4478
 Red. masses --      2.3564                 2.1497                 1.2003
 Frc consts  --      3.3274                 3.1220                 1.8433
 IR Inten    --     31.6239              1033.2964               157.1645

                     85                     86                     87
                      A                      A                      A
 Frequencies --   1653.2969              1660.9956              1668.3804
 Red. masses --      5.6551                 5.4372                 4.1345
 Frc consts  --      9.1074                 8.8381                 6.7805
 IR Inten    --      1.9522               111.6420                68.8898

                     88                     89                     90
                      A                      A                      A
 Frequencies --   1675.6905              1684.0317              3047.3229
 Red. masses --      5.8511                 6.1069                 1.0408
 Frc consts  --      9.6800                10.2041                 5.6944
 IR Inten    --      0.3027               280.0464                28.1131

                     91                     92                     93
                      A                      A                      A
 Frequencies --   3122.6932              3175.3610              3187.7672
 Red. masses --      1.0971                 1.1036                 1.0882
 Frc consts  --      6.3030                 6.5559                 6.5155
 IR Inten    --     17.1768                15.1007                12.3210

                     94                     95                     96
                      A                      A                      A
 Frequencies --   3197.7407              3201.6460              3207.1994
 Red. masses --      1.0883                 1.0866                 1.0933
 Frc consts  --      6.5567                 6.5626                 6.6255
 IR Inten    --      2.1446                 0.0849                29.0993

                     97                     98                     99
                      A                      A                      A
 Frequencies --   3211.7460              3222.2126              3222.8783
 Red. masses --      1.0909                 1.0980                 1.0961
 Frc consts  --      6.6302                 6.7168                 6.7082
 IR Inten    --     14.5632                24.0778                23.0469

                    100                    101                    102
                      A                      A                      A
 Frequencies --   3240.3783              3249.4894              3278.4737
 Red. masses --      1.0932                 1.0925                 1.0918
 Frc consts  --      6.7628                 6.7968                 6.9140
 IR Inten    --      5.5279                 3.8622                 6.0602

                    103                    104                    105
                      A                      A                      A
 Frequencies --   3510.1895              3613.6551              3630.3494
 Red. masses --      1.0525                 1.0961                 1.0766
 Frc consts  --      7.6404                 8.4336                 8.3601
 IR Inten    --     50.7899               108.0535                97.1896

 - Thermochemistry -
 -------------------
 Temperature   298.150 Kelvin.  Pressure   1.00000 Atm.
 Atom     1 has atomic number  6 and mass  12.00000

 Molecular mass:   322.06397 amu.
 Principal axes and moments of inertia in atomic units:
                           1         2         3
     Eigenvalues --  2934.70773********************
           X            0.99999   0.00131  -0.00328
           Y           -0.00112   0.99834   0.05765
           Z            0.00335  -0.05765   0.99833
 This molecule is an asymmetric top.
 Rotational symmetry number  1.
 Warning -- assumption of classical behavior for rotation
           may cause significant error
 Rotational temperatures (Kelvin)      0.02951     0.00636     0.00596
 Rotational constants (GHZ):           0.61496     0.13260     0.12417
    1 imaginary frequencies ignored.
 Zero-point vibrational energy     767418.5 (Joules/Mol)
                                  183.41741 (Kcal/Mol)
 Warning -- explicit consideration of  29 degrees of freedom as
           vibrations may cause significant error
 Vibrational temperatures:     27.03    33.37    42.37    81.98   105.30
          (Kelvin)            126.17   152.91   167.69   223.74   239.02
                              263.95   290.06   338.86   347.14   352.89
                              368.19   393.99   460.50   484.09   519.70
                              531.34   608.95   610.32   621.81   699.14
                              760.98   775.86   824.48   840.75   893.80
                              914.29   917.01   957.46  1034.80  1042.48
                             1071.57  1107.13  1129.53  1151.20  1172.83
                             1241.67  1260.72  1262.68  1334.87  1346.07
                             1394.45  1442.65  1453.37  1464.83  1467.59
                             1468.92  1478.99  1491.50  1524.87  1533.39
                             1537.41  1568.17  1582.36  1615.29  1620.82
                             1701.61  1708.87  1724.46  1738.43  1744.49
                             1754.74  1810.67  1841.21  1906.04  1938.01
                             1944.71  1958.01  1964.11  2057.76  2109.66
                             2132.34  2148.07  2159.70  2168.99  2223.76
                             2227.41  2258.90  2322.83  2378.73  2389.80
                             2400.43  2410.94  2422.95  4384.42  4492.86
                             4568.64  4586.49  4600.84  4606.45  4614.44
                             4620.99  4636.05  4637.00  4662.18  4675.29
                             4716.99  5050.38  5199.24  5223.26

 Zero-point correction=                           0.292294 (Hartree/Particle)
 Thermal correction to Energy=                    0.311866
 Thermal correction to Enthalpy=                  0.312811
 Thermal correction to Gibbs Free Energy=         0.241681
 Sum of electronic and zero-point Energies=          -1724.190042
 Sum of electronic and thermal Energies=             -1724.170470
 Sum of electronic and thermal Enthalpies=           -1724.169526
 Sum of electronic and thermal Free Energies=        -1724.240655

                     E (Thermal)             CV                S
                      KCal/Mol        Cal/Mol-Kelvin    Cal/Mol-Kelvin
 Total                  195.699             73.674            149.704
 Electronic               0.000              0.000              0.000
 Translational            0.889              2.981             43.204
 Rotational               0.889              2.981             34.717
 Vibrational            193.922             67.712             71.783
 Vibration     1          0.593              1.986              6.758
 Vibration     2          0.593              1.985              6.340
 Vibration     3          0.593              1.984              5.866
 Vibration     4          0.596              1.975              4.559
 Vibration     5          0.599              1.967              4.066
 Vibration     6          0.601              1.958              3.711
 Vibration     7          0.605              1.944              3.336
 Vibration     8          0.608              1.936              3.157
 Vibration     9          0.620              1.897              2.604
 Vibration    10          0.624              1.884              2.479
 Vibration    11          0.631              1.862              2.293
 Vibration    12          0.638              1.838              2.118
 Vibration    13          0.655              1.786              1.836
 Vibration    14          0.658              1.777              1.793
 Vibration    15          0.660              1.771              1.764
 Vibration    16          0.666              1.753              1.690
 Vibration    17          0.676              1.722              1.572
 Vibration    18          0.706              1.635              1.310
 Vibration    19          0.717              1.603              1.229
 Vibration    20          0.735              1.552              1.117
 Vibration    21          0.742              1.535              1.083
 Vibration    22          0.785              1.420              0.881
 Vibration    23          0.786              1.418              0.878
 Vibration    24          0.793              1.400              0.852
 Vibration    25          0.842              1.281              0.694
 Vibration    26          0.884              1.186              0.590
 Vibration    27          0.894              1.163              0.567
 Vibration    28          0.929              1.090              0.498
 Vibration    29          0.941              1.065              0.477

 Optimization completed.
    -- Stationary point found.
 Normal termination of Gaussian 16 at Sun Feb  7 21:09:48 2021.
