 Gaussian 16, Revision A.03,
 Gaussian 16:  ES64L-G16RevA.03 25-Dec-2016

 ----------------------------------------------------------------------
 # wB97XD def2tzvp, opt=(ts, noeigen, calcfc, maxcycles=70, maxstep=3),
  freq=noraman, scrf=(iefpcm, solvent=water)
 ----------------------------------------------------------------------

 ------------------------
 3_iteration/TS-123-3.out
 ------------------------
 Symbolic Z-matrix:
 Charge =  0 Multiplicity = 1

 SCF Done:  E(RwB97XD) =  -3378.89002375     A.U. after   15 cycles
 Optimization completed.
    -- Stationary point found.
 Normal termination of Gaussian 16 at Sun Feb  7 21:02:01 2021.

 ---------------------------------------------------------------------
 #N Geom=AllCheck Guess=TCheck SCRF=Check GenChk RwB97XD/def2TZVP Freq
 ---------------------------------------------------------------------

 Structure from the checkpoint file:  "/beegfs/scratch/user/q/tla25/Gau-23965.chk"
 ------------------------
 3_iteration/TS-123-3.out
 ------------------------
 Charge =  0 Multiplicity = 1

                         Standard orientation:
 ---------------------------------------------------------------------
 Center     Atomic      Atomic             Coordinates (Angstroms)
 Number     Number       Type             X           Y           Z
 ---------------------------------------------------------------------
      1          6           0        0.054159   -1.085100   -0.048989
      2          6           0        0.677627   -2.401860    0.030041
      3          8           0        1.820717   -2.587742    0.475431
      4          6           0        0.831610    0.056699    0.051871
      5          6           0        1.062560   -0.381911    2.932181
      6          1           0        1.645609   -0.928252    3.674891
      7          1           0        0.677831    0.529970    3.381831
      8          1           0        0.226139   -1.013890    2.619951
      9          7           0        1.855430   -0.071702    1.757101
     10          1           0        2.453201    0.736877    1.868771
     11          1           0        2.390829   -0.885953    1.466511
     12          6           0        0.194862    1.407860    0.147491
     13          6           0        0.474243    2.453190   -0.726399
     14          6           0       -0.186435    3.668601   -0.615139
     15          6           0       -1.128875    3.866422    0.379801
     16          6           0       -1.412786    2.832982    1.262061
     17          6           0       -0.761918    1.618841    1.143501
     18          1           0        1.203253    2.321509   -1.511989
     19          1           0        0.042156    4.462760   -1.314329
     20          1           0       -1.640474    4.816313    0.467841
     21          1           0       -2.149286    2.969303    2.043541
     22          1           0       -1.018289    0.817222    1.819481
     23         35           0        2.530850    0.103677   -1.020949
     24          6           0       -1.419241   -0.986638   -0.247229
     25          6           0       -1.949050   -0.341797   -1.365599
     26          6           0       -3.319060   -0.235235   -1.551009
     27          6           0       -4.193081   -0.792784   -0.628809
     28          6           0       -3.683692   -1.456655    0.478791
     29          6           0       -2.313292   -1.547717    0.666771
     30          1           0       -1.272530    0.089742   -2.093179
     31          1           0       -3.704650    0.278475   -2.422999
     32          1           0       -5.263151   -0.713523   -0.773089
     33          1           0       -4.355992   -1.894984    1.205911
     34          1           0       -1.925593   -2.052617    1.544071
     35          7           0       -0.046235   -3.464709   -0.407749
     36          1           0       -0.996214   -3.367658   -0.714739
     37          1           0        0.311534   -4.386580   -0.234149
 ---------------------------------------------------------------------

 SCF Done:  E(RwB97XD) =  -3378.89002375     A.U. after    1 cycles

 The electronic state is 1-A.
 Alpha  occ. eigenvalues -- -483.11820 -62.66659 -56.45762 -56.45432 -56.45418
 Alpha  occ. eigenvalues --  -19.20641 -14.47087 -14.44098 -10.39641 -10.38343
 Alpha  occ. eigenvalues --  -10.31334 -10.31264 -10.30184 -10.29577 -10.29501
 Alpha  occ. eigenvalues --  -10.29450 -10.29327 -10.29303 -10.28918 -10.28856
 Alpha  occ. eigenvalues --  -10.28769 -10.28698 -10.28609 -10.27252  -8.80751
 Alpha  occ. eigenvalues --   -6.62845  -6.61812  -6.61762  -2.73231  -2.72954
 Alpha  occ. eigenvalues --   -2.72914  -2.72078  -2.72077  -1.13106  -1.02940
 Alpha  occ. eigenvalues --   -0.99873  -0.97982  -0.96433  -0.92600  -0.87304
 Alpha  occ. eigenvalues --   -0.85847  -0.85260  -0.84898  -0.81654  -0.78257
 Alpha  occ. eigenvalues --   -0.74821  -0.70970  -0.70301  -0.69718  -0.69022
 Alpha  occ. eigenvalues --   -0.65161  -0.62755  -0.62205  -0.61640  -0.58930
 Alpha  occ. eigenvalues --   -0.57040  -0.56656  -0.55290  -0.55118  -0.54587
 Alpha  occ. eigenvalues --   -0.53540  -0.52490  -0.51927  -0.51248  -0.50699
 Alpha  occ. eigenvalues --   -0.50087  -0.49018  -0.48107  -0.47551  -0.46984
 Alpha  occ. eigenvalues --   -0.46140  -0.44497  -0.43686  -0.42705  -0.42299
 Alpha  occ. eigenvalues --   -0.42083  -0.37396  -0.36714  -0.35651  -0.34899
 Alpha  occ. eigenvalues --   -0.34095  -0.33839  -0.33331  -0.32563  -0.27141
 Alpha virt. eigenvalues --    0.00629   0.04172   0.05280   0.05584   0.05921
 Alpha virt. eigenvalues --    0.07956   0.11034   0.12580   0.13454   0.13692
 Alpha virt. eigenvalues --    0.13941   0.15234   0.16241   0.16417   0.17062

 Mulliken charges:
               1
     1  C   -0.268689
     2  C    0.351372
     3  O   -0.547630
     4  C    0.264197
     5  C   -0.317467
     6  H    0.156713
     7  H    0.161600
     8  H    0.143761
     9  N   -0.321489
    10  H    0.277020
    11  H    0.278405
    12  C    0.108505
    13  C   -0.228402
    14  C   -0.139690
    15  C   -0.134292
    16  C   -0.171330
    17  C   -0.248437
    18  H    0.145544
    19  H    0.144013
    20  H    0.145831
    21  H    0.142816
    22  H    0.187051
    23  Br  -0.172971
    24  C    0.155886
    25  C   -0.205095
    26  C   -0.172338
    27  C   -0.133937
    28  C   -0.128407
    29  C   -0.279535
    30  H    0.143243
    31  H    0.138329
    32  H    0.142488
    33  H    0.140473
    34  H    0.152663
    35  N   -0.456114
    36  H    0.280308
    37  H    0.265603
 Sum of Mulliken charges =  -0.00000

 Dipole moment (field-independent basis, Debye):
    X=             -3.6368    Y=              2.3954    Z=              3.9314  Tot=              5.8668
 Quadrupole moment (field-independent basis, Debye-Ang):
   XX=           -129.3828   YY=           -120.4796   ZZ=           -118.3912
   XY=              9.5562   XZ=              4.6632   YZ=             -1.4363

  Exact polarizability: 354.203  -2.438 332.777 -11.617 -21.232 293.270
 Approx polarizability: 280.190  -3.871 259.450 -12.380 -21.564 249.855

 ******    1 imaginary frequencies (negative Signs) ******

                      1                      2                      3
                      A                      A                      A
 Frequencies --   -378.0603                33.0802                39.9317
 Red. masses --      5.8951                 4.6339                 4.7101
 Frc consts  --      0.4964                 0.0030                 0.0044
 IR Inten    --    562.4882                 0.8595                 0.0892

                      4                      5                      6
                      A                      A                      A
 Frequencies --     61.7709                64.3410                75.7875
 Red. masses --      4.3804                 3.8680                 3.1713
 Frc consts  --      0.0098                 0.0094                 0.0107
 IR Inten    --      3.4544                 0.6748                 3.7051

                      7                      8                      9
                      A                      A                      A
 Frequencies --    100.0013               103.1457               128.5823
 Red. masses --      4.2754                 4.0015                 7.0776
 Frc consts  --      0.0252                 0.0251                 0.0689
 IR Inten    --      4.9363                 0.3034                 2.0818

                     10                     11                     12
                      A                      A                      A
 Frequencies --    151.9340               164.8906               178.3836
 Red. masses --      4.5401                 3.3732                 4.6451
 Frc consts  --      0.0617                 0.0540                 0.0871
 IR Inten    --     45.2603                10.9421                22.6694

                     13                     14                     15
                      A                      A                      A
 Frequencies --    192.3068               218.9406               224.9517
 Red. masses --      1.3035                 5.6845                 1.7912
 Frc consts  --      0.0284                 0.1605                 0.0534
 IR Inten    --    269.5678                 5.4450                 6.4066

                     16                     17                     18
                      A                      A                      A
 Frequencies --    247.6133               255.8095               276.6822
 Red. masses --      3.5016                 2.4747                 3.7825
 Frc consts  --      0.1265                 0.0954                 0.1706
 IR Inten    --     35.3843                13.2843                 3.4414

                     19                     20                     21
                      A                      A                      A
 Frequencies --    297.8613               310.3337               374.1930
 Red. masses --      3.8746                 4.1315                 6.5497
 Frc consts  --      0.2025                 0.2344                 0.5403
 IR Inten    --     20.2258                 3.6936                39.1451

                     22                     23                     24
                      A                      A                      A
 Frequencies --    413.5329               423.9974               426.9713
 Red. masses --      3.7366                 2.8548                 2.9211
 Frc consts  --      0.3765                 0.3024                 0.3138
 IR Inten    --     19.7189                 0.5055                 1.2341

                     25                     26                     27
                      A                      A                      A
 Frequencies --    474.8666               525.2965               551.1091
 Red. masses --      3.0781                 3.4119                 1.6209
 Frc consts  --      0.4090                 0.5547                 0.2900
 IR Inten    --     27.2351                33.2355                17.7804

                     28                     29                     30
                      A                      A                      A
 Frequencies --    580.9149               594.6739               627.3223
 Red. masses --      2.4049                 3.2898                 2.7038
 Frc consts  --      0.4782                 0.6854                 0.6269
 IR Inten    --     26.4142               118.4611                62.8866

                     31                     32                     33
                      A                      A                      A
 Frequencies --    638.3379               639.8793               667.9828
 Red. masses --      4.8918                 3.9310                 4.7172
 Frc consts  --      1.1744                 0.9483                 1.2401
 IR Inten    --     17.3366                23.8663                79.8015

                     34                     35                     36
                      A                      A                      A
 Frequencies --    681.9580               723.8816               726.9549
 Red. masses --      3.3082                 1.6521                 1.5402
 Frc consts  --      0.9065                 0.5101                 0.4796
 IR Inten    --     52.2636                70.7351                90.7113

                     37                     38                     39
                      A                      A                      A
 Frequencies --    766.8955               795.0283               802.9749
 Red. masses --      3.2100                 2.9811                 2.9648
 Frc consts  --      1.1123                 1.1102                 1.1263
 IR Inten    --    196.7849                25.7874                 9.8437

                     40                     41                     42
                      A                      A                      A
 Frequencies --    821.5721               876.4735               877.2698
 Red. masses --      4.1805                 1.2456                 1.2508
 Frc consts  --      1.6625                 0.5638                 0.5672
 IR Inten    --    123.7864                 0.8444                 2.2818

                     43                     44                     45
                      A                      A                      A
 Frequencies --    891.3551               955.2427               966.8587
 Red. masses --      4.8091                 1.4923                 1.4223
 Frc consts  --      2.2512                 0.8023                 0.7833
 IR Inten    --      6.3444                 1.7837                 3.8981

                     46                     47                     48
                      A                      A                      A
 Frequencies --    985.5477              1013.9158              1018.0684
 Red. masses --      1.1006                 1.3848                 1.3916
 Frc consts  --      0.6298                 0.8388                 0.8498
 IR Inten    --    102.9482                 1.3781                 0.7405

                     49                     50                     51
                      A                      A                      A
 Frequencies --   1024.9051              1027.1335              1027.7707
 Red. masses --      4.1443                 4.6649                 1.5541
 Frc consts  --      2.5649                 2.8997                 0.9672
 IR Inten    --      2.7554                 3.2906                 0.2768

                     52                     53                     54
                      A                      A                      A
 Frequencies --   1032.3613              1035.5162              1062.9954
 Red. masses --      2.5548                 1.5706                 1.6311
 Frc consts  --      1.6042                 0.9923                 1.0859
 IR Inten    --     11.0077                 2.6022                87.3544

                     55                     56                     57
                      A                      A                      A
 Frequencies --   1066.2398              1072.2418              1088.9252
 Red. masses --      2.1403                 1.6868                 2.1025
 Frc consts  --      1.4336                 1.1426                 1.4689
 IR Inten    --     24.1492                50.6989                22.6480

                     58                     59                     60
                      A                      A                      A
 Frequencies --   1096.8460              1110.7572              1124.8431
 Red. masses --      2.6117                 1.5639                 1.5631
 Frc consts  --      1.8512                 1.1368                 1.1653
 IR Inten    --      5.1704                 9.8859                 3.9218

                     61                     62                     63
                      A                      A                      A
 Frequencies --   1181.7777              1186.6468              1188.7478
 Red. masses --      1.1348                 1.1261                 1.4455
 Frc consts  --      0.9338                 0.9343                 1.2035
 IR Inten    --      0.9232                 0.0861                38.0188

                     64                     65                     66
                      A                      A                      A
 Frequencies --   1199.2269              1209.1739              1218.4720
 Red. masses --      3.4987                 1.1235                 1.1369
 Frc consts  --      2.9646                 0.9679                 0.9945
 IR Inten    --     50.8654                 0.9092                10.6860

                     67                     68                     69
                      A                      A                      A
 Frequencies --   1296.9691              1309.6135              1321.8161
 Red. masses --      4.4985                 4.6163                 4.3795
 Frc consts  --      4.4584                 4.6648                 4.5084
 IR Inten    --     27.5487                36.5883                 6.9776

                     70                     71                     72
                      A                      A                      A
 Frequencies --   1355.9319              1358.0800              1363.0792
 Red. masses --      1.3334                 1.4835                 1.4810
 Frc consts  --      1.4444                 1.6121                 1.6212
 IR Inten    --     31.6182                45.7481                 5.6727

                     73                     74                     75
                      A                      A                      A
 Frequencies --   1378.8636              1438.0925              1459.8063
 Red. masses --      3.8862                 2.0301                 1.8175
 Frc consts  --      4.3533                 2.4736                 2.2820
 IR Inten    --    784.0914               396.3608               203.2464

                     76                     77                     78
                      A                      A                      A
 Frequencies --   1488.4860              1491.1887              1492.2936
 Red. masses --      2.1817                 1.0962                 2.1456
 Frc consts  --      2.8480                 1.4362                 2.8152
 IR Inten    --     31.1440                15.8399                72.7748

                     79                     80                     81
                      A                      A                      A
 Frequencies --   1505.1604              1540.6737              1545.5015
 Red. masses --      1.0473                 2.3342                 2.3494
 Frc consts  --      1.3980                 3.2644                 3.3064
 IR Inten    --      9.8876                44.9399                18.6617

                     82                     83                     84
                      A                      A                      A
 Frequencies --   1594.4164              1606.4505              1642.3669
 Red. masses --      1.4770                 1.1525                 5.3781
 Frc consts  --      2.2123                 1.7523                 8.5471
 IR Inten    --    318.9507               299.7807                14.6076

                     85                     86                     87
                      A                      A                      A
 Frequencies --   1650.2570              1662.2393              1671.5521
 Red. masses --      5.2546                 4.2910                 5.5626
 Frc consts  --      8.4313                 6.9855                 9.1573
 IR Inten    --     14.9014               511.5482                30.8933

                     88                     89                     90
                      A                      A                      A
 Frequencies --   1674.2229              3047.0683              3113.7365
 Red. masses --      5.9013                 1.0372                 1.1010
 Frc consts  --      9.7459                 5.6738                 6.2895
 IR Inten    --      0.4939                48.8183                18.7814

                     91                     92                     93
                      A                      A                      A
 Frequencies --   3167.6223              3187.5932              3192.7399
 Red. masses --      1.1030                 1.0867                 1.0874
 Frc consts  --      6.5207                 6.5059                 6.5310
 IR Inten    --     17.7681                 8.7326                 0.8190

                     94                     95                     96
                      A                      A                      A
 Frequencies --   3199.0887              3201.8168              3208.9940
 Red. masses --      1.0865                 1.0913                 1.0950
 Frc consts  --      6.5515                 6.5915                 6.6435
 IR Inten    --      0.1653                12.6076                37.7359

                     97                     98                     99
                      A                      A                      A
 Frequencies --   3209.1374              3219.9599              3220.9231
 Red. masses --      1.0911                 1.0988                 1.0965
 Frc consts  --      6.6203                 6.7123                 6.7022
 IR Inten    --     22.5857                19.4364                26.9681

                    100                    101                    102
                      A                      A                      A
 Frequencies --   3242.4583              3248.6752              3465.8680
 Red. masses --      1.0924                 1.0925                 1.0577
 Frc consts  --      6.7665                 6.7931                 7.4859
 IR Inten    --      4.0750                 5.4873                93.9334

                    103                    104                    105
                      A                      A                      A
 Frequencies --   3607.5619              3629.5642              3756.9793
 Red. masses --      1.0918                 1.0454                 1.1052
 Frc consts  --      8.3715                 8.1139                 9.1912
 IR Inten    --    106.4228                96.6880               100.4824

 - Thermochemistry -
 -------------------
 Temperature   298.150 Kelvin.  Pressure   1.00000 Atm.
 Atom     1 has atomic number  6 and mass  12.00000

 Molecular mass:   332.05242 amu.
 Principal axes and moments of inertia in atomic units:
                           1         2         3
     Eigenvalues --  5400.095626510.631758986.21632
           X            0.99932   0.00243   0.03687
           Y           -0.00216   0.99997  -0.00727
           Z           -0.03689   0.00719   0.99929
 This molecule is an asymmetric top.
 Rotational symmetry number  1.
 Warning -- assumption of classical behavior for rotation
           may cause significant error
 Rotational temperatures (Kelvin)      0.01604     0.01330     0.00964
 Rotational constants (GHZ):           0.33421     0.27720     0.20083
    1 imaginary frequencies ignored.
 Zero-point vibrational energy     787686.2 (Joules/Mol)
                                  188.26152 (Kcal/Mol)
 Warning -- explicit consideration of  28 degrees of freedom as
           vibrations may cause significant error
 Vibrational temperatures:     47.60    57.45    88.87    92.57   109.04
          (Kelvin)            143.88   148.40   185.00   218.60   237.24
                              256.65   276.69   315.01   323.66   356.26
                              368.05   398.08   428.56   446.50   538.38
                              594.98   610.04   614.32   683.23   755.78
                              792.92   835.81   855.60   902.58   918.43
                              920.64   961.08   981.19  1041.50  1045.93
                             1103.39  1143.87  1155.30  1182.06  1261.05
                             1262.20  1282.46  1374.38  1391.09  1417.98
                             1458.80  1464.77  1474.61  1477.82  1478.73
                             1485.34  1489.88  1529.41  1534.08  1542.72
                             1566.72  1578.12  1598.13  1618.40  1700.31
                             1707.32  1710.34  1725.42  1739.73  1753.11
                             1866.05  1884.24  1901.80  1950.88  1953.97
                             1961.17  1983.88  2069.09  2100.34  2141.60
                             2145.49  2147.08  2165.59  2216.69  2223.63
                             2294.01  2311.32  2363.00  2374.35  2391.59
                             2404.99  2408.83  4384.05  4479.97  4557.50
                             4586.24  4593.64  4602.78  4606.70  4617.03
                             4617.23  4632.80  4634.19  4665.17  4674.12
                             4986.61  5190.48  5222.13  5405.46

 Zero-point correction=                           0.300014 (Hartree/Particle)
 Thermal correction to Energy=                    0.319157
 Thermal correction to Enthalpy=                  0.320101
 Thermal correction to Gibbs Free Energy=         0.251515
 Sum of electronic and zero-point Energies=          -3378.590010
 Sum of electronic and thermal Energies=             -3378.570867
 Sum of electronic and thermal Enthalpies=           -3378.569922
 Sum of electronic and thermal Free Energies=        -3378.638509

                     E (Thermal)             CV                S
                      KCal/Mol        Cal/Mol-Kelvin    Cal/Mol-Kelvin
 Total                  200.274             72.089            144.352
 Electronic               0.000              0.000              0.000
 Translational            0.889              2.981             43.295
 Rotational               0.889              2.981             34.112
 Vibrational            198.497             66.127             66.944
 Vibration     1          0.594              1.983              5.636
 Vibration     2          0.594              1.981              5.262
 Vibration     3          0.597              1.973              4.400
 Vibration     4          0.597              1.971              4.319
 Vibration     5          0.599              1.965              3.997
 Vibration     6          0.604              1.949              3.454
 Vibration     7          0.605              1.947              3.394
 Vibration     8          0.611              1.925              2.967
 Vibration     9          0.619              1.901              2.648
 Vibration    10          0.623              1.886              2.493
 Vibration    11          0.629              1.869              2.345
 Vibration    12          0.634              1.851              2.205
 Vibration    13          0.647              1.812              1.968
 Vibration    14          0.650              1.803              1.919
 Vibration    15          0.661              1.767              1.748
 Vibration    16          0.666              1.753              1.690
 Vibration    17          0.678              1.717              1.554
 Vibration    18          0.691              1.678              1.429
 Vibration    19          0.699              1.654              1.361
 Vibration    20          0.745              1.525              1.063
 Vibration    21          0.777              1.441              0.914
 Vibration    22          0.786              1.418              0.878
 Vibration    23          0.789              1.412              0.869
 Vibration    24          0.832              1.306              0.724
 Vibration    25          0.880              1.194              0.598
 Vibration    26          0.906              1.137              0.542
 Vibration    27          0.938              1.073              0.484
 Vibration    28          0.952              1.043              0.459

 Optimization completed.
    -- Stationary point found.
 Normal termination of Gaussian 16 at Sun Feb  7 23:47:46 2021.
