 Gaussian 16, Revision A.03,
 Gaussian 16:  ES64L-G16RevA.03 25-Dec-2016

 ----------------------------------------------------------------------
 # wB97XD def2tzvp, opt=(ts, noeigen, calcfc, maxcycles=70, maxstep=8),
  freq=noraman, scrf=(iefpcm, solvent=water)
 ----------------------------------------------------------------------

 ------------------------
 1_iteration/TS-139-1.out
 ------------------------
 Symbolic Z-matrix:
 Charge =  0 Multiplicity = 1

 SCF Done:  E(RwB97XD) =  -3187.14047947     A.U. after   16 cycles
 SCF Done:  E(RwB97XD) =  -3187.14227544     A.U. after   14 cycles
 SCF Done:  E(RwB97XD) =  -3187.14254800     A.U. after   13 cycles
 SCF Done:  E(RwB97XD) =  -3187.14261472     A.U. after   13 cycles
 SCF Done:  E(RwB97XD) =  -3187.14254832     A.U. after   13 cycles
 SCF Done:  E(RwB97XD) =  -3187.14265302     A.U. after   13 cycles
 SCF Done:  E(RwB97XD) =  -3187.14265703     A.U. after   12 cycles
 SCF Done:  E(RwB97XD) =  -3187.14269425     A.U. after   12 cycles
 SCF Done:  E(RwB97XD) =  -3187.14270220     A.U. after   12 cycles
 SCF Done:  E(RwB97XD) =  -3187.14264183     A.U. after   13 cycles
 SCF Done:  E(RwB97XD) =  -3187.14272145     A.U. after   12 cycles
 SCF Done:  E(RwB97XD) =  -3187.14269884     A.U. after   12 cycles
 SCF Done:  E(RwB97XD) =  -3187.14272347     A.U. after   12 cycles
 SCF Done:  E(RwB97XD) =  -3187.14271440     A.U. after   12 cycles
 SCF Done:  E(RwB97XD) =  -3187.14271867     A.U. after   12 cycles
 SCF Done:  E(RwB97XD) =  -3187.14272064     A.U. after   10 cycles
 SCF Done:  E(RwB97XD) =  -3187.14272233     A.U. after   11 cycles
 SCF Done:  E(RwB97XD) =  -3187.14272230     A.U. after   10 cycles
 SCF Done:  E(RwB97XD) =  -3187.14272249     A.U. after    8 cycles
 Optimization completed.
    -- Stationary point found.
 Normal termination of Gaussian 16 at Sun Feb  7 11:51:41 2021.

 ---------------------------------------------------------------------
 #N Geom=AllCheck Guess=TCheck SCRF=Check GenChk RwB97XD/def2TZVP Freq
 ---------------------------------------------------------------------

 Structure from the checkpoint file:  "/beegfs/scratch/user/q/tla25/Gau-85186.chk"
 ------------------------
 1_iteration/TS-139-1.out
 ------------------------
 Charge =  0 Multiplicity = 1

                         Standard orientation:
 ---------------------------------------------------------------------
 Center     Atomic      Atomic             Coordinates (Angstroms)
 Number     Number       Type             X           Y           Z
 ---------------------------------------------------------------------
      1          6           0        0.992749   -0.946915   -0.612268
      2          6           0        2.448862   -0.913540   -0.681250
      3          8           0        3.085365   -1.825559   -1.218327
      4          6           0        0.195468   -0.049924    0.059769
      5          6           0        0.940823   -1.364417    2.446132
      6          1           0        1.599617   -1.327550    3.312453
      7          1           0        0.012043   -1.857547    2.720540
      8          1           0        1.421601   -1.939930    1.653488
      9          7           0        0.675353   -0.025882    1.931305
     10          1           0        1.530509    0.516854    1.918695
     11          1           0       -0.005763    0.490372    2.476976
     12          6           0       -1.296780   -0.169284    0.001566
     13          6           0       -2.093329   -0.565117    1.067087
     14          6           0       -3.468898   -0.692464    0.913893
     15          6           0       -4.065863   -0.426194   -0.304967
     16          6           0       -3.277005   -0.029558   -1.378219
     17          6           0       -1.910216    0.099876   -1.224394
     18          1           0       -1.669246   -0.798385    2.031393
     19          1           0       -4.068955   -1.005409    1.758546
     20          1           0       -5.137196   -0.525807   -0.422112
     21          1           0       -3.729507    0.180266   -2.338886
     22          1           0       -1.300148    0.407979   -2.063949
     23         35           0        0.550035    1.996952   -0.122912
     24          6           0        0.384624   -2.194038   -1.222993
     25          1           0       -0.662954   -2.311245   -0.958949
     26          1           0        0.454068   -2.181484   -2.314519
     27          1           0        0.919279   -3.081323   -0.880169
     28          7           0        3.145603    0.101846   -0.064599
     29          1           0        4.128430    0.106111   -0.285549
     30          1           0        2.724766    1.015960   -0.012515
 ---------------------------------------------------------------------

 SCF Done:  E(RwB97XD) =  -3187.14272249     A.U. after    1 cycles

 The electronic state is 1-A.
 Alpha  occ. eigenvalues -- -483.12070 -62.66911 -56.45994 -56.45690 -56.45685
 Alpha  occ. eigenvalues --  -19.20223 -14.49473 -14.43634 -10.40053 -10.37885
 Alpha  occ. eigenvalues --  -10.31997 -10.31731 -10.30116 -10.29731 -10.29629
 Alpha  occ. eigenvalues --  -10.29571 -10.29506 -10.27104 -10.26892  -8.80996
 Alpha  occ. eigenvalues --   -6.63024  -6.62073  -6.62058  -2.73412  -2.73159
 Alpha  occ. eigenvalues --   -2.73146  -2.72378  -2.72377  -1.12783  -1.04913
 Alpha  occ. eigenvalues --   -0.99245  -0.98112  -0.92623  -0.86147  -0.86026
 Alpha  occ. eigenvalues --   -0.85456  -0.79399  -0.77314  -0.73988  -0.71383
 Alpha  occ. eigenvalues --   -0.68531  -0.65238  -0.63376  -0.61473  -0.59275
 Alpha  occ. eigenvalues --   -0.58231  -0.57400  -0.55984  -0.54966  -0.53160
 Alpha  occ. eigenvalues --   -0.51901  -0.51477  -0.51084  -0.49463  -0.48469
 Alpha  occ. eigenvalues --   -0.47330  -0.46866  -0.45495  -0.45030  -0.44572
 Alpha  occ. eigenvalues --   -0.42856  -0.42598  -0.38101  -0.37144  -0.35796
 Alpha  occ. eigenvalues --   -0.34504  -0.34090  -0.32812  -0.27568
 Alpha virt. eigenvalues --    0.00765   0.04487   0.05163   0.06554   0.10388
 Alpha virt. eigenvalues --    0.12667   0.13251   0.14124   0.14961   0.15418
 Alpha virt. eigenvalues --    0.16276   0.16854   0.17804   0.18285   0.19276

 Mulliken charges:
               1
     1  C   -0.199654
     2  C    0.255107
     3  O   -0.513989
     4  C    0.190894
     5  C   -0.280386
     6  H    0.163428
     7  H    0.153369
     8  H    0.157870
     9  N   -0.321554
    10  H    0.278812
    11  H    0.295487
    12  C    0.154227
    13  C   -0.174701
    14  C   -0.170532
    15  C   -0.148370
    16  C   -0.108772
    17  C   -0.296760
    18  H    0.129578
    19  H    0.145669
    20  H    0.147306
    21  H    0.147228
    22  H    0.156142
    23  Br  -0.230947
    24  C   -0.353196
    25  H    0.139686
    26  H    0.118582
    27  H    0.123693
    28  N   -0.473650
    29  H    0.258833
    30  H    0.256600
 Sum of Mulliken charges =  -0.00000

 Dipole moment (field-independent basis, Debye):
    X=             -4.3307    Y=              2.2409    Z=              7.3206  Tot=              8.7959
 Quadrupole moment (field-independent basis, Debye-Ang):
   XX=           -102.0479   YY=           -114.4392   ZZ=            -89.8593
   XY=             16.0807   XZ=             11.1959   YZ=             -8.5473

  Exact polarizability: 279.857  -3.892 230.864  -8.811   0.424 234.926
 Approx polarizability: 213.320  -1.869 188.487  -6.437   0.163 199.345

 ******    1 imaginary frequencies (negative Signs) ******

                      1                      2                      3
                      A                      A                      A
 Frequencies --   -393.8610                24.7137                63.0303
 Red. masses --      5.4292                 3.3626                 3.6492
 Frc consts  --      0.4962                 0.0012                 0.0085
 IR Inten    --    405.5831                 0.1540                12.7733

                      4                      5                      6
                      A                      A                      A
 Frequencies --     74.2011                84.8794               102.4938
 Red. masses --      2.1228                 4.0271                 1.7273
 Frc consts  --      0.0069                 0.0171                 0.0107
 IR Inten    --      5.7497                 4.0653                 2.3071

                      7                      8                      9
                      A                      A                      A
 Frequencies --    115.8969               132.9268               146.9503
 Red. masses --      1.5129                 2.6395                 2.9244
 Frc consts  --      0.0120                 0.0275                 0.0372
 IR Inten    --      4.5178                 7.7696                 1.4153

                     10                     11                     12
                      A                      A                      A
 Frequencies --    176.6447               183.7762               214.4714
 Red. masses --      4.1064                 4.6682                 3.2976
 Frc consts  --      0.0755                 0.0929                 0.0894
 IR Inten    --      8.5151                 2.9586                33.7795

                     13                     14                     15
                      A                      A                      A
 Frequencies --    217.2639               270.3164               292.0683
 Red. masses --      5.5513                 4.1361                 4.0877
 Frc consts  --      0.1544                 0.1781                 0.2054
 IR Inten    --     45.9812                 9.0231                13.7428

                     16                     17                     18
                      A                      A                      A
 Frequencies --    324.8264               348.7272               377.0082
 Red. masses --      3.3036                 3.9346                 3.7633
 Frc consts  --      0.2054                 0.2819                 0.3151
 IR Inten    --     25.7856                 1.4656                 8.7893

                     19                     20                     21
                      A                      A                      A
 Frequencies --    420.6739               493.3583               512.9505
 Red. masses --      2.8815                 3.6308                 1.1826
 Frc consts  --      0.3004                 0.5207                 0.1833
 IR Inten    --      0.5728               106.9131                26.9000

                     22                     23                     24
                      A                      A                      A
 Frequencies --    527.8471               560.2434               583.3788
 Red. masses --      3.3973                 1.4331                 2.2149
 Frc consts  --      0.5577                 0.2650                 0.4441
 IR Inten    --     19.0780               357.6744                26.0495

                     25                     26                     27
                      A                      A                      A
 Frequencies --    612.0885               635.8251               645.0887
 Red. masses --      3.8390                 4.4433                 5.2944
 Frc consts  --      0.8474                 1.0583                 1.2981
 IR Inten    --     39.0465               123.6715               106.8953

                     28                     29                     30
                      A                      A                      A
 Frequencies --    678.7775               724.0896               765.0055
 Red. masses --      1.9321                 1.5857                 2.9242
 Frc consts  --      0.5245                 0.4898                 1.0083
 IR Inten    --     53.8428                77.5583               220.3519

                     31                     32                     33
                      A                      A                      A
 Frequencies --    797.1329               817.2356               871.5478
 Red. masses --      6.4918                 2.8116                 1.3513
 Frc consts  --      2.4304                 1.1064                 0.6048
 IR Inten    --     68.9025                51.8674                 3.5926

                     34                     35                     36
                      A                      A                      A
 Frequencies --    877.3715               959.5821               993.7076
 Red. masses --      2.7373                 1.4364                 1.1018
 Frc consts  --      1.2415                 0.7793                 0.6410
 IR Inten    --     26.8357                 2.2841                47.6450

                     37                     38                     39
                      A                      A                      A
 Frequencies --   1013.5002              1025.1518              1029.7272
 Red. masses --      1.3721                 4.3083                 2.0633
 Frc consts  --      0.8304                 2.6677                 1.2890
 IR Inten    --      0.7669                43.8556               134.8711

                     40                     41                     42
                      A                      A                      A
 Frequencies --   1033.3768              1061.5632              1066.3736
 Red. masses --      1.3190                 1.4621                 1.5114
 Frc consts  --      0.8299                 0.9708                 1.0126
 IR Inten    --      0.3791                57.7645                91.9578

                     43                     44                     45
                      A                      A                      A
 Frequencies --   1070.0586              1079.2108              1100.0263
 Red. masses --      1.7980                 2.4786                 2.1390
 Frc consts  --      1.2130                 1.7008                 1.5250
 IR Inten    --     14.0618                10.9544                93.7634

                     46                     47                     48
                      A                      A                      A
 Frequencies --   1128.6618              1173.6407              1187.7275
 Red. masses --      1.5945                 2.7591                 1.1346
 Frc consts  --      1.1967                 2.2392                 0.9430
 IR Inten    --      7.4183                 6.2946                 0.1365

                     49                     50                     51
                      A                      A                      A
 Frequencies --   1215.7446              1225.5658              1240.9239
 Red. masses --      1.3989                 1.1677                 3.2463
 Frc consts  --      1.2182                 1.0333                 2.9453
 IR Inten    --     41.1285                 2.1932                25.8242

                     52                     53                     54
                      A                      A                      A
 Frequencies --   1320.8844              1340.1917              1369.6690
 Red. masses --      4.5814                 1.3162                 1.4026
 Frc consts  --      4.7095                 1.3929                 1.5503
 IR Inten    --      7.8303                12.4694                 4.3668

                     55                     56                     57
                      A                      A                      A
 Frequencies --   1391.0146              1417.3032              1449.1517
 Red. masses --      4.6062                 1.2720                 1.2285
 Frc consts  --      5.2512                 1.5055                 1.5200
 IR Inten    --    506.7314                32.6522               112.3235

                     58                     59                     60
                      A                      A                      A
 Frequencies --   1474.3760              1479.2214              1489.6885
 Red. masses --      1.1118                 1.3420                 1.4900
 Frc consts  --      1.4240                 1.7301                 1.9481
 IR Inten    --     74.1213               101.0479                 4.1199

                     61                     62                     63
                      A                      A                      A
 Frequencies --   1490.2410              1502.9026              1520.7659
 Red. masses --      1.2754                 1.0620                 1.9179
 Frc consts  --      1.6688                 1.4133                 2.6134
 IR Inten    --     39.2387                 6.6554               404.6498

                     64                     65                     66
                      A                      A                      A
 Frequencies --   1552.9331              1617.8574              1635.9092
 Red. masses --      2.6270                 1.4503                 1.1229
 Frc consts  --      3.7326                 2.2366                 1.7705
 IR Inten    --    125.3329               433.5376               119.6464

                     67                     68                     69
                      A                      A                      A
 Frequencies --   1653.8481              1666.8785              1675.6387
 Red. masses --      4.8735                 3.8093                 5.7824
 Frc consts  --      7.8539                 6.2359                 9.5657
 IR Inten    --      0.3887               734.7309                 1.1493

                     70                     71                     72
                      A                      A                      A
 Frequencies --   3041.7920              3070.0043              3098.6658
 Red. masses --      1.0443                 1.0348                 1.0970
 Frc consts  --      5.6929                 5.7465                 6.2056
 IR Inten    --     94.0266                40.0060                39.1520

                     73                     74                     75
                      A                      A                      A
 Frequencies --   3145.1227              3165.2034              3177.1439
 Red. masses --      1.1030                 1.0967                 1.1047
 Frc consts  --      6.4282                 6.4736                 6.5698
 IR Inten    --      5.8345                26.1531                16.6409

                     76                     77                     78
                      A                      A                      A
 Frequencies --   3199.7574              3207.6195              3216.1390
 Red. masses --      1.0863                 1.0893                 1.0939
 Frc consts  --      6.5527                 6.6032                 6.6667
 IR Inten    --      0.8128                 4.5925                20.0261

                     79                     80                     81
                      A                      A                      A
 Frequencies --   3225.1884              3253.8883              3525.6311
 Red. masses --      1.0981                 1.0913                 1.0514
 Frc consts  --      6.7301                 6.8080                 7.7001
 IR Inten    --     19.8438                13.4540                37.5992

                     82                     83                     84
                      A                      A                      A
 Frequencies --   3572.3787              3605.4754              3686.6490
 Red. masses --      1.0480                 1.0960                 1.0996
 Frc consts  --      7.8803                 8.3944                 8.8057
 IR Inten    --     54.8880                63.2488               137.1563

 - Thermochemistry -
 -------------------
 Temperature   298.150 Kelvin.  Pressure   1.00000 Atm.
 Atom     1 has atomic number  6 and mass  12.00000

 Molecular mass:   270.03677 amu.
 Principal axes and moments of inertia in atomic units:
                           1         2         3
     Eigenvalues --  2886.650674994.662525754.05204
           X            0.99986  -0.00843   0.01436
           Y            0.00867   0.99982  -0.01708
           Z           -0.01422   0.01720   0.99975
 This molecule is an asymmetric top.
 Rotational symmetry number  1.
 Warning -- assumption of classical behavior for rotation
           may cause significant error
 Rotational temperatures (Kelvin)      0.03000     0.01734     0.01505
 Rotational constants (GHZ):           0.62520     0.36133     0.31365
    1 imaginary frequencies ignored.
 Zero-point vibrational energy     649072.7 (Joules/Mol)
                                  155.13211 (Kcal/Mol)
 Warning -- explicit consideration of  24 degrees of freedom as
           vibrations may cause significant error
 Vibrational temperatures:     35.56    90.69   106.76   122.12   147.47
          (Kelvin)            166.75   191.25   211.43   254.15   264.41
                              308.58   312.59   388.93   420.22   467.35
                              501.74   542.43   605.26   709.83   738.02
                              759.45   806.07   839.35   880.66   914.81
                              928.14   976.61  1041.80  1100.67  1146.90
                             1175.82  1253.96  1262.34  1380.62  1429.72
                             1458.20  1474.96  1481.55  1486.80  1527.35
                             1534.27  1539.58  1552.74  1582.69  1623.89
                             1688.61  1708.88  1749.19  1763.32  1785.41
                             1900.46  1928.24  1970.65  2001.36  2039.18
                             2085.01  2121.30  2128.27  2143.33  2144.12
                             2162.34  2188.04  2234.32  2327.74  2353.71
                             2379.52  2398.27  2410.87  4376.46  4417.05
                             4458.29  4525.13  4554.02  4571.20  4603.74
                             4615.05  4627.31  4640.33  4681.62  5072.60
                             5139.86  5187.47  5304.27

 Zero-point correction=                           0.247219 (Hartree/Particle)
 Thermal correction to Energy=                    0.263145
 Thermal correction to Enthalpy=                  0.264089
 Thermal correction to Gibbs Free Energy=         0.202717
 Sum of electronic and zero-point Energies=          -3186.895504
 Sum of electronic and thermal Energies=             -3186.879578
 Sum of electronic and thermal Enthalpies=           -3186.878634
 Sum of electronic and thermal Free Energies=        -3186.940005

                     E (Thermal)             CV                S
                      KCal/Mol        Cal/Mol-Kelvin    Cal/Mol-Kelvin
 Total                  165.126             58.361            129.167
 Electronic               0.000              0.000              0.000
 Translational            0.889              2.981             42.679
 Rotational               0.889              2.981             32.784
 Vibrational            163.348             52.399             53.705
 Vibration     1          0.593              1.985              6.214
 Vibration     2          0.597              1.972              4.360
 Vibration     3          0.599              1.966              4.039
 Vibration     4          0.601              1.960              3.775
 Vibration     5          0.605              1.947              3.406
 Vibration     6          0.608              1.936              3.168
 Vibration     7          0.613              1.920              2.903
 Vibration     8          0.617              1.906              2.711
 Vibration     9          0.628              1.871              2.364
 Vibration    10          0.631              1.862              2.290
 Vibration    11          0.644              1.819              2.005
 Vibration    12          0.646              1.815              1.982
 Vibration    13          0.674              1.728              1.594
 Vibration    14          0.687              1.689              1.462
 Vibration    15          0.709              1.626              1.286
 Vibration    16          0.726              1.578              1.172
 Vibration    17          0.748              1.519              1.051
 Vibration    18          0.783              1.425              0.890
 Vibration    19          0.849              1.265              0.675
 Vibration    20          0.868              1.221              0.627
 Vibration    21          0.883              1.188              0.592
 Vibration    22          0.916              1.117              0.523
 Vibration    23          0.940              1.067              0.479
 Vibration    24          0.971              1.006              0.429

 Optimization completed.
    -- Stationary point found.
 Normal termination of Gaussian 16 at Sun Feb  7 12:59:45 2021.
