 Gaussian 16, Revision A.03,
 Gaussian 16:  ES64L-G16RevA.03 25-Dec-2016

 ----------------------------------------------------------------------
 # wB97XD def2tzvp, opt=(ts, noeigen, calcfc, maxcycles=70, maxstep=3),
  freq=noraman, scrf=(iefpcm, solvent=water)
 ----------------------------------------------------------------------

 ------------------------
 0_iteration/TS-183-0.out
 ------------------------
 Symbolic Z-matrix:
 Charge =  0 Multiplicity = 1

 SCF Done:  E(RwB97XD) =  -1304.19035891     A.U. after   15 cycles
 Optimization completed.
    -- Stationary point found.
 Normal termination of Gaussian 16 at Fri Mar 26 00:03:58 2021.

 ---------------------------------------------------------------------
 #N Geom=AllCheck Guess=TCheck SCRF=Check GenChk RwB97XD/def2TZVP Freq
 ---------------------------------------------------------------------

 Structure from the checkpoint file:  "/beegfs/scratch/user/q/tla25/Gau-49129.chk"
 ------------------------
 0_iteration/TS-183-0.out
 ------------------------
 Charge =  0 Multiplicity = 1

                         Standard orientation:
 ---------------------------------------------------------------------
 Center     Atomic      Atomic             Coordinates (Angstroms)
 Number     Number       Type             X           Y           Z
 ---------------------------------------------------------------------
      1          6           0        0.332591   -0.325401   -0.194596
      2          6           0       -0.990909    0.185200    0.089204
      3          8           0       -1.215608    1.333400    0.497104
      4          6           0        1.436391    0.359299    0.294504
      5          6           0        1.179602    2.148399   -1.897896
      6          1           0        2.134302    2.101499   -2.416096
      7          1           0        0.588492    1.268299   -2.161196
      8          1           0        0.640402    3.039699   -2.218696
      9          7           0        1.374602    2.136299   -0.455796
     10          1           0        2.108002    2.757099   -0.134896
     11          1           0        0.501202    2.368499    0.015704
     12          6           0        2.816491   -0.187302    0.075804
     13          6           0        3.095291   -1.442302    0.620704
     14          6           0        4.343090   -2.019112    0.473104
     15          6           0        5.343191   -1.349313   -0.220396
     16          6           0        5.079291   -0.100813   -0.755696
     17          6           0        3.825391    0.478888   -0.605696
     18          1           0        2.318990   -1.967602    1.162304
     19          1           0        4.535990   -2.994612    0.901004
     20          1           0        6.320790   -1.798713   -0.338596
     21          1           0        5.849891    0.434587   -1.295296
     22          1           0        3.660102    1.455488   -1.032996
     23         17           0        1.378301    0.985599    2.023104
     24          6           0        0.491490   -1.483501   -1.158196
     25          1           0        1.488290   -1.504201   -1.593296
     26          1           0        0.336290   -2.460801   -0.685196
     27          1           0       -0.212609   -1.404901   -1.990296
     28          7           0       -2.025609   -0.693000   -0.159796
     29          6           0       -3.405509   -0.485499   -0.091496
     30          6           0       -4.001999    0.772801    0.006004
     31          6           0       -5.385409    0.878601    0.042004
     32          6           0       -6.196109   -0.244188   -0.019396
     33          6           0       -5.602410   -1.495398   -0.120496
     34          6           0       -4.225210   -1.616799   -0.155096
     35          1           0       -1.754910   -1.642300   -0.350696
     36          1           0       -3.382798    1.653001    0.057304
     37          1           0       -5.831498    1.862812    0.118004
     38          1           0       -7.273509   -0.147988    0.010804
     39          1           0       -6.214610   -2.387198   -0.170896
     40          1           0       -3.773610   -2.599499   -0.231696
 ---------------------------------------------------------------------

 SCF Done:  E(RwB97XD) =  -1304.19035891     A.U. after    1 cycles

 The electronic state is 1-A.
 Alpha  occ. eigenvalues -- -101.68457 -19.20905 -14.47919 -14.46315 -10.39861
 Alpha  occ. eigenvalues --  -10.38385 -10.33767 -10.31473 -10.31394 -10.29891
 Alpha  occ. eigenvalues --  -10.29614 -10.29500 -10.29462 -10.29393 -10.29024
 Alpha  occ. eigenvalues --  -10.28875 -10.28808 -10.28225 -10.28198 -10.27790
 Alpha  occ. eigenvalues --  -10.26611  -9.57054  -7.31666  -7.30855  -7.30814
 Alpha  occ. eigenvalues --   -1.13625  -1.04221  -1.03638  -0.98352  -0.95546
 Alpha  occ. eigenvalues --   -0.94877  -0.88830  -0.86388  -0.85758  -0.85084
 Alpha  occ. eigenvalues --   -0.83806  -0.78803  -0.77541  -0.75025  -0.71933
 Alpha  occ. eigenvalues --   -0.71198  -0.70824  -0.67236  -0.65306  -0.63042
 Alpha  occ. eigenvalues --   -0.62592  -0.60080  -0.58371  -0.57647  -0.57010
 Alpha  occ. eigenvalues --   -0.55454  -0.55373  -0.54121  -0.53484  -0.52670
 Alpha  occ. eigenvalues --   -0.52305  -0.51624  -0.51278  -0.50788  -0.50048
 Alpha  occ. eigenvalues --   -0.49005  -0.48414  -0.47271  -0.46535  -0.46274
 Alpha  occ. eigenvalues --   -0.45872  -0.45173  -0.44647  -0.43616  -0.42858
 Alpha  occ. eigenvalues --   -0.42818  -0.40287  -0.38828  -0.38236  -0.34363
 Alpha  occ. eigenvalues --   -0.34201  -0.33620  -0.33342  -0.30339  -0.26707
 Alpha virt. eigenvalues --    0.03069   0.03801   0.04773   0.05411   0.07289
 Alpha virt. eigenvalues --    0.09597   0.10598   0.12081   0.13292   0.13886
 Alpha virt. eigenvalues --    0.14664   0.15176   0.15773   0.16272   0.16549

 Mulliken charges:
               1
     1  C   -0.386092
     2  C    0.447734
     3  O   -0.566293
     4  C    0.359193
     5  C   -0.284608
     6  H    0.146930
     7  H    0.151431
     8  H    0.155951
     9  N   -0.337363
    10  H    0.283374
    11  H    0.277161
    12  C    0.119181
    13  C   -0.311868
    14  C   -0.112740
    15  C   -0.149587
    16  C   -0.162390
    17  C   -0.171995
    18  H    0.157287
    19  H    0.146129
    20  H    0.146505
    21  H    0.144915
    22  H    0.137597
    23  Cl  -0.175011
    24  C   -0.450399
    25  H    0.155446
    26  H    0.140432
    27  H    0.148991
    28  N   -0.276952
    29  C    0.300202
    30  C   -0.297282
    31  C   -0.106726
    32  C   -0.198609
    33  C   -0.097092
    34  C   -0.314975
    35  H    0.258454
    36  H    0.157614
    37  H    0.141052
    38  H    0.140296
    39  H    0.142959
    40  H    0.141149
 Sum of Mulliken charges =  -0.00000

 Dipole moment (field-independent basis, Debye):
    X=              4.7160    Y=             -0.4859    Z=             -5.0583  Tot=              6.9328
 Quadrupole moment (field-independent basis, Debye-Ang):
   XX=           -117.4847   YY=           -111.8044   ZZ=           -137.7812
   XY=              8.7249   XZ=             -5.5020   YZ=             -8.3326

  Exact polarizability: 436.135   7.678 327.160 -12.717  -7.111 235.747
 Approx polarizability: 309.858   3.146 280.272 -11.025  -5.130 205.647

 ******    1 imaginary frequencies (negative Signs) ******

                      1                      2                      3
                      A                      A                      A
 Frequencies --   -383.0828                21.6066                25.3799
 Red. masses --      5.3762                 3.8148                 4.3705
 Frc consts  --      0.4648                 0.0010                 0.0017
 IR Inten    --    728.4023                 0.3092                 0.4640

                      4                      5                      6
                      A                      A                      A
 Frequencies --     39.8818                51.1305                90.5559
 Red. masses --      4.3576                 5.1271                 4.9476
 Frc consts  --      0.0041                 0.0079                 0.0239
 IR Inten    --      1.0687                 0.8659                 0.8615

                      7                      8                      9
                      A                      A                      A
 Frequencies --     96.7889               115.5582               139.2674
 Red. masses --      4.8719                 4.6713                 2.4174
 Frc consts  --      0.0269                 0.0368                 0.0276
 IR Inten    --     15.7711                 3.0903                 1.4027

                     10                     11                     12
                      A                      A                      A
 Frequencies --    142.5498               165.6457               179.9632
 Red. masses --      3.6767                 1.3284                 2.0578
 Frc consts  --      0.0440                 0.0215                 0.0393
 IR Inten    --      5.9927                 5.5794                 2.8858

                     13                     14                     15
                      A                      A                      A
 Frequencies --    198.0798               216.0120               232.1196
 Red. masses --      2.1600                 4.9682                 3.8857
 Frc consts  --      0.0499                 0.1366                 0.1234
 IR Inten    --      0.8827                 2.5988                 4.9266

                     16                     17                     18
                      A                      A                      A
 Frequencies --    239.7764               255.8880               293.0538
 Red. masses --      3.4440                 3.2735                 4.3775
 Frc consts  --      0.1167                 0.1263                 0.2215
 IR Inten    --     14.5326                 8.1430                 1.6556

                     19                     20                     21
                      A                      A                      A
 Frequencies --    305.3655               331.0590               347.9798
 Red. masses --      4.0144                 3.9837                 3.2671
 Frc consts  --      0.2206                 0.2572                 0.2331
 IR Inten    --     26.6962                49.6042                 4.4355

                     22                     23                     24
                      A                      A                      A
 Frequencies --    367.5349               382.7302               421.3706
 Red. masses --      6.2473                 7.8065                 2.8799
 Frc consts  --      0.4972                 0.6737                 0.3013
 IR Inten    --     42.1921                28.3784                 1.9311

                     25                     26                     27
                      A                      A                      A
 Frequencies --    423.8731               493.0841               527.3059
 Red. masses --      2.9794                 4.1116                 2.8509
 Frc consts  --      0.3154                 0.5890                 0.4670
 IR Inten    --      0.4013                71.3550                22.2084

                     28                     29                     30
                      A                      A                      A
 Frequencies --    541.1934               554.9950               568.8110
 Red. masses --      3.7515                 4.7675                 1.1825
 Frc consts  --      0.6474                 0.8652                 0.2254
 IR Inten    --     42.1293                40.2909                93.4221

                     31                     32                     33
                      A                      A                      A
 Frequencies --    609.8542               632.7472               636.4549
 Red. masses --      3.5141                 5.9838                 6.2457
 Frc consts  --      0.7701                 1.4115                 1.4906
 IR Inten    --    114.2821                 5.7753                 6.0997

                     34                     35                     36
                      A                      A                      A
 Frequencies --    649.4466               707.8388               718.6452
 Red. masses --      6.8033                 2.1075                 1.8805
 Frc consts  --      1.6907                 0.6221                 0.5722
 IR Inten    --     56.9225                45.7388                64.2376

                     37                     38                     39
                      A                      A                      A
 Frequencies --    723.1700               731.9903               783.2061
 Red. masses --      2.1996                 1.8389                 1.8274
 Frc consts  --      0.6778                 0.5805                 0.6604
 IR Inten    --      7.4316               288.6083                56.6887

                     40                     41                     42
                      A                      A                      A
 Frequencies --    786.7609               796.3228               848.4475
 Red. masses --      4.8402                 2.9668                 4.0072
 Frc consts  --      1.7652                 1.1084                 1.6996
 IR Inten    --     74.3705                81.0590               104.9396

                     43                     44                     45
                      A                      A                      A
 Frequencies --    860.9076               874.0925               876.6258
 Red. masses --      1.2694                 1.2705                 4.6401
 Frc consts  --      0.5543                 0.5719                 2.1009
 IR Inten    --      0.0822                 0.6874                 1.5672

                     46                     47                     48
                      A                      A                      A
 Frequencies --    932.5554               944.6210               961.8292
 Red. masses --      1.5508                 3.9075                 1.4963
 Frc consts  --      0.7946                 2.0543                 0.8156
 IR Inten    --     14.1488                 1.7787                 2.5704

                     49                     50                     51
                      A                      A                      A
 Frequencies --    992.4999              1001.4404              1015.0391
 Red. masses --      1.1052                 1.3465                 1.3683
 Frc consts  --      0.6414                 0.7956                 0.8306
 IR Inten    --     64.7492                 0.0762                 2.4174

                     52                     53                     54
                      A                      A                      A
 Frequencies --   1017.0706              1020.0535              1025.5994
 Red. masses --      1.2944                 5.6440                 4.8804
 Frc consts  --      0.7889                 3.4601                 3.0246
 IR Inten    --      1.8393                18.3238                60.1605

                     55                     56                     57
                      A                      A                      A
 Frequencies --   1028.5989              1034.2532              1063.1683
 Red. masses --      1.9478                 1.3243                 2.1278
 Frc consts  --      1.2142                 0.8346                 1.4171
 IR Inten    --    346.4560                 5.2693                 9.0955

                     58                     59                     60
                      A                      A                      A
 Frequencies --   1066.5089              1068.7291              1086.0902
 Red. masses --      1.3874                 2.0221                 4.4876
 Frc consts  --      0.9298                 1.3608                 3.1189
 IR Inten    --      3.8501                 6.4054                61.2823

                     61                     62                     63
                      A                      A                      A
 Frequencies --   1103.9975              1120.5841              1126.4074
 Red. masses --      1.2027                 1.5430                 1.5808
 Frc consts  --      0.8637                 1.1416                 1.1817
 IR Inten    --     57.6965                24.3624                11.5749

                     64                     65                     66
                      A                      A                      A
 Frequencies --   1164.9011              1183.0797              1186.7807
 Red. masses --      3.3309                 1.1292                 1.1324
 Frc consts  --      2.6631                 0.9312                 0.9397
 IR Inten    --     91.9829                 4.1694                 0.1832

                     67                     68                     69
                      A                      A                      A
 Frequencies --   1211.2494              1216.0365              1220.9523
 Red. masses --      1.1394                 1.3940                 1.1476
 Frc consts  --      0.9849                 1.2145                 1.0079
 IR Inten    --     24.6269                66.0305                13.1426

                     70                     71                     72
                      A                      A                      A
 Frequencies --   1248.5597              1277.9998              1304.1942
 Red. masses --      3.3066                 2.7467                 5.4879
 Frc consts  --      3.0371                 2.6432                 5.4997
 IR Inten    --    270.8969               248.8210                85.3500

                     73                     74                     75
                      A                      A                      A
 Frequencies --   1323.0307              1347.2718              1359.6893
 Red. masses --      4.6648                 4.1691                 1.3299
 Frc consts  --      4.8109                 4.4587                 1.4486
 IR Inten    --     25.2910               708.3194                17.2174

                     76                     77                     78
                      A                      A                      A
 Frequencies --   1363.8509              1365.3170              1419.3127
 Red. masses --      1.4838                 1.4195                 1.3224
 Frc consts  --      1.6261                 1.5590                 1.5695
 IR Inten    --     28.5407                 3.3444               164.8005

                     79                     80                     81
                      A                      A                      A
 Frequencies --   1448.7999              1469.5871              1477.7772
 Red. masses --      1.4105                 1.9859                 2.1027
 Frc consts  --      1.7444                 2.5270                 2.7055
 IR Inten    --    157.3312               107.1719               538.8840

                     82                     83                     84
                      A                      A                      A
 Frequencies --   1488.6708              1490.1292              1492.2615
 Red. masses --      1.0442                 2.0616                 1.0698
 Frc consts  --      1.3634                 2.6972                 1.4037
 IR Inten    --     14.4500                36.8607                14.4202

                     85                     86                     87
                      A                      A                      A
 Frequencies --   1509.0154              1511.0587              1546.0324
 Red. masses --      1.0787                 1.1444                 2.3672
 Frc consts  --      1.4472                 1.5395                 3.3337
 IR Inten    --     46.7120               323.0030               179.8054

                     88                     89                     90
                      A                      A                      A
 Frequencies --   1551.1035              1565.1592              1634.7556
 Red. masses --      2.4756                 2.0892                 1.3621
 Frc consts  --      3.5093                 3.0154                 2.1447
 IR Inten    --      7.2465               623.3076               253.2176

                     91                     92                     93
                      A                      A                      A
 Frequencies --   1653.0052              1660.5387              1670.9545
 Red. masses --      5.5318                 4.4049                 3.4263
 Frc consts  --      8.9056                 7.1562                 5.6365
 IR Inten    --      9.9546                69.3600                20.9178

                     94                     95                     96
                      A                      A                      A
 Frequencies --   1676.7264              1682.5063              3010.4050
 Red. masses --      5.9295                 4.7447                 1.0516
 Frc consts  --      9.8218                 7.9135                 5.6152
 IR Inten    --      3.2918               341.8961                95.3316

                     97                     98                     99
                      A                      A                      A
 Frequencies --   3059.2785              3078.7440              3129.6402
 Red. masses --      1.0356                 1.0908                 1.1023
 Frc consts  --      5.7107                 6.0920                 6.3612
 IR Inten    --     46.0390                42.1083                11.7159

                    100                    101                    102
                      A                      A                      A
 Frequencies --   3147.5708              3169.5485              3186.7380
 Red. masses --      1.0950                 1.1037                 1.0880
 Frc consts  --      6.3918                 6.5326                 6.5101
 IR Inten    --     22.1166                22.9190                13.5232

                    103                    104                    105
                      A                      A                      A
 Frequencies --   3196.7906              3198.4804              3206.0884
 Red. masses --      1.0882                 1.0862                 1.0894
 Frc consts  --      6.5525                 6.5471                 6.5975
 IR Inten    --      2.2346                 0.7427                 3.6468

                    106                    107                    108
                      A                      A                      A
 Frequencies --   3206.1141              3214.7596              3221.5577
 Red. masses --      1.0932                 1.0940                 1.0979
 Frc consts  --      6.6207                 6.6611                 6.7134
 IR Inten    --     31.6070                22.7439                24.1832

                    109                    110                    111
                      A                      A                      A
 Frequencies --   3224.1653              3256.9847              3271.2220
 Red. masses --      1.0982                 1.0913                 1.0923
 Frc consts  --      6.7264                 6.8204                 6.8866
 IR Inten    --     20.6343                14.7789                 3.2584

                    112                    113                    114
                      A                      A                      A
 Frequencies --   3446.0533              3586.3406              3655.3418
 Red. masses --      1.0603                 1.0887                 1.0765
 Frc consts  --      7.4186                 8.2499                 8.4748
 IR Inten    --    103.6604                95.8373                54.2604

 - Thermochemistry -
 -------------------
 Temperature   298.150 Kelvin.  Pressure   1.00000 Atm.
 Atom     1 has atomic number  6 and mass  12.00000

 Molecular mass:   302.11859 amu.
 Principal axes and moments of inertia in atomic units:
                           1         2         3
     Eigenvalues --  2616.01825********************
           X            0.99998  -0.00021  -0.00555
           Y           -0.00016   0.99785  -0.06550
           Z            0.00555   0.06550   0.99784
 This molecule is an asymmetric top.
 Rotational symmetry number  1.
 Warning -- assumption of classical behavior for rotation
           may cause significant error
 Rotational temperatures (Kelvin)      0.03311     0.00644     0.00609
 Rotational constants (GHZ):           0.68988     0.13418     0.12684
    1 imaginary frequencies ignored.
 Zero-point vibrational energy     866097.8 (Joules/Mol)
                                  207.00234 (Kcal/Mol)
 Warning -- explicit consideration of  30 degrees of freedom as
           vibrations may cause significant error
 Vibrational temperatures:     31.09    36.52    57.38    73.57   130.29
          (Kelvin)            139.26   166.26   200.37   205.10   238.33
                              258.93   284.99   310.79   333.97   344.98
                              368.17   421.64   439.35   476.32   500.67
                              528.80   550.66   606.26   609.86   709.44
                              758.68   778.66   798.51   818.39   877.44
                              910.38   915.72   934.41  1018.42  1033.97
                             1040.48  1053.17  1126.86  1131.97  1145.73
                             1220.73  1238.65  1257.62  1261.27  1341.74
                             1359.10  1383.86  1427.99  1440.85  1460.41
                             1463.34  1467.63  1475.61  1479.92  1488.06
                             1529.66  1534.47  1537.66  1562.64  1588.41
                             1612.27  1620.65  1676.03  1702.19  1707.51
                             1742.72  1749.61  1756.68  1796.40  1838.76
                             1876.44  1903.55  1938.42  1956.29  1962.28
                             1964.39  2042.07  2084.50  2114.41  2126.19
                             2141.87  2143.96  2147.03  2171.14  2174.08
                             2224.40  2231.69  2251.91  2352.05  2378.31
                             2389.14  2404.13  2412.44  2420.75  4331.30
                             4401.62  4429.63  4502.85  4528.65  4560.27
                             4585.01  4599.47  4601.90  4612.85  4612.88
                             4625.32  4635.10  4638.85  4686.07  4706.56
                             4958.10  5159.94  5259.22

 Zero-point correction=                           0.329879 (Hartree/Particle)
 Thermal correction to Energy=                    0.349667
 Thermal correction to Enthalpy=                  0.350611
 Thermal correction to Gibbs Free Energy=         0.279967
 Sum of electronic and zero-point Energies=          -1303.860480
 Sum of electronic and thermal Energies=             -1303.840692
 Sum of electronic and thermal Enthalpies=           -1303.839748
 Sum of electronic and thermal Free Energies=        -1303.910392

                     E (Thermal)             CV                S
                      KCal/Mol        Cal/Mol-Kelvin    Cal/Mol-Kelvin
 Total                  219.419             75.526            148.684
 Electronic               0.000              0.000              0.000
 Translational            0.889              2.981             43.014
 Rotational               0.889              2.981             34.570
 Vibrational            217.642             69.565             71.100
 Vibration     1          0.593              1.985              6.481
 Vibration     2          0.593              1.985              6.161
 Vibration     3          0.594              1.981              5.265
 Vibration     4          0.595              1.977              4.773
 Vibration     5          0.602              1.956              3.648
 Vibration     6          0.603              1.951              3.518
 Vibration     7          0.608              1.936              3.173
 Vibration     8          0.615              1.914              2.814
 Vibration     9          0.616              1.911              2.769
 Vibration    10          0.624              1.885              2.484
 Vibration    11          0.629              1.867              2.329
 Vibration    12          0.637              1.843              2.151
 Vibration    13          0.645              1.817              1.992
 Vibration    14          0.653              1.792              1.862
 Vibration    15          0.657              1.780              1.805
 Vibration    16          0.666              1.753              1.690
 Vibration    17          0.688              1.687              1.456
 Vibration    18          0.696              1.664              1.387
 Vibration    19          0.713              1.613              1.255
 Vibration    20          0.726              1.579              1.175
 Vibration    21          0.740              1.539              1.090
 Vibration    22          0.752              1.507              1.028
 Vibration    23          0.784              1.424              0.887
 Vibration    24          0.786              1.418              0.879
 Vibration    25          0.849              1.265              0.676
 Vibration    26          0.882              1.190              0.593
 Vibration    27          0.896              1.159              0.563
 Vibration    28          0.910              1.129              0.534
 Vibration    29          0.925              1.099              0.507
 Vibration    30          0.969              1.011              0.433

 Optimization completed.
    -- Stationary point found.
 Normal termination of Gaussian 16 at Fri Mar 26 02:35:21 2021.
