 Gaussian 16, Revision A.03,
 Gaussian 16:  ES64L-G16RevA.03 25-Dec-2016

 ----------------------------------------------------------------------
 # wB97XD def2tzvp, opt=(ts, noeigen, calcfc, maxcycles=70, maxstep=5),
  freq=noraman, scrf=(iefpcm, solvent=water)
 ----------------------------------------------------------------------

 ------------------------
 2_iteration/TS-109-2.out
 ------------------------
 Symbolic Z-matrix:
 Charge =  0 Multiplicity = 1

 SCF Done:  E(RwB97XD) =  -3226.46033919     A.U. after   15 cycles
 SCF Done:  E(RwB97XD) =  -3226.46034574     A.U. after   10 cycles
 SCF Done:  E(RwB97XD) =  -3226.46034594     A.U. after    8 cycles
 SCF Done:  E(RwB97XD) =  -3226.46034596     A.U. after    7 cycles
 Optimization completed.
    -- Stationary point found.
 Normal termination of Gaussian 16 at Sun Feb  7 12:00:10 2021.

 ---------------------------------------------------------------------
 #N Geom=AllCheck Guess=TCheck SCRF=Check GenChk RwB97XD/def2TZVP Freq
 ---------------------------------------------------------------------

 Structure from the checkpoint file:  "/beegfs/scratch/user/q/tla25/Gau-12197.chk"
 ------------------------
 2_iteration/TS-109-2.out
 ------------------------
 Charge =  0 Multiplicity = 1

                         Standard orientation:
 ---------------------------------------------------------------------
 Center     Atomic      Atomic             Coordinates (Angstroms)
 Number     Number       Type             X           Y           Z
 ---------------------------------------------------------------------
      1          6           0       -0.911306   -0.079882    0.263751
      2          6           0       -2.284014    0.361917    0.270547
      3          8           0       -2.580800    1.576928    0.294259
      4          6           0        0.171989    0.820748    0.421225
      5          6           0        0.902765    3.172500   -1.215616
      6          1           0        0.662052    3.714426   -2.131254
      7          1           0        0.796018    3.848438   -0.370709
      8          1           0        1.934492    2.827723   -1.265735
      9          7           0        0.015298    2.025093   -1.031514
     10          1           0       -0.946121    2.301286   -0.829732
     11          1           0       -0.014641    1.437867   -1.855888
     12          6           0        1.571244    0.264229    0.295223
     13          6           0        2.186655    0.039449   -0.932525
     14          6           0        3.467171   -0.485623   -1.005433
     15          6           0        4.156745   -0.810838    0.152545
     16          6           0        3.551674   -0.602839    1.382017
     17          6           0        2.275353   -0.065093    1.451192
     18          1           0        1.670547    0.257287   -1.857066
     19          1           0        3.923202   -0.644691   -1.974285
     20          1           0        5.155921   -1.223430    0.096610
     21          1           0        4.073765   -0.856104    2.296014
     22          1           0        1.824277    0.084992    2.422470
     23          6           0        0.068096    1.855227    1.536356
     24          1           0        0.078690    1.338902    2.495765
     25          1           0        0.916040    2.538737    1.513222
     26          1           0       -0.861092    2.410120    1.469551
     27         35           0       -0.583609   -1.855833   -0.414495
     28          7           0       -3.282263   -0.556527    0.223226
     29          6           0       -4.671960   -0.171687    0.205417
     30          1           0       -3.050516   -1.531446    0.266191
     31          1           0       -4.977876    0.304443    1.140657
     32          1           0       -4.873272    0.525776   -0.609201
     33          1           0       -5.276477   -1.064199    0.056481
 ---------------------------------------------------------------------

 SCF Done:  E(RwB97XD) =  -3226.46034596     A.U. after    1 cycles

 The electronic state is 1-A.
 Alpha  occ. eigenvalues -- -483.11739 -62.66566 -56.45664 -56.45341 -56.45331
 Alpha  occ. eigenvalues --  -19.19814 -14.47987 -14.44137 -10.37510 -10.36110
 Alpha  occ. eigenvalues --  -10.31663 -10.30846 -10.30505 -10.29507 -10.29446
 Alpha  occ. eigenvalues --  -10.29360 -10.29264 -10.29237 -10.29139 -10.27566
 Alpha  occ. eigenvalues --   -8.80674  -6.62760  -6.61731  -6.61698  -2.73158
 Alpha  occ. eigenvalues --   -2.72864  -2.72836  -2.72004  -2.72003  -1.12364
 Alpha  occ. eigenvalues --   -1.03783  -1.00865  -0.97540  -0.92668  -0.87836
 Alpha  occ. eigenvalues --   -0.85544  -0.83889  -0.80679  -0.79273  -0.76297
 Alpha  occ. eigenvalues --   -0.72438  -0.70757  -0.67473  -0.65615  -0.63039
 Alpha  occ. eigenvalues --   -0.60783  -0.58602  -0.56503  -0.55781  -0.55207
 Alpha  occ. eigenvalues --   -0.54108  -0.53932  -0.52693  -0.52211  -0.51177
 Alpha  occ. eigenvalues --   -0.50185  -0.48632  -0.47827  -0.47766  -0.47118
 Alpha  occ. eigenvalues --   -0.46331  -0.46057  -0.44512  -0.43821  -0.42619
 Alpha  occ. eigenvalues --   -0.41343  -0.38754  -0.37548  -0.33968  -0.33609
 Alpha  occ. eigenvalues --   -0.33353  -0.32770  -0.25775
 Alpha virt. eigenvalues --    0.03766   0.04941   0.06601   0.09467   0.10406
 Alpha virt. eigenvalues --    0.12829   0.13384   0.13742   0.14863   0.14983
 Alpha virt. eigenvalues --    0.16300   0.16803   0.17373   0.17622   0.18698

 Mulliken charges:
               1
     1  C   -0.334464
     2  C    0.417110
     3  O   -0.602006
     4  C    0.244548
     5  C   -0.287555
     6  H    0.153678
     7  H    0.158882
     8  H    0.155345
     9  N   -0.324371
    10  H    0.277764
    11  H    0.271955
    12  C    0.268253
    13  C   -0.307961
    14  C   -0.133567
    15  C   -0.147049
    16  C   -0.149377
    17  C   -0.267144
    18  H    0.142350
    19  H    0.144202
    20  H    0.144997
    21  H    0.143424
    22  H    0.143435
    23  C   -0.440569
    24  H    0.144812
    25  H    0.151735
    26  H    0.167118
    27  Br  -0.190723
    28  N   -0.331024
    29  C   -0.247460
    30  H    0.248741
    31  H    0.122057
    32  H    0.124504
    33  H    0.138360
 Sum of Mulliken charges =  -0.00000

 Dipole moment (field-independent basis, Debye):
    X=              3.4613    Y=              2.6527    Z=             -2.4121  Tot=              4.9836
 Quadrupole moment (field-independent basis, Debye-Ang):
   XX=           -102.0752   YY=           -105.3252   ZZ=            -99.8686
   XY=              9.3933   XZ=              0.4931   YZ=             -6.9540

  Exact polarizability: 299.985  -5.476 240.880  -8.929  -3.521 225.209
 Approx polarizability: 220.849  -9.445 198.852  -5.247  -1.777 196.461

 ******    1 imaginary frequencies (negative Signs) ******

                      1                      2                      3
                      A                      A                      A
 Frequencies --   -356.7750                25.2244                43.3729
 Red. masses --      5.8597                 4.0502                 4.4774
 Frc consts  --      0.4395                 0.0015                 0.0050
 IR Inten    --    727.2223                 0.6555                 3.0268

                      4                      5                      6
                      A                      A                      A
 Frequencies --     63.2439                70.1153                79.7567
 Red. masses --      3.9029                 5.1698                 2.0557
 Frc consts  --      0.0092                 0.0150                 0.0077
 IR Inten    --     25.0225                 3.1116                 0.8242

                      7                      8                      9
                      A                      A                      A
 Frequencies --    105.9345               119.6957               126.9170
 Red. masses --      3.2580                 2.5215                 1.5852
 Frc consts  --      0.0215                 0.0213                 0.0150
 IR Inten    --     17.3331                17.9667                 0.6436

                     10                     11                     12
                      A                      A                      A
 Frequencies --    151.8054               162.4950               202.3697
 Red. masses --      1.3813                 4.4294                 3.4445
 Frc consts  --      0.0188                 0.0689                 0.0831
 IR Inten    --      3.5059                 8.4869                 0.9022

                     13                     14                     15
                      A                      A                      A
 Frequencies --    226.6908               255.2084               275.6077
 Red. masses --      2.6890                 3.3724                 1.8787
 Frc consts  --      0.0814                 0.1294                 0.0841
 IR Inten    --      8.6596                 0.3853                 6.6633

                     16                     17                     18
                      A                      A                      A
 Frequencies --    286.5897               300.6291               306.7394
 Red. masses --      1.9214                 4.2588                 3.5451
 Frc consts  --      0.0930                 0.2268                 0.1965
 IR Inten    --     28.2673                13.4523                47.8973

                     19                     20                     21
                      A                      A                      A
 Frequencies --    345.5262               369.1973               391.8983
 Red. masses --      3.0833                 2.3949                 1.6802
 Frc consts  --      0.2169                 0.1923                 0.1520
 IR Inten    --      4.9461                19.8163                87.3743

                     22                     23                     24
                      A                      A                      A
 Frequencies --    412.4704               419.9676               456.9606
 Red. masses --      4.2553                 2.8699                 3.4402
 Frc consts  --      0.4265                 0.2982                 0.4232
 IR Inten    --     24.6263                 0.0158                12.2360

                     25                     26                     27
                      A                      A                      A
 Frequencies --    520.4768               565.2771               626.5754
 Red. masses --      3.9514                 3.7393                 3.9950
 Frc consts  --      0.6307                 0.7040                 0.9241
 IR Inten    --    120.8841               113.2226                31.9583

                     28                     29                     30
                      A                      A                      A
 Frequencies --    638.6282               721.8347               743.2918
 Red. masses --      6.3644                 1.5547                 1.2558
 Frc consts  --      1.5293                 0.4773                 0.4088
 IR Inten    --      1.9403                85.0411                54.0865

                     31                     32                     33
                      A                      A                      A
 Frequencies --    745.0194               776.0689               800.1170
 Red. masses --      4.7271                 8.7990                 2.2416
 Frc consts  --      1.5459                 3.1224                 0.8455
 IR Inten    --      4.5169                63.5023                20.9986

                     34                     35                     36
                      A                      A                      A
 Frequencies --    824.0416               873.8441               954.5345
 Red. masses --      3.4968                 1.2520                 1.4268
 Frc consts  --      1.3990                 0.5633                 0.7660
 IR Inten    --     12.6785                 0.5499                 2.5678

                     37                     38                     39
                      A                      A                      A
 Frequencies --    968.7937              1001.2042              1011.3942
 Red. masses --      3.8375                 2.2237                 1.3857
 Frc consts  --      2.1221                 1.3133                 0.8351
 IR Inten    --     57.7227                22.3798                 1.2973

                     40                     41                     42
                      A                      A                      A
 Frequencies --   1026.8361              1028.4129              1032.0678
 Red. masses --      5.1467                 1.2531                 1.2943
 Frc consts  --      3.1973                 0.7809                 0.8122
 IR Inten    --      5.2248                 9.9679                 1.6151

                     43                     44                     45
                      A                      A                      A
 Frequencies --   1057.5700              1060.4341              1068.3160
 Red. masses --      1.7540                 1.8721                 1.9042
 Frc consts  --      1.1559                 1.2403                 1.2804
 IR Inten    --     81.0093                42.8530                54.6983

                     46                     47                     48
                      A                      A                      A
 Frequencies --   1095.7583              1122.4233              1133.2334
 Red. masses --      1.9795                 1.7806                 1.6717
 Frc consts  --      1.4004                 1.3217                 1.2649
 IR Inten    --     89.6195                66.0702                10.1717

                     49                     50                     51
                      A                      A                      A
 Frequencies --   1157.2524              1170.5068              1186.9972
 Red. masses --      1.2898                 2.6005                 1.3555
 Frc consts  --      1.0177                 2.0992                 1.1252
 IR Inten    --      3.5799                31.3456                10.6481

                     52                     53                     54
                      A                      A                      A
 Frequencies --   1188.0310              1226.3254              1242.0462
 Red. masses --      1.6436                 1.1578                 1.3699
 Frc consts  --      1.3668                 1.0259                 1.2451
 IR Inten    --     14.3576                11.2387                81.7571

                     55                     56                     57
                      A                      A                      A
 Frequencies --   1260.9399              1306.9323              1323.5329
 Red. masses --      4.1846                 2.2526                 4.9424
 Frc consts  --      3.9201                 2.2670                 5.1010
 IR Inten    --     49.3400               405.5638                 3.6080

                     58                     59                     60
                      A                      A                      A
 Frequencies --   1344.2545              1371.7351              1390.8787
 Red. masses --      1.3286                 1.3688                 2.9160
 Frc consts  --      1.4145                 1.5175                 3.3236
 IR Inten    --     15.8844                 5.6104               596.9927

                     61                     62                     63
                      A                      A                      A
 Frequencies --   1406.6358              1453.9324              1462.0323
 Red. masses --      1.3724                 1.2382                 1.2039
 Frc consts  --      1.5999                 1.5421                 1.5161
 IR Inten    --    119.1156                41.9560                 9.6633

                     64                     65                     66
                      A                      A                      A
 Frequencies --   1475.8421              1482.9407              1492.5564
 Red. masses --      1.0589                 1.1591                 1.9538
 Frc consts  --      1.3589                 1.5019                 2.5644
 IR Inten    --     24.1699                41.9049                10.5162

                     67                     68                     69
                      A                      A                      A
 Frequencies --   1496.0747              1505.5920              1508.0507
 Red. masses --      1.0465                 1.0343                 1.0836
 Frc consts  --      1.3801                 1.3814                 1.4520
 IR Inten    --     12.8550                14.9000                21.7095

                     70                     71                     72
                      A                      A                      A
 Frequencies --   1514.8845              1551.0735              1553.6305
 Red. masses --      1.0755                 2.2559                 2.0580
 Frc consts  --      1.4542                 3.1977                 2.9268
 IR Inten    --     25.1549                13.9401               801.5123

                     73                     74                     75
                      A                      A                      A
 Frequencies --   1602.4394              1652.9922              1673.1979
 Red. masses --      5.7825                 4.9847                 1.3468
 Frc consts  --      8.7484                 8.0247                 2.2215
 IR Inten    --    440.2429                 2.1497                59.8575

                     76                     77                     78
                      A                      A                      A
 Frequencies --   1680.0691              3043.5146              3068.0606
 Red. masses --      3.0681                 1.0388                 1.0358
 Frc consts  --      5.1024                 5.6696                 5.7445
 IR Inten    --      9.4160               101.6144                55.3117

                     79                     80                     81
                      A                      A                      A
 Frequencies --   3079.4477              3103.1376              3144.3617
 Red. masses --      1.0384                 1.1002                 1.1030
 Frc consts  --      5.8017                 6.2421                 6.4255
 IR Inten    --     32.4415                46.7875                19.4583

                     82                     83                     84
                      A                      A                      A
 Frequencies --   3148.3909              3155.1541              3174.8078
 Red. masses --      1.1021                 1.1016                 1.1044
 Frc consts  --      6.4366                 6.4614                 6.5588
 IR Inten    --     24.9142                26.6310                15.2213

                     85                     86                     87
                      A                      A                      A
 Frequencies --   3196.9416              3198.0396              3206.3900
 Red. masses --      1.1004                 1.0864                 1.0895
 Frc consts  --      6.6266                 6.5466                 6.5994
 IR Inten    --      3.1344                 0.4078                 6.8297

                     88                     89                     90
                      A                      A                      A
 Frequencies --   3217.8666              3227.0160              3230.7092
 Red. masses --      1.0933                 1.0931                 1.0962
 Frc consts  --      6.6702                 6.7065                 6.7412
 IR Inten    --     31.3887                33.9362                 1.7765

                     91                     92                     93
                      A                      A                      A
 Frequencies --   3434.7295              3585.9959              3683.1908
 Red. masses --      1.0654                 1.0837                 1.0780
 Frc consts  --      7.4054                 8.2110                 8.6159
 IR Inten    --    117.7238                39.8251                81.3931

 - Thermochemistry -
 -------------------
 Temperature   298.150 Kelvin.  Pressure   1.00000 Atm.
 Atom     1 has atomic number  6 and mass  12.00000

 Molecular mass:   284.05242 amu.
 Principal axes and moments of inertia in atomic units:
                           1         2         3
     Eigenvalues --  2918.881475835.030807367.64181
           X            0.99997  -0.00681  -0.00423
           Y            0.00666   0.99940  -0.03389
           Z            0.00446   0.03386   0.99942
 This molecule is an asymmetric top.
 Rotational symmetry number  1.
 Warning -- assumption of classical behavior for rotation
           may cause significant error
 Rotational temperatures (Kelvin)      0.02967     0.01484     0.01176
 Rotational constants (GHZ):           0.61830     0.30929     0.24496
    1 imaginary frequencies ignored.
 Zero-point vibrational energy     724779.7 (Joules/Mol)
                                  173.22650 (Kcal/Mol)
 Warning -- explicit consideration of  25 degrees of freedom as
           vibrations may cause significant error
 Vibrational temperatures:     36.29    62.40    90.99   100.88   114.75
          (Kelvin)            152.42   172.22   182.61   218.41   233.79
                              291.16   326.16   367.19   396.54   412.34
                              432.54   441.33   497.14   531.19   563.85
                              593.45   604.24   657.46   748.85   813.31
                              901.50   918.84  1038.56  1069.43  1071.92
                             1116.59  1151.19  1185.61  1257.27  1373.36
                             1393.88  1440.51  1455.17  1477.39  1479.66
                             1484.92  1521.61  1525.73  1537.07  1576.55
                             1614.92  1630.47  1665.03  1684.10  1707.82
                             1709.31  1764.41  1787.03  1814.21  1880.38
                             1904.27  1934.08  1973.62  2001.16  2023.84
                             2091.88  2103.54  2123.41  2133.62  2147.46
                             2152.52  2166.21  2169.75  2179.58  2231.65
                             2235.33  2305.55  2378.29  2407.36  2417.24
                             4378.94  4414.25  4430.64  4464.72  4524.04
                             4529.83  4539.56  4567.84  4599.69  4601.27
                             4613.28  4629.79  4642.96  4648.27  4941.81
                             5159.45  5299.29

 Zero-point correction=                           0.276054 (Hartree/Particle)
 Thermal correction to Energy=                    0.293427
 Thermal correction to Enthalpy=                  0.294371
 Thermal correction to Gibbs Free Energy=         0.229363
 Sum of electronic and zero-point Energies=          -3226.184292
 Sum of electronic and thermal Energies=             -3226.166919
 Sum of electronic and thermal Enthalpies=           -3226.165975
 Sum of electronic and thermal Free Energies=        -3226.230983

                     E (Thermal)             CV                S
                      KCal/Mol        Cal/Mol-Kelvin    Cal/Mol-Kelvin
 Total                  184.128             62.925            136.821
 Electronic               0.000              0.000              0.000
 Translational            0.889              2.981             42.830
 Rotational               0.889              2.981             33.195
 Vibrational            182.351             56.963             60.796
 Vibration     1          0.593              1.985              6.173
 Vibration     2          0.595              1.980              5.099
 Vibration     3          0.597              1.972              4.353
 Vibration     4          0.598              1.968              4.150
 Vibration     5          0.600              1.963              3.897
 Vibration     6          0.605              1.944              3.342
 Vibration     7          0.609              1.933              3.105
 Vibration     8          0.611              1.926              2.992
 Vibration     9          0.619              1.901              2.649
 Vibration    10          0.623              1.888              2.521
 Vibration    11          0.639              1.837              2.111
 Vibration    12          0.650              1.800              1.905
 Vibration    13          0.666              1.754              1.694
 Vibration    14          0.677              1.718              1.561
 Vibration    15          0.684              1.699              1.494
 Vibration    16          0.693              1.672              1.413
 Vibration    17          0.697              1.661              1.380
 Vibration    18          0.724              1.584              1.187
 Vibration    19          0.741              1.536              1.083
 Vibration    20          0.759              1.487              0.993
 Vibration    21          0.776              1.443              0.918
 Vibration    22          0.783              1.427              0.892
 Vibration    23          0.815              1.345              0.775
 Vibration    24          0.875              1.205              0.609
 Vibration    25          0.921              1.106              0.513

 Optimization completed.
    -- Stationary point found.
 Normal termination of Gaussian 16 at Sun Feb  7 13:15:19 2021.
