 Gaussian 16, Revision A.03,
 Gaussian 16:  ES64L-G16RevA.03 25-Dec-2016

 ----------------------------------------------------------------------
 # wB97XD def2tzvp, opt=(ts, noeigen, calcfc, maxcycles=70, maxstep=3),
  freq=noraman, scrf=(iefpcm, solvent=water)
 ----------------------------------------------------------------------

 ----------------------
 0_iteration/TS-1-0.out
 ----------------------
 Symbolic Z-matrix:
 Charge =  0 Multiplicity = 1

 SCF Done:  E(RwB97XD) =  -980.938084081     A.U. after   14 cycles
 Optimization completed.
    -- Stationary point found.
 Normal termination of Gaussian 16 at Mon Apr 12 09:05:27 2021.

 ---------------------------------------------------------------------
 #N Geom=AllCheck Guess=TCheck SCRF=Check GenChk RwB97XD/def2TZVP Freq
 ---------------------------------------------------------------------

 Structure from the checkpoint file:  "/beegfs/scratch/user/q/tla25/Gau-21351.chk"
 ----------------------
 0_iteration/TS-1-0.out
 ----------------------
 Charge =  0 Multiplicity = 1

                         Standard orientation:
 ---------------------------------------------------------------------
 Center     Atomic      Atomic             Coordinates (Angstroms)
 Number     Number       Type             X           Y           Z
 ---------------------------------------------------------------------
      1          6           0       -0.346799   -1.194609   -0.182202
      2          6           0        0.112211   -2.504209   -0.419202
      3          8           0       -0.560679   -3.475009   -0.810102
      4          6           0        0.538590   -0.178409    0.324398
      5          6           0        1.202401   -1.678999    2.602398
      6          1           0        1.042101   -1.820299    3.669998
      7          1           0        0.728711   -2.495399    2.060998
      8          1           0        2.268201   -1.672589    2.390398
      9          7           0        0.601790   -0.420609    2.159098
     10          1           0       -0.384210   -0.424509    2.392998
     11          1           0        1.009490    0.378201    2.634798
     12          6           0        0.016180    1.253591    0.280998
     13          6           0       -1.078320    1.671580    1.038498
     14          6           0       -1.564431    2.964380    0.944698
     15          6           0       -0.977331    3.871280    0.074898
     16          6           0        0.103369    3.468991   -0.691902
     17          6           0        0.598279    2.177401   -0.583202
     18          1           0       -1.596720    0.986380    1.694898
     19          1           0       -2.413631    3.258180    1.548198
     20          1           0       -1.360641    4.880480   -0.003902
     21          1           0        0.572459    4.162001   -1.378702
     22          1           0        1.444480    1.890301   -1.191402
     23          6           0        2.004190   -0.236699   -0.077702
     24          6           0        3.020990    0.269512    0.729998
     25          6           0        4.334690    0.310022    0.292198
     26          6           0        4.661990   -0.134978   -0.979602
     27          6           0        3.658200   -0.609588   -1.808002
     28          6           0        2.346200   -0.656089   -1.361702
     29          1           0        2.809290    0.659212    1.716198
     30          1           0        5.102490    0.699322    0.948298
     31          1           0        5.687590   -0.101167   -1.323902
     32          1           0        3.891100   -0.942878   -2.811202
     33          1           0        1.570201   -1.005699   -2.027702
     34          6           0       -1.804900   -0.936520   -0.339202
     35          6           0       -2.295410   -0.159520   -1.388102
     36          6           0       -3.652110    0.095170   -1.521602
     37          6           0       -4.553510   -0.434041   -0.608102
     38          6           0       -4.085599   -1.225141    0.431898
     39          6           0       -2.726399   -1.473230    0.559498
     40          1           0       -1.595610    0.263580   -2.099402
     41          1           0       -4.007310    0.708559   -2.340802
     42          1           0       -5.613210   -0.234751   -0.708202
     43          1           0       -4.780399   -1.647041    1.147998
     44          1           0       -2.367289   -2.090920    1.375198
     45          1           0        1.190911   -2.665999   -0.241402
 ---------------------------------------------------------------------

 SCF Done:  E(RwB97XD) =  -980.938084081     A.U. after    1 cycles

 The electronic state is 1-A.
 Alpha  occ. eigenvalues --  -19.19155 -14.50483 -10.37151 -10.32940 -10.32249
 Alpha  occ. eigenvalues --  -10.31158 -10.31121 -10.29867 -10.29737 -10.29513
 Alpha  occ. eigenvalues --  -10.29443 -10.29434 -10.29414 -10.29387 -10.29351
 Alpha  occ. eigenvalues --  -10.29330 -10.29277 -10.29100 -10.28498 -10.28457
 Alpha  occ. eigenvalues --  -10.28383 -10.28122 -10.28045 -10.25550  -1.09083
 Alpha  occ. eigenvalues --   -1.06039  -0.98458  -0.96946  -0.95975  -0.91810
 Alpha  occ. eigenvalues --   -0.86798  -0.85958  -0.85627  -0.85328  -0.84383
 Alpha  occ. eigenvalues --   -0.81839  -0.80026  -0.75667  -0.71670  -0.71054
 Alpha  occ. eigenvalues --   -0.70472  -0.69632  -0.69321  -0.67519  -0.65336
 Alpha  occ. eigenvalues --   -0.63343  -0.62111  -0.60833  -0.58948  -0.57736
 Alpha  occ. eigenvalues --   -0.57009  -0.56816  -0.55348  -0.54209  -0.54075
 Alpha  occ. eigenvalues --   -0.53511  -0.53191  -0.52478  -0.51823  -0.51340
 Alpha  occ. eigenvalues --   -0.51282  -0.50245  -0.49175  -0.48826  -0.47972
 Alpha  occ. eigenvalues --   -0.47663  -0.46718  -0.45610  -0.45555  -0.44444
 Alpha  occ. eigenvalues --   -0.44394  -0.43228  -0.42937  -0.42353  -0.41938
 Alpha  occ. eigenvalues --   -0.41297  -0.34946  -0.34719  -0.34337  -0.33410
 Alpha  occ. eigenvalues --   -0.33085  -0.32311  -0.30673  -0.26698
 Alpha virt. eigenvalues --    0.02260   0.03681   0.04208   0.05513   0.05857
 Alpha virt. eigenvalues --    0.06153   0.08369   0.09907   0.12315   0.12616
 Alpha virt. eigenvalues --    0.13349   0.13725   0.14360   0.15079   0.15497

 Mulliken charges:
               1
     1  C   -0.221799
     2  C    0.010816
     3  O   -0.544929
     4  C    0.463223
     5  C   -0.317173
     6  H    0.167156
     7  H    0.168649
     8  H    0.168827
     9  N   -0.267102
    10  H    0.274721
    11  H    0.291410
    12  C    0.127722
    13  C   -0.324103
    14  C   -0.163883
    15  C   -0.142278
    16  C   -0.141298
    17  C   -0.235304
    18  H    0.160460
    19  H    0.143851
    20  H    0.144863
    21  H    0.142616
    22  H    0.164558
    23  C    0.162039
    24  C   -0.319173
    25  C   -0.132388
    26  C   -0.139534
    27  C   -0.131619
    28  C   -0.269577
    29  H    0.139506
    30  H    0.144947
    31  H    0.146400
    32  H    0.144574
    33  H    0.174192
    34  C    0.199922
    35  C   -0.215603
    36  C   -0.171088
    37  C   -0.135655
    38  C   -0.146463
    39  C   -0.311948
    40  H    0.138668
    41  H    0.135349
    42  H    0.139680
    43  H    0.136288
    44  H    0.144166
    45  H    0.096313
 Sum of Mulliken charges =  -0.00000

 Dipole moment (field-independent basis, Debye):
    X=              4.9434    Y=              8.2912    Z=              8.1141  Tot=             12.6104
 Quadrupole moment (field-independent basis, Debye-Ang):
   XX=           -125.8659   YY=           -165.5800   ZZ=           -119.7471
   XY=             -9.9367   XZ=             -3.6639   YZ=            -14.2396

  Exact polarizability: 415.586  -3.560 358.834 -17.945  -1.944 336.873
 Approx polarizability: 321.462   0.046 289.427 -16.102  -2.715 292.525

 ******    1 imaginary frequencies (negative Signs) ******

                      1                      2                      3
                      A                      A                      A
 Frequencies --   -326.0574                26.3774                26.9206
 Red. masses --      5.5389                 4.1655                 4.7564
 Frc consts  --      0.3469                 0.0017                 0.0020
 IR Inten    --    661.4228                 1.7714                 1.6332

                      4                      5                      6
                      A                      A                      A
 Frequencies --     52.7589                61.4289                69.5853
 Red. masses --      4.0311                 3.9798                 4.9494
 Frc consts  --      0.0066                 0.0088                 0.0141
 IR Inten    --      1.2682                 0.6370                 2.1534

                      7                      8                      9
                      A                      A                      A
 Frequencies --     71.6770                96.4888               111.4362
 Red. masses --      4.1256                 5.7025                 3.4443
 Frc consts  --      0.0125                 0.0313                 0.0252
 IR Inten    --      1.2013                 5.6372                 9.9082

                     10                     11                     12
                      A                      A                      A
 Frequencies --    118.0815               151.8723               169.4097
 Red. masses --      3.1014                 2.5438                 1.8042
 Frc consts  --      0.0255                 0.0346                 0.0305
 IR Inten    --      2.8943                 1.0387                 5.6483

                     13                     14                     15
                      A                      A                      A
 Frequencies --    190.9352               207.5897               256.2194
 Red. masses --      3.3775                 4.8158                 3.1271
 Frc consts  --      0.0725                 0.1223                 0.1210
 IR Inten    --      7.1056                 9.0710                 7.6180

                     16                     17                     18
                      A                      A                      A
 Frequencies --    265.9119               269.1154               288.1852
 Red. masses --      3.9946                 4.1035                 3.8183
 Frc consts  --      0.1664                 0.1751                 0.1868
 IR Inten    --      2.3692                 1.7068                 1.6626

                     19                     20                     21
                      A                      A                      A
 Frequencies --    303.5118               325.0348               348.2625
 Red. masses --      3.9705                 3.6828                 5.3329
 Frc consts  --      0.2155                 0.2292                 0.3811
 IR Inten    --      5.8962                34.8858                 3.5481

                     22                     23                     24
                      A                      A                      A
 Frequencies --    363.1627               421.0327               425.4452
 Red. masses --      3.0938                 2.8864                 2.8796
 Frc consts  --      0.2404                 0.3015                 0.3071
 IR Inten    --      1.6260                 0.1926                 0.1995

                     25                     26                     27
                      A                      A                      A
 Frequencies --    428.2413               473.3553               509.8290
 Red. masses --      2.8923                 4.1593                 4.3674
 Frc consts  --      0.3125                 0.5491                 0.6688
 IR Inten    --      0.8603                17.6680                 5.7923

                     28                     29                     30
                      A                      A                      A
 Frequencies --    532.2620               549.7511               559.6873
 Red. masses --      3.7660                 3.9242                 3.9110
 Frc consts  --      0.6286                 0.6988                 0.7218
 IR Inten    --      5.4862                21.6066                61.9273

                     31                     32                     33
                      A                      A                      A
 Frequencies --    625.1649               637.5153               639.5981
 Red. masses --      3.9377                 6.2313                 6.3589
 Frc consts  --      0.9067                 1.4922                 1.5327
 IR Inten    --     71.3692                 0.9737                 3.5913

                     34                     35                     36
                      A                      A                      A
 Frequencies --    645.0069               657.0299               685.0772
 Red. masses --      3.8093                 5.2495                 5.2090
 Frc consts  --      0.9337                 1.3352                 1.4404
 IR Inten    --     10.1952                19.6977               180.9753

                     37                     38                     39
                      A                      A                      A
 Frequencies --    721.8254               725.9548               728.2928
 Red. masses --      1.8428                 1.5855                 1.6303
 Frc consts  --      0.5657                 0.4923                 0.5095
 IR Inten    --     58.9800               114.1883                96.8121

                     40                     41                     42
                      A                      A                      A
 Frequencies --    731.4582               744.9657               789.8924
 Red. masses --      1.6054                 3.3643                 2.3309
 Frc consts  --      0.5061                 1.1001                 0.8569
 IR Inten    --     77.6739                40.9236                62.1281

                     43                     44                     45
                      A                      A                      A
 Frequencies --    800.9921               803.2567               874.3380
 Red. masses --      2.3362                 2.4725                 1.2534
 Frc consts  --      0.8831                 0.9399                 0.5645
 IR Inten    --     20.1031                 5.0375                 0.7021

                     46                     47                     48
                      A                      A                      A
 Frequencies --    876.5637               879.9174               895.9536
 Red. masses --      1.2661                 1.2496                 2.6837
 Frc consts  --      0.5732                 0.5700                 1.2693
 IR Inten    --      0.0508                 1.1642                49.9258

                     49                     50                     51
                      A                      A                      A
 Frequencies --    931.7078               959.7000               963.4268
 Red. masses --      2.9425                 1.4801                 1.6318
 Frc consts  --      1.5050                 0.8032                 0.8924
 IR Inten    --     12.9733                 7.2411                 6.0758

                     52                     53                     54
                      A                      A                      A
 Frequencies --    971.9540              1011.5857              1013.6110
 Red. masses --      1.6673                 1.3731                 1.2725
 Frc consts  --      0.9280                 0.8279                 0.7703
 IR Inten    --      5.1837                 1.9741                22.7818

                     55                     56                     57
                      A                      A                      A
 Frequencies --   1014.4826              1021.4140              1024.2330
 Red. masses --      1.3998                 1.3524                 1.3046
 Frc consts  --      0.8488                 0.8313                 0.8063
 IR Inten    --      4.2139                13.1944                 0.7196

                     58                     59                     60
                      A                      A                      A
 Frequencies --   1025.8926              1026.5319              1027.3012
 Red. masses --      5.9358                 5.3356                 4.3922
 Frc consts  --      3.6807                 3.3127                 2.7310
 IR Inten    --      0.4151                 3.9029                 0.2967

                     61                     62                     63
                      A                      A                      A
 Frequencies --   1032.7899              1035.3615              1046.6816
 Red. masses --      1.3220                 1.3180                 1.6020
 Frc consts  --      0.8308                 0.8324                 1.0341
 IR Inten    --      0.0631                 0.5008                 3.4644

                     64                     65                     66
                      A                      A                      A
 Frequencies --   1058.5447              1062.6630              1067.5893
 Red. masses --      2.4687                 1.7752                 2.1898
 Frc consts  --      1.6298                 1.1811                 1.4705
 IR Inten    --      6.8191                18.5706                21.7567

                     67                     68                     69
                      A                      A                      A
 Frequencies --   1074.0793              1084.6121              1107.1387
 Red. masses --      3.3273                 1.6045                 1.5513
 Frc consts  --      2.2616                 1.1121                 1.1203
 IR Inten    --     26.5440                77.2772                15.4100

                     70                     71                     72
                      A                      A                      A
 Frequencies --   1121.0004              1131.3072              1141.3365
 Red. masses --      1.7537                 1.6686                 2.4054
 Frc consts  --      1.2984                 1.2582                 1.8461
 IR Inten    --      9.0162                13.4199                 6.9070

                     73                     74                     75
                      A                      A                      A
 Frequencies --   1180.2543              1185.8404              1189.1851
 Red. masses --      1.1326                 1.1254                 1.1299
 Frc consts  --      0.9296                 0.9324                 0.9415
 IR Inten    --      0.1939                 0.2131                 0.1151

                     76                     77                     78
                      A                      A                      A
 Frequencies --   1200.1785              1205.6597              1220.6864
 Red. masses --      3.2380                 1.1249                 1.1287
 Frc consts  --      2.7480                 0.9634                 0.9909
 IR Inten    --     41.4721                 0.6983                 5.6885

                     79                     80                     81
                      A                      A                      A
 Frequencies --   1231.4627              1255.1160              1267.1588
 Red. masses --      1.1695                 2.5469                 1.6903
 Frc consts  --      1.0449                 2.3639                 1.5991
 IR Inten    --      3.5827                19.6541                33.2585

                     82                     83                     84
                      A                      A                      A
 Frequencies --   1306.4317              1312.4533              1318.2621
 Red. masses --      4.1142                 4.1223                 4.6555
 Frc consts  --      4.1372                 4.1837                 4.7667
 IR Inten    --    125.3061               151.2191                81.4157

                     85                     86                     87
                      A                      A                      A
 Frequencies --   1336.1299              1348.3391              1357.1109
 Red. masses --      3.9751                 1.4021                 1.4583
 Frc consts  --      4.1811                 1.5018                 1.5824
 IR Inten    --    333.1932                81.0411                16.0892

                     88                     89                     90
                      A                      A                      A
 Frequencies --   1362.7819              1381.0700              1407.6787
 Red. masses --      1.4208                 1.3637                 4.7649
 Frc consts  --      1.5547                 1.5325                 5.5631
 IR Inten    --     28.7328                18.4016                66.3183

                     91                     92                     93
                      A                      A                      A
 Frequencies --   1445.2468              1456.3733              1486.6660
 Red. masses --      1.4087                 1.3800                 2.2080
 Frc consts  --      1.7336                 1.7246                 2.8753
 IR Inten    --      2.9341                 3.8998                 6.6736

                     94                     95                     96
                      A                      A                      A
 Frequencies --   1490.3395              1492.7923              1494.2884
 Red. masses --      2.1853                 1.2501                 1.6937
 Frc consts  --      2.8598                 1.6413                 2.2282
 IR Inten    --     36.7656                31.3652                15.6432

                     97                     98                     99
                      A                      A                      A
 Frequencies --   1501.5914              1542.4737              1544.0410
 Red. masses --      1.0419                 2.2602                 2.4928
 Frc consts  --      1.3842                 3.1683                 3.5015
 IR Inten    --     16.2059                33.2042                35.8156

                    100                    101                    102
                      A                      A                      A
 Frequencies --   1548.9230              1619.4484              1643.7484
 Red. masses --      2.1529                 5.1046                 5.7176
 Frc consts  --      3.0432                 7.8876                 9.1020
 IR Inten    --     15.5960              1247.0714                21.2723

                    103                    104                    105
                      A                      A                      A
 Frequencies --   1647.6603              1652.3007              1655.9494
 Red. masses --      1.8571                 3.9038                 2.1928
 Frc consts  --      2.9704                 6.2793                 3.5428
 IR Inten    --     13.7055                 5.6681                38.7888

                    106                    107                    108
                      A                      A                      A
 Frequencies --   1672.8060              1674.4855              1677.0193
 Red. masses --      5.9460                 5.5279                 5.7162
 Frc consts  --      9.8032                 9.1321                 9.4718
 IR Inten    --     59.5186                 2.5280                 2.2967

                    109                    110                    111
                      A                      A                      A
 Frequencies --   2938.2450              3084.5822              3165.7797
 Red. masses --      1.0813                 1.0333                 1.1045
 Frc consts  --      5.5002                 5.7924                 6.5218
 IR Inten    --    210.3708                31.7917                 5.1543

                    112                    113                    114
                      A                      A                      A
 Frequencies --   3181.8754              3186.0600              3186.1893
 Red. masses --      1.0869                 1.1061                 1.0873
 Frc consts  --      6.4834                 6.6153                 6.5032
 IR Inten    --     11.8916                 6.0306                 3.4033

                    115                    116                    117
                      A                      A                      A
 Frequencies --   3196.4656              3198.5664              3199.6664
 Red. masses --      1.0909                 1.0861                 1.0861
 Frc consts  --      6.5669                 6.5468                 6.5512
 IR Inten    --     11.6364                 0.9106                 0.6813

                    118                    119                    120
                      A                      A                      A
 Frequencies --   3203.8771              3206.9085              3208.0061
 Red. masses --      1.0949                 1.0894                 1.0893
 Frc consts  --      6.6217                 6.6010                 6.6051
 IR Inten    --     53.1315                 6.3712                 5.8006

                    121                    122                    123
                      A                      A                      A
 Frequencies --   3216.0629              3217.4552              3218.2072
 Red. masses --      1.0986                 1.0931                 1.0929
 Frc consts  --      6.6950                 6.6668                 6.6692
 IR Inten    --     24.0462                30.8553                32.0716

                    124                    125                    126
                      A                      A                      A
 Frequencies --   3226.2867              3226.4808              3230.9139
 Red. masses --      1.0947                 1.0946                 1.0955
 Frc consts  --      6.7134                 6.7138                 6.7374
 IR Inten    --     19.7683                28.8657                 4.9046

                    127                    128                    129
                      A                      A                      A
 Frequencies --   3231.5503              3517.0251              3594.0523
 Red. masses --      1.0960                 1.0523                 1.0944
 Frc consts  --      6.7436                 7.6688                 8.3291
 IR Inten    --      4.1621                31.7366                48.1165

 - Thermochemistry -
 -------------------
 Temperature   298.150 Kelvin.  Pressure   1.00000 Atm.
 Atom     1 has atomic number  6 and mass  12.00000

 Molecular mass:   315.16231 amu.
 Principal axes and moments of inertia in atomic units:
                           1         2         3
     Eigenvalues --  5117.450158440.14482**********
           X            0.99994  -0.01131  -0.00027
           Y            0.01130   0.99956  -0.02727
           Z            0.00058   0.02726   0.99963
 This molecule is an asymmetric top.
 Rotational symmetry number  1.
 Warning -- assumption of classical behavior for rotation
           may cause significant error
 Rotational temperatures (Kelvin)      0.01693     0.01026     0.00817
 Rotational constants (GHZ):           0.35266     0.21383     0.17030
    1 imaginary frequencies ignored.
 Zero-point vibrational energy     987143.6 (Joules/Mol)
                                  235.93299 (Kcal/Mol)
 Warning -- explicit consideration of  29 degrees of freedom as
           vibrations may cause significant error
 Vibrational temperatures:     37.95    38.73    75.91    88.38   100.12
          (Kelvin)            103.13   138.83   160.33   169.89   218.51
                              243.74   274.71   298.68   368.64   382.59
                              387.20   414.63   436.69   467.65   501.07
                              522.51   605.77   612.12   616.14   681.05
                              733.53   765.81   790.97   805.27   899.47
                              917.24   920.24   928.02   945.32   985.67
                             1038.55  1044.49  1047.85  1052.41  1071.84
                             1136.48  1152.45  1155.71  1257.98  1261.18
                             1266.00  1289.08  1340.52  1380.79  1386.16
                             1398.42  1455.45  1458.36  1459.61  1469.59
                             1473.64  1476.03  1476.95  1478.06  1485.95
                             1489.65  1505.94  1523.01  1528.94  1536.02
                             1545.36  1560.51  1592.93  1612.87  1627.70
                             1642.13  1698.12  1706.16  1710.97  1726.79
                             1734.68  1756.30  1771.80  1805.83  1823.16
                             1879.66  1888.33  1896.69  1922.39  1939.96
                             1952.58  1960.74  1987.05  2025.34  2079.39
                             2095.40  2138.98  2144.27  2147.80  2149.95
                             2160.46  2219.28  2221.53  2228.55  2330.03
                             2364.99  2370.62  2377.29  2382.54  2406.79
                             2409.21  2412.86  4227.48  4438.03  4554.85
                             4578.01  4584.03  4584.22  4599.00  4602.02
                             4603.61  4609.66  4614.03  4615.61  4627.20
                             4629.20  4630.28  4641.91  4642.19  4648.56
                             4649.48  5060.21  5171.04

 Zero-point correction=                           0.375983 (Hartree/Particle)
 Thermal correction to Energy=                    0.396443
 Thermal correction to Enthalpy=                  0.397387
 Thermal correction to Gibbs Free Energy=         0.325675
 Sum of electronic and zero-point Energies=           -980.562101
 Sum of electronic and thermal Energies=              -980.541641
 Sum of electronic and thermal Enthalpies=            -980.540697
 Sum of electronic and thermal Free Energies=         -980.612409

                     E (Thermal)             CV                S
                      KCal/Mol        Cal/Mol-Kelvin    Cal/Mol-Kelvin
 Total                  248.772             80.318            150.931
 Electronic               0.000              0.000              0.000
 Translational            0.889              2.981             43.140
 Rotational               0.889              2.981             34.481
 Vibrational            246.994             74.356             73.310
 Vibration     1          0.593              1.985              6.085
 Vibration     2          0.593              1.984              6.044
 Vibration     3          0.596              1.977              4.711
 Vibration     4          0.597              1.973              4.411
 Vibration     5          0.598              1.969              4.165
 Vibration     6          0.598              1.968              4.107
 Vibration     7          0.603              1.952              3.524
 Vibration     8          0.607              1.940              3.244
 Vibration     9          0.608              1.934              3.132
 Vibration    10          0.619              1.901              2.649
 Vibration    11          0.625              1.880              2.442
 Vibration    12          0.634              1.852              2.219
 Vibration    13          0.641              1.829              2.065
 Vibration    14          0.666              1.752              1.687
 Vibration    15          0.672              1.736              1.623
 Vibration    16          0.674              1.730              1.602
 Vibration    17          0.685              1.696              1.485
 Vibration    18          0.695              1.667              1.397
 Vibration    19          0.709              1.625              1.285
 Vibration    20          0.726              1.579              1.174
 Vibration    21          0.737              1.548              1.109
 Vibration    22          0.784              1.425              0.888
 Vibration    23          0.787              1.415              0.874
 Vibration    24          0.790              1.409              0.864
 Vibration    25          0.830              1.309              0.728
 Vibration    26          0.865              1.228              0.634
 Vibration    27          0.887              1.179              0.582
 Vibration    28          0.905              1.140              0.545
 Vibration    29          0.915              1.119              0.524

 Optimization completed.
    -- Stationary point found.
 Normal termination of Gaussian 16 at Mon Apr 12 11:20:25 2021.
