 Gaussian 16, Revision A.03,
 Gaussian 16:  ES64L-G16RevA.03 25-Dec-2016

 ----------------------------------------------------------------------
 # wB97XD def2tzvp, opt=(ts, noeigen, calcfc, maxcycles=70, maxstep=5),
  freq=noraman, scrf=(iefpcm, solvent=water)
 ----------------------------------------------------------------------

 ------------------------
 2_iteration/TS-188-2.out
 ------------------------
 Symbolic Z-matrix:
 Charge =  0 Multiplicity = 1

 SCF Done:  E(RwB97XD) =  -3666.61124466     A.U. after   15 cycles
 SCF Done:  E(RwB97XD) =  -3666.61124549     A.U. after    8 cycles
 SCF Done:  E(RwB97XD) =  -3666.61124538     A.U. after    7 cycles
 Optimization completed.
    -- Stationary point found.
 Normal termination of Gaussian 16 at Sun Feb  7 16:54:02 2021.

 ---------------------------------------------------------------------
 #N Geom=AllCheck Guess=TCheck SCRF=Check GenChk RwB97XD/def2TZVP Freq
 ---------------------------------------------------------------------

 Structure from the checkpoint file:  "/beegfs/scratch/user/q/tla25/Gau-73864.chk"
 ------------------------
 2_iteration/TS-188-2.out
 ------------------------
 Charge =  0 Multiplicity = 1

                         Standard orientation:
 ---------------------------------------------------------------------
 Center     Atomic      Atomic             Coordinates (Angstroms)
 Number     Number       Type             X           Y           Z
 ---------------------------------------------------------------------
      1          6           0       -0.786720    0.432745   -0.210399
      2          6           0       -2.227996    0.461747   -0.291105
      3          8           0       -2.918668    1.441898   -0.493785
      4          6           0        0.011056   -0.707409   -0.172525
      5          6           0       -0.834808   -0.935112    2.570411
      6          1           0       -1.101421    0.065669    2.218662
      7          1           0       -1.699984   -1.370441    3.066760
      8          1           0       -0.018774   -0.857245    3.283760
      9          7           0       -0.437452   -1.735724    1.418090
     10          1           0        0.316619   -2.382162    1.617241
     11          1           0       -1.224488   -2.259165    1.056328
     12          6           0        1.506342   -0.568440   -0.101045
     13          6           0        2.265835   -0.637958   -1.264991
     14          6           0        3.637130   -0.442884   -1.223160
     15          6           0        4.270264   -0.184562   -0.016968
     16          6           0        3.519263   -0.111864    1.146141
     17          6           0        2.146885   -0.296294    1.102718
     18          1           0        1.784466   -0.838575   -2.212114
     19          1           0        4.211124   -0.496878   -2.139190
     20          1           0        5.342339   -0.039496    0.016316
     21          1           0        3.999432    0.093928    2.093974
     22          1           0        1.579443   -0.203305    2.016703
     23         17           0       -0.432163   -2.055170   -1.301048
     24         35           0        0.013890    2.156589   -0.059362
     25          8           0       -2.773249   -0.751864   -0.061796
     26          6           0       -4.190497   -0.840997   -0.163668
     27          1           0       -4.671951   -0.205144    0.578853
     28          1           0       -4.525705   -0.550351   -1.159025
     29          1           0       -4.433518   -1.883611    0.022769
 ---------------------------------------------------------------------

 SCF Done:  E(RwB97XD) =  -3666.61124538     A.U. after    1 cycles

 The electronic state is 1-A.
 Alpha  occ. eigenvalues -- -483.12519-101.69842 -62.67334 -56.46459 -56.46093
 Alpha  occ. eigenvalues --  -56.46090 -19.29306 -19.22375 -14.49252 -10.41670
 Alpha  occ. eigenvalues --  -10.41161 -10.33141 -10.32047 -10.31876 -10.31855
 Alpha  occ. eigenvalues --  -10.30092 -10.29932 -10.29690 -10.29642 -10.29597
 Alpha  occ. eigenvalues --   -9.58449  -8.81436  -7.33092  -7.32233  -7.32190
 Alpha  occ. eigenvalues --   -6.63607  -6.62435  -6.62429  -2.73993  -2.73647
 Alpha  occ. eigenvalues --   -2.73643  -2.72694  -2.72694  -1.20827  -1.11212
 Alpha  occ. eigenvalues --   -1.05048  -0.99326  -0.96179  -0.91638  -0.87123
 Alpha  occ. eigenvalues --   -0.85973  -0.84525  -0.80174  -0.79393  -0.73931
 Alpha  occ. eigenvalues --   -0.71461  -0.68631  -0.65289  -0.63775  -0.61873
 Alpha  occ. eigenvalues --   -0.59095  -0.58605  -0.57597  -0.56952  -0.56167
 Alpha  occ. eigenvalues --   -0.55427  -0.53304  -0.52472  -0.52051  -0.51500
 Alpha  occ. eigenvalues --   -0.48927  -0.48400  -0.47561  -0.46893  -0.45955
 Alpha  occ. eigenvalues --   -0.44742  -0.43899  -0.43432  -0.40748  -0.40196
 Alpha  occ. eigenvalues --   -0.39327  -0.38231  -0.37538  -0.36575  -0.34362
 Alpha  occ. eigenvalues --   -0.33427  -0.28346
 Alpha virt. eigenvalues --    0.01123   0.04276   0.05470   0.06305   0.10248
 Alpha virt. eigenvalues --    0.10868   0.13123   0.13566   0.14279   0.15081
 Alpha virt. eigenvalues --    0.15612   0.16659   0.17290   0.17883   0.18109

 Mulliken charges:
               1
     1  C   -0.339522
     2  C    0.400387
     3  O   -0.466908
     4  C    0.314803
     5  C   -0.295505
     6  H    0.153585
     7  H    0.164232
     8  H    0.161696
     9  N   -0.345675
    10  H    0.298465
    11  H    0.284122
    12  C    0.136254
    13  C   -0.256230
    14  C   -0.145225
    15  C   -0.128413
    16  C   -0.161044
    17  C   -0.193026
    18  H    0.149480
    19  H    0.147234
    20  H    0.148569
    21  H    0.146424
    22  H    0.147558
    23  Cl  -0.121500
    24  Br  -0.110350
    25  O   -0.299667
    26  C   -0.200830
    27  H    0.133979
    28  H    0.134751
    29  H    0.142356
 Sum of Mulliken charges =  -0.00000

 Dipole moment (field-independent basis, Debye):
    X=              2.6457    Y=             -7.8372    Z=              5.7026  Tot=             10.0469
 Quadrupole moment (field-independent basis, Debye-Ang):
   XX=           -101.9610   YY=           -118.1121   ZZ=           -100.9176
   XY=             13.9167   XZ=             -4.7663   YZ=             -4.9631

  Exact polarizability: 285.992   1.151 231.254   4.395   0.863 231.247
 Approx polarizability: 218.364   2.141 195.333   3.575   2.571 199.720

 ******    1 imaginary frequencies (negative Signs) ******

                      1                      2                      3
                      A                      A                      A
 Frequencies --   -316.8058                21.8731                49.8528
 Red. masses --      5.8677                 4.5227                 4.0913
 Frc consts  --      0.3470                 0.0013                 0.0060
 IR Inten    --    523.8856                 0.7955                 5.4282

                      4                      5                      6
                      A                      A                      A
 Frequencies --     64.7578                75.1435                88.2630
 Red. masses --      5.7368                 4.4371                 3.8363
 Frc consts  --      0.0142                 0.0148                 0.0176
 IR Inten    --      0.1058                 1.7979                 9.8836

                      7                      8                      9
                      A                      A                      A
 Frequencies --    103.7759               115.0792               148.9236
 Red. masses --      2.3864                 3.2568                 1.7426
 Frc consts  --      0.0151                 0.0254                 0.0228
 IR Inten    --     15.6426                 1.4567                 2.1000

                     10                     11                     12
                      A                      A                      A
 Frequencies --    156.5143               173.9335               189.6322
 Red. masses --      1.5250                 2.1331                 2.3609
 Frc consts  --      0.0220                 0.0380                 0.0500
 IR Inten    --      4.0911                 3.1071                 2.9823

                     13                     14                     15
                      A                      A                      A
 Frequencies --    195.5102               198.5300               258.0536
 Red. masses --      6.8499                 6.6142                 6.2704
 Frc consts  --      0.1543                 0.1536                 0.2460
 IR Inten    --      2.5239                 1.8220                 0.2543

                     16                     17                     18
                      A                      A                      A
 Frequencies --    284.0886               295.3776               324.4177
 Red. masses --      7.9285                 4.9528                 3.5215
 Frc consts  --      0.3770                 0.2546                 0.2184
 IR Inten    --      3.9626                12.4242                26.6628

                     19                     20                     21
                      A                      A                      A
 Frequencies --    341.4732               359.0461               409.6184
 Red. masses --      6.4218                 7.1561                 7.7806
 Frc consts  --      0.4412                 0.5435                 0.7692
 IR Inten    --     10.3086                33.5696                17.7960

                     22                     23                     24
                      A                      A                      A
 Frequencies --    417.6011               495.8041               570.9346
 Red. masses --      2.8708                 4.7667                 3.3683
 Frc consts  --      0.2950                 0.6904                 0.6469
 IR Inten    --      0.4375                59.6083               119.3082

                     25                     26                     27
                      A                      A                      A
 Frequencies --    604.9068               637.9216               667.1997
 Red. masses --      2.5312                 5.9749                 2.8889
 Frc consts  --      0.5457                 1.4326                 0.7577
 IR Inten    --     70.3866                12.6172                58.0221

                     28                     29                     30
                      A                      A                      A
 Frequencies --    721.7016               740.8135               767.3583
 Red. masses --      1.7682                 3.5569                 6.8737
 Frc consts  --      0.5426                 1.1501                 2.3847
 IR Inten    --     62.9218               159.9615               134.3746

                     31                     32                     33
                      A                      A                      A
 Frequencies --    789.2817               805.7566               873.3079
 Red. masses --     11.1582                 2.5492                 1.2508
 Frc consts  --      4.0955                 0.9751                 0.5621
 IR Inten    --     60.8486                 5.5419                 0.4732

                     34                     35                     36
                      A                      A                      A
 Frequencies --    915.4634               937.8304               965.6397
 Red. masses --      5.3414                 4.3345                 1.5992
 Frc consts  --      2.6375                 2.2461                 0.8786
 IR Inten    --     12.5090                 6.7463                 3.6283

                     37                     38                     39
                      A                      A                      A
 Frequencies --   1014.0137              1018.8582              1028.3909
 Red. masses --      1.3849                 1.1380                 4.7105
 Frc consts  --      0.8390                 0.6960                 2.9352
 IR Inten    --      0.2988                38.5463                 3.5583

                     40                     41                     42
                      A                      A                      A
 Frequencies --   1035.1221              1064.3689              1068.5857
 Red. masses --      1.3287                 2.2896                 2.1768
 Frc consts  --      0.8388                 1.5283                 1.4645
 IR Inten    --      0.2833               101.5076                19.3576

                     43                     44                     45
                      A                      A                      A
 Frequencies --   1094.4525              1119.2196              1128.6355
 Red. masses --      1.5759                 7.1737                 1.6150
 Frc consts  --      1.1122                 5.2945                 1.2121
 IR Inten    --     17.5084               195.4847                 9.8330

                     46                     47                     48
                      A                      A                      A
 Frequencies --   1182.1216              1187.6471              1196.1492
 Red. masses --      1.2812                 1.1339                 1.4556
 Frc consts  --      1.0549                 0.9424                 1.2271
 IR Inten    --      2.0470                 0.8297                46.6424

                     49                     50                     51
                      A                      A                      A
 Frequencies --   1208.7521              1223.5837              1228.8610
 Red. masses --      1.9878                 1.1733                 2.2048
 Frc consts  --      1.7112                 1.0349                 1.9616
 IR Inten    --    126.7219                 2.4149                44.0270

                     52                     53                     54
                      A                      A                      A
 Frequencies --   1293.3427              1322.4244              1329.5491
 Red. masses --      7.1240                 3.3079                 1.4849
 Frc consts  --      7.0210                 3.4083                 1.5465
 IR Inten    --    754.7336                 7.8655                 4.4682

                     55                     56                     57
                      A                      A                      A
 Frequencies --   1369.7569              1424.5305              1466.0581
 Red. masses --      1.3944                 4.4043                 1.2943
 Frc consts  --      1.5414                 5.2658                 1.6391
 IR Inten    --      4.7101               677.4390                54.7129

                     58                     59                     60
                      A                      A                      A
 Frequencies --   1478.6293              1482.3779              1492.2722
 Red. masses --      1.1695                 1.0601                 2.2415
 Frc consts  --      1.5065                 1.3725                 2.9409
 IR Inten    --     47.5220                17.5181                25.9186

                     61                     62                     63
                      A                      A                      A
 Frequencies --   1495.6612              1496.1910              1505.2271
 Red. masses --      1.0580                 1.0496                 1.0418
 Frc consts  --      1.3944                 1.3844                 1.3907
 IR Inten    --     30.8535                11.9799                11.9740

                     64                     65                     66
                      A                      A                      A
 Frequencies --   1548.9421              1621.4432              1654.4783
 Red. masses --      2.2951                 1.0928                 5.7015
 Frc consts  --      3.2443                 1.6928                 9.1952
 IR Inten    --      6.8829                89.6836                 0.4975

                     67                     68                     69
                      A                      A                      A
 Frequencies --   1676.1216              1718.3759              3054.5940
 Red. masses --      5.8420                11.4840                 1.0406
 Frc consts  --      9.6700                19.9793                 5.7207
 IR Inten    --      0.1384               988.3132                26.7564

                     70                     71                     72
                      A                      A                      A
 Frequencies --   3067.3917              3135.7139              3146.1789
 Red. masses --      1.0305                 1.0950                 1.1071
 Frc consts  --      5.7124                 6.3435                 6.4567
 IR Inten    --     58.3094                 8.5601                32.0838

                     73                     74                     75
                      A                      A                      A
 Frequencies --   3176.1093              3178.3010              3201.7023
 Red. masses --      1.1060                 1.1060                 1.0865
 Frc consts  --      6.5735                 6.5824                 6.5620
 IR Inten    --     15.3985                19.5780                 0.0769

                     76                     77                     78
                      A                      A                      A
 Frequencies --   3211.2461              3221.8967              3231.2372
 Red. masses --      1.0904                 1.0947                 1.0955
 Frc consts  --      6.6247                 6.6955                 6.7392
 IR Inten    --     11.0085                20.8991                 8.4653

                     79                     80                     81
                      A                      A                      A
 Frequencies --   3248.2363              3532.2038              3618.0979
 Red. masses --      1.0920                 1.0512                 1.0973
 Frc consts  --      6.7881                 7.7271                 8.4633
 IR Inten    --      5.9163                62.8173                75.7774

 - Thermochemistry -
 -------------------
 Temperature   298.150 Kelvin.  Pressure   1.00000 Atm.
 Atom     1 has atomic number  6 and mass  12.00000

 Molecular mass:   304.98182 amu.
 Principal axes and moments of inertia in atomic units:
                           1         2         3
     Eigenvalues --  3379.787625893.746647212.34693
           X            0.99985   0.01541  -0.00766
           Y           -0.01566   0.99930  -0.03386
           Z            0.00713   0.03398   0.99940
 This molecule is an asymmetric top.
 Rotational symmetry number  1.
 Warning -- assumption of classical behavior for rotation
           may cause significant error
 Rotational temperatures (Kelvin)      0.02563     0.01470     0.01201
 Rotational constants (GHZ):           0.53398     0.30621     0.25023
    1 imaginary frequencies ignored.
 Zero-point vibrational energy     591926.8 (Joules/Mol)
                                  141.47391 (Kcal/Mol)
 Warning -- explicit consideration of  24 degrees of freedom as
           vibrations may cause significant error
 Vibrational temperatures:     31.47    71.73    93.17   108.11   126.99
          (Kelvin)            149.31   165.57   214.27   225.19   250.25
                              272.84   281.30   285.64   371.28   408.74
                              424.98   466.76   491.30   516.59   589.35
                              600.83   713.35   821.45   870.33   917.83
                              959.95  1038.37  1065.87  1104.06  1135.60
                             1159.30  1256.50  1317.15  1349.33  1389.34
                             1458.94  1465.91  1479.63  1489.31  1531.39
                             1537.46  1574.67  1610.31  1623.85  1700.81
                             1708.76  1720.99  1739.12  1760.46  1768.06
                             1860.83  1902.67  1912.92  1970.77  2049.58
                             2109.33  2127.42  2132.81  2147.05  2151.92
                             2152.69  2165.69  2228.58  2332.90  2380.43
                             2411.57  2472.36  4394.88  4413.29  4511.59
                             4526.65  4569.71  4572.87  4606.54  4620.27
                             4635.59  4649.03  4673.49  5082.05  5205.64

 Zero-point correction=                           0.225453 (Hartree/Particle)
 Thermal correction to Energy=                    0.242363
 Thermal correction to Enthalpy=                  0.243307
 Thermal correction to Gibbs Free Energy=         0.178819
 Sum of electronic and zero-point Energies=          -3666.385792
 Sum of electronic and thermal Energies=             -3666.368882
 Sum of electronic and thermal Enthalpies=           -3666.367938
 Sum of electronic and thermal Free Energies=        -3666.432426

                     E (Thermal)             CV                S
                      KCal/Mol        Cal/Mol-Kelvin    Cal/Mol-Kelvin
 Total                  152.085             59.831            135.727
 Electronic               0.000              0.000              0.000
 Translational            0.889              2.981             43.042
 Rotational               0.889              2.981             33.329
 Vibrational            150.308             53.869             59.356
 Vibration     1          0.593              1.985              6.456
 Vibration     2          0.595              1.978              4.823
 Vibration     3          0.597              1.971              4.307
 Vibration     4          0.599              1.966              4.014
 Vibration     5          0.601              1.957              3.698
 Vibration     6          0.605              1.946              3.382
 Vibration     7          0.608              1.937              3.181
 Vibration     8          0.618              1.904              2.686
 Vibration     9          0.620              1.895              2.591
 Vibration    10          0.627              1.875              2.393
 Vibration    11          0.633              1.854              2.231
 Vibration    12          0.636              1.846              2.175
 Vibration    13          0.637              1.842              2.147
 Vibration    14          0.667              1.749              1.675
 Vibration    15          0.682              1.703              1.509
 Vibration    16          0.690              1.682              1.443
 Vibration    17          0.709              1.627              1.288
 Vibration    18          0.721              1.593              1.205
 Vibration    19          0.734              1.557              1.126
 Vibration    20          0.774              1.449              0.928
 Vibration    21          0.781              1.432              0.900
 Vibration    22          0.851              1.259              0.669
 Vibration    23          0.927              1.094              0.502
 Vibration    24          0.963              1.021              0.441

 Optimization completed.
    -- Stationary point found.
 Normal termination of Gaussian 16 at Sun Feb  7 18:04:29 2021.
