 Gaussian 16, Revision A.03,
 Gaussian 16:  ES64L-G16RevA.03 25-Dec-2016

 ----------------------------------------------------------------------
 # wB97XD def2tzvp, opt=(ts, noeigen, calcfc, maxcycles=70, maxstep=5),
  freq=noraman, scrf=(iefpcm, solvent=water)
 ----------------------------------------------------------------------

 ------------------------
 2_iteration/TS-108-2.out
 ------------------------
 Symbolic Z-matrix:
 Charge =  0 Multiplicity = 1

 SCF Done:  E(RwB97XD) =  -3246.32608394     A.U. after   14 cycles
 SCF Done:  E(RwB97XD) =  -3246.32632355     A.U. after   11 cycles
 SCF Done:  E(RwB97XD) =  -3246.32637459     A.U. after   10 cycles
 SCF Done:  E(RwB97XD) =  -3246.32638958     A.U. after   10 cycles
 SCF Done:  E(RwB97XD) =  -3246.32639119     A.U. after    9 cycles
 SCF Done:  E(RwB97XD) =  -3246.32639143     A.U. after    8 cycles
 SCF Done:  E(RwB97XD) =  -3246.32639158     A.U. after    7 cycles
 Optimization completed.
    -- Stationary point found.
 Normal termination of Gaussian 16 at Sun Feb  7 15:12:17 2021.

 ---------------------------------------------------------------------
 #N Geom=AllCheck Guess=TCheck SCRF=Check GenChk RwB97XD/def2TZVP Freq
 ---------------------------------------------------------------------

 Structure from the checkpoint file:  "/beegfs/scratch/user/q/tla25/Gau-9822.chk"
 ------------------------
 2_iteration/TS-108-2.out
 ------------------------
 Charge =  0 Multiplicity = 1

                         Standard orientation:
 ---------------------------------------------------------------------
 Center     Atomic      Atomic             Coordinates (Angstroms)
 Number     Number       Type             X           Y           Z
 ---------------------------------------------------------------------
      1          6           0       -0.814831    0.218069   -0.156210
      2          6           0       -2.185014    0.216235   -0.564411
      3          8           0       -2.941472    1.177940   -0.545051
      4          6           0        0.099604   -0.847831   -0.014212
      5          6           0       -1.344615   -1.382363    2.316461
      6          1           0       -1.798452   -0.413262    2.119592
      7          1           0       -1.907955   -2.150512    1.791211
      8          1           0       -1.373071   -1.582734    3.386674
      9          7           0        0.031308   -1.368625    1.826824
     10          1           0        0.581236   -0.686591    2.337622
     11          1           0        0.462584   -2.277103    1.952477
     12          6           0        1.570084   -0.519717   -0.208704
     13          6           0        2.607059   -1.003091    0.581767
     14          6           0        3.931451   -0.731270    0.264114
     15          6           0        4.245453    0.010268   -0.862173
     16          6           0        3.220558    0.476384   -1.673366
     17          6           0        1.901015    0.213982   -1.348296
     18          1           0        2.418919   -1.604795    1.459132
     19          1           0        4.718321   -1.109736    0.904040
     20          1           0        5.278347    0.219446   -1.109202
     21          1           0        3.447659    1.050280   -2.562920
     22          1           0        1.105448    0.584064   -1.981987
     23          6           0       -0.198793   -2.202366   -0.637003
     24          1           0       -0.233214   -2.093030   -1.720786
     25          1           0        0.605943   -2.894910   -0.392007
     26          1           0       -1.149496   -2.612122   -0.313618
     27         35           0       -0.268859    1.894363    0.611822
     28          8           0       -2.615647   -0.981418   -1.034530
     29          6           0       -3.964438   -1.035318   -1.475001
     30          1           0       -4.124315   -2.058888   -1.805836
     31          1           0       -4.653057   -0.795686   -0.664282
     32          1           0       -4.136221   -0.346823   -2.302784
 ---------------------------------------------------------------------

 SCF Done:  E(RwB97XD) =  -3246.32639158     A.U. after    1 cycles

 The electronic state is 1-A.
 Alpha  occ. eigenvalues -- -483.11557 -62.66374 -56.45476 -56.45149 -56.45140
 Alpha  occ. eigenvalues --  -19.27936 -19.20828 -14.49196 -10.39793 -10.36738
 Alpha  occ. eigenvalues --  -10.32559 -10.31837 -10.31012 -10.30117 -10.29683
 Alpha  occ. eigenvalues --  -10.29345 -10.29254 -10.29187 -10.29146 -10.28381
 Alpha  occ. eigenvalues --   -8.80474  -6.62569  -6.61525  -6.61497  -2.72968
 Alpha  occ. eigenvalues --   -2.72666  -2.72643  -2.71797  -2.71797  -1.19403
 Alpha  occ. eigenvalues --   -1.09592  -1.04810  -0.97734  -0.93303  -0.87938
 Alpha  occ. eigenvalues --   -0.85523  -0.84560  -0.82344  -0.79245  -0.76906
 Alpha  occ. eigenvalues --   -0.72677  -0.70778  -0.67904  -0.63849  -0.63524
 Alpha  occ. eigenvalues --   -0.61931  -0.58701  -0.57450  -0.56588  -0.55999
 Alpha  occ. eigenvalues --   -0.55606  -0.54064  -0.53148  -0.51892  -0.51242
 Alpha  occ. eigenvalues --   -0.50890  -0.49577  -0.48961  -0.47514  -0.47324
 Alpha  occ. eigenvalues --   -0.46529  -0.44951  -0.43517  -0.43261  -0.42042
 Alpha  occ. eigenvalues --   -0.41718  -0.38843  -0.37665  -0.37161  -0.35065
 Alpha  occ. eigenvalues --   -0.34082  -0.32723  -0.27218
 Alpha virt. eigenvalues --    0.03804   0.04885   0.06597   0.08667   0.10112
 Alpha virt. eigenvalues --    0.12152   0.13458   0.14216   0.14998   0.15633
 Alpha virt. eigenvalues --    0.16302   0.16639   0.17324   0.17861   0.18489

 Mulliken charges:
               1
     1  C   -0.315856
     2  C    0.427569
     3  O   -0.502509
     4  C    0.166836
     5  C   -0.308965
     6  H    0.161805
     7  H    0.154800
     8  H    0.166541
     9  N   -0.329183
    10  H    0.291187
    11  H    0.291776
    12  C    0.242965
    13  C   -0.233610
    14  C   -0.150646
    15  C   -0.155575
    16  C   -0.117755
    17  C   -0.315122
    18  H    0.138568
    19  H    0.144498
    20  H    0.145269
    21  H    0.144290
    22  H    0.158714
    23  C   -0.369903
    24  H    0.148524
    25  H    0.147998
    26  H    0.146975
    27  Br  -0.172476
    28  O   -0.299945
    29  C   -0.193829
    30  H    0.135807
    31  H    0.124902
    32  H    0.126351
 Sum of Mulliken charges =  -0.00000

 Dipole moment (field-independent basis, Debye):
    X=              4.1630    Y=             -9.1903    Z=              4.1388  Tot=             10.9052
 Quadrupole moment (field-independent basis, Debye-Ang):
   XX=           -105.5567   YY=           -107.8941   ZZ=            -93.1224
   XY=             11.7041   XZ=              0.3478   YZ=             -9.3214

  Exact polarizability: 286.396  -5.834 226.361  11.687 -22.835 223.249
 Approx polarizability: 218.228  -5.578 191.325   9.015 -18.552 189.904

 ******    1 imaginary frequencies (negative Signs) ******

                      1                      2                      3
                      A                      A                      A
 Frequencies --   -339.0833                20.3469                42.5213
 Red. masses --      5.1417                 3.8327                 4.1891
 Frc consts  --      0.3483                 0.0009                 0.0045
 IR Inten    --    642.4209                 2.0840                 1.0866

                      4                      5                      6
                      A                      A                      A
 Frequencies --     61.9257                78.1641                91.6379
 Red. masses --      5.6929                 5.0544                 2.6814
 Frc consts  --      0.0129                 0.0182                 0.0133
 IR Inten    --      1.3614                 0.6817                 0.6487

                      7                      8                      9
                      A                      A                      A
 Frequencies --    103.0854               131.0004               138.2918
 Red. masses --      2.2904                 3.9057                 3.3370
 Frc consts  --      0.0143                 0.0395                 0.0376
 IR Inten    --      6.5464                 4.7642                 5.8188

                     10                     11                     12
                      A                      A                      A
 Frequencies --    163.9744               180.0121               196.5349
 Red. masses --      2.5756                 1.1877                 1.6855
 Frc consts  --      0.0408                 0.0227                 0.0384
 IR Inten    --      3.3129                 0.4998                 2.0186

                     13                     14                     15
                      A                      A                      A
 Frequencies --    204.1958               281.3913               287.4250
 Red. masses --      4.6895                 2.3417                 3.2740
 Frc consts  --      0.1152                 0.1092                 0.1594
 IR Inten    --      1.7649                 2.3413                 2.1520

                     16                     17                     18
                      A                      A                      A
 Frequencies --    298.8286               304.7909               323.3146
 Red. masses --      3.2806                 2.1258                 3.1758
 Frc consts  --      0.1726                 0.1164                 0.1956
 IR Inten    --      1.5978                20.4569                21.9049

                     19                     20                     21
                      A                      A                      A
 Frequencies --    352.3789               367.1526               398.9396
 Red. masses --      2.5399                 3.8579                 5.1729
 Frc consts  --      0.1858                 0.3064                 0.4851
 IR Inten    --     21.0555                22.6725                 4.7218

                     22                     23                     24
                      A                      A                      A
 Frequencies --    419.4876               432.4798               561.5062
 Red. masses --      2.8759                 4.7392                 2.9255
 Frc consts  --      0.2982                 0.5223                 0.5434
 IR Inten    --      0.0858                14.1508                56.2236

                     25                     26                     27
                      A                      A                      A
 Frequencies --    585.2825               634.9172               642.8696
 Red. masses --      4.2411                 4.5006                 4.9070
 Frc consts  --      0.8560                 1.0690                 1.1948
 IR Inten    --     93.2882                 7.0519                23.5681

                     28                     29                     30
                      A                      A                      A
 Frequencies --    674.3623               723.4724               757.3186
 Red. masses --      1.6431                 1.5635                 5.5927
 Frc consts  --      0.4402                 0.4822                 1.8899
 IR Inten    --     55.9254                89.1192                 0.7906

                     31                     32                     33
                      A                      A                      A
 Frequencies --    784.0302               795.0776               831.0605
 Red. masses --     10.7931                 2.1073                 3.9718
 Frc consts  --      3.9090                 0.7849                 1.6162
 IR Inten    --     40.6936                25.7196                41.5473

                     34                     35                     36
                      A                      A                      A
 Frequencies --    870.8695               897.3775               951.0754
 Red. masses --      1.2529                 5.1650                 1.4252
 Frc consts  --      0.5599                 2.4506                 0.7595
 IR Inten    --      0.5332                72.7421                 3.4281

                     37                     38                     39
                      A                      A                      A
 Frequencies --   1009.4314              1016.8369              1024.4347
 Red. masses --      1.2748                 1.2648                 5.0489
 Frc consts  --      0.7653                 0.7705                 3.1219
 IR Inten    --      9.7584                 8.8884                13.4490

                     40                     41                     42
                      A                      A                      A
 Frequencies --   1029.1764              1032.9801              1041.9224
 Red. masses --      1.6720                 1.4500                 1.3988
 Frc consts  --      1.0434                 0.9116                 0.8947
 IR Inten    --    116.4968                31.9889                11.5540

                     43                     44                     45
                      A                      A                      A
 Frequencies --   1061.7547              1068.1206              1084.2604
 Red. masses --      2.2286                 1.7931                 3.8084
 Frc consts  --      1.4803                 1.2053                 2.6379
 IR Inten    --     36.5789                17.5429                 4.6630

                     46                     47                     48
                      A                      A                      A
 Frequencies --   1100.2973              1128.1046              1134.4017
 Red. masses --      1.8957                 1.5859                 6.2377
 Frc consts  --      1.3522                 1.1891                 4.7295
 IR Inten    --     38.0622                 5.6535               292.7235

                     49                     50                     51
                      A                      A                      A
 Frequencies --   1180.6773              1185.8247              1212.2742
 Red. masses --      1.2771                 1.1288                 1.5775
 Frc consts  --      1.0489                 0.9352                 1.3659
 IR Inten    --      1.5817                 0.4391               157.5782

                     52                     53                     54
                      A                      A                      A
 Frequencies --   1222.6769              1236.1648              1249.3815
 Red. masses --      1.1964                 1.3669                 3.6429
 Frc consts  --      1.0538                 1.2306                 3.3503
 IR Inten    --      8.7812                49.8289                68.6195

                     55                     56                     57
                      A                      A                      A
 Frequencies --   1306.7695              1326.0454              1358.7781
 Red. masses --      6.0487                 5.6195                 1.3146
 Frc consts  --      6.0857                 5.8219                 1.4300
 IR Inten    --    323.7333               152.7750                 2.6352

                     58                     59                     60
                      A                      A                      A
 Frequencies --   1370.8461              1412.8961              1420.1821
 Red. masses --      1.3749                 2.8733                 1.3522
 Frc consts  --      1.5223                 3.3795                 1.6069
 IR Inten    --      7.7981               622.5547                91.2978

                     61                     62                     63
                      A                      A                      A
 Frequencies --   1458.6694              1475.3315              1480.8022
 Red. masses --      1.1832                 1.1292                 1.0461
 Frc consts  --      1.4832                 1.4482                 1.3516
 IR Inten    --      3.5235                36.7816                 9.6145

                     64                     65                     66
                      A                      A                      A
 Frequencies --   1484.0775              1489.3443              1495.4854
 Red. masses --      1.1373                 1.9134                 1.0539
 Frc consts  --      1.4758                 2.5006                 1.3887
 IR Inten    --     84.9360                13.5043                13.7273

                     67                     68                     69
                      A                      A                      A
 Frequencies --   1496.1408              1499.3294              1507.1637
 Red. masses --      1.1731                 1.0858                 1.0658
 Frc consts  --      1.5472                 1.4381                 1.4264
 IR Inten    --     39.7292                34.2405                35.0057

                     70                     71                     72
                      A                      A                      A
 Frequencies --   1545.7718              1645.5324              1656.8801
 Red. masses --      2.2322                 1.6517                 2.0878
 Frc consts  --      3.1425                 2.6351                 3.3769
 IR Inten    --     11.2730                19.9781                58.6238

                     73                     74                     75
                      A                      A                      A
 Frequencies --   1675.7803              1680.1109              3060.0459
 Red. masses --      5.7389                 9.9350                 1.0306
 Frc consts  --      9.4954                16.5232                 5.6859
 IR Inten    --    133.0345               930.1895                73.1456

                     76                     77                     78
                      A                      A                      A
 Frequencies --   3078.1280              3081.0406              3135.2019
 Red. masses --      1.0382                 1.0334                 1.1067
 Frc consts  --      5.7955                 5.7796                 6.4091
 IR Inten    --     22.7503                28.8950                40.4409

                     79                     80                     81
                      A                      A                      A
 Frequencies --   3148.9936              3161.6763              3166.7897
 Red. masses --      1.1025                 1.1046                 1.1053
 Frc consts  --      6.4413                 6.5055                 6.5306
 IR Inten    --     18.1730                 8.4669                26.4793

                     82                     83                     84
                      A                      A                      A
 Frequencies --   3176.9038              3195.8620              3196.9134
 Red. masses --      1.1056                 1.1000                 1.0860
 Frc consts  --      6.5745                 6.6195                 6.5393
 IR Inten    --     10.0976                15.0847                 0.6940

                     85                     86                     87
                      A                      A                      A
 Frequencies --   3204.8432              3213.9997              3222.2581
 Red. masses --      1.0891                 1.0930                 1.0972
 Frc consts  --      6.5907                 6.6523                 6.7119
 IR Inten    --      4.7735                21.6237                26.8655

                     88                     89                     90
                      A                      A                      A
 Frequencies --   3235.5920              3517.4451              3602.4429
 Red. masses --      1.0932                 1.0505                 1.0964
 Frc consts  --      6.7428                 7.6578                 8.3831
 IR Inten    --     17.4940                44.0755                49.6188

 - Thermochemistry -
 -------------------
 Temperature   298.150 Kelvin.  Pressure   1.00000 Atm.
 Atom     1 has atomic number  6 and mass  12.00000

 Molecular mass:   285.03644 amu.
 Principal axes and moments of inertia in atomic units:
                           1         2         3
     Eigenvalues --  2989.229235957.971876658.51899
           X            0.99966   0.02609   0.00080
           Y           -0.02582   0.99293  -0.11585
           Z           -0.00382   0.11579   0.99327
 This molecule is an asymmetric top.
 Rotational symmetry number  1.
 Warning -- assumption of classical behavior for rotation
           may cause significant error
 Rotational temperatures (Kelvin)      0.02898     0.01454     0.01301
 Rotational constants (GHZ):           0.60375     0.30291     0.27104
    1 imaginary frequencies ignored.
 Zero-point vibrational energy     692577.4 (Joules/Mol)
                                  165.52996 (Kcal/Mol)
 Warning -- explicit consideration of  24 degrees of freedom as
           vibrations may cause significant error
 Vibrational temperatures:     29.27    61.18    89.10   112.46   131.85
          (Kelvin)            148.32   188.48   198.97   235.92   259.00
                              282.77   293.79   404.86   413.54   429.95
                              438.53   465.18   506.99   528.25   573.99
                              603.55   622.24   807.88   842.09   913.50
                              924.95   970.26  1040.92  1089.61  1128.04
                             1143.94  1195.71  1252.99  1291.13  1368.39
                             1452.35  1463.00  1473.93  1480.76  1486.23
                             1499.09  1527.63  1536.79  1560.01  1583.08
                             1623.09  1632.15  1698.73  1706.14  1744.19
                             1759.16  1778.57  1797.58  1880.15  1907.88
                             1954.98  1972.34  2032.84  2043.33  2098.70
                             2122.67  2130.54  2135.26  2142.83  2151.67
                             2152.61  2157.20  2168.47  2224.02  2367.55
                             2383.88  2411.07  2417.30  4402.72  4428.74
                             4432.93  4510.86  4530.70  4548.95  4556.30
                             4570.86  4598.13  4599.65  4611.05  4624.23
                             4636.11  4655.30  5060.82  5183.11

 Zero-point correction=                           0.263789 (Hartree/Particle)
 Thermal correction to Energy=                    0.280702
 Thermal correction to Enthalpy=                  0.281646
 Thermal correction to Gibbs Free Energy=         0.217478
 Sum of electronic and zero-point Energies=          -3246.062603
 Sum of electronic and thermal Energies=             -3246.045689
 Sum of electronic and thermal Enthalpies=           -3246.044745
 Sum of electronic and thermal Free Energies=        -3246.108914

                     E (Thermal)             CV                S
                      KCal/Mol        Cal/Mol-Kelvin    Cal/Mol-Kelvin
 Total                  176.143             61.340            135.054
 Electronic               0.000              0.000              0.000
 Translational            0.889              2.981             42.840
 Rotational               0.889              2.981             33.139
 Vibrational            174.366             55.378             59.075
 Vibration     1          0.593              1.986              6.600
 Vibration     2          0.595              1.980              5.138
 Vibration     3          0.597              1.972              4.395
 Vibration     4          0.599              1.964              3.936
 Vibration     5          0.602              1.955              3.625
 Vibration     6          0.605              1.947              3.395
 Vibration     7          0.612              1.922              2.931
 Vibration     8          0.614              1.915              2.827
 Vibration     9          0.623              1.887              2.503
 Vibration    10          0.629              1.867              2.328
 Vibration    11          0.636              1.845              2.165
 Vibration    12          0.640              1.834              2.095
 Vibration    13          0.681              1.708              1.525
 Vibration    14          0.685              1.697              1.489
 Vibration    15          0.692              1.676              1.423
 Vibration    16          0.696              1.665              1.390
 Vibration    17          0.708              1.629              1.293
 Vibration    18          0.729              1.570              1.156
 Vibration    19          0.740              1.540              1.092
 Vibration    20          0.765              1.472              0.967
 Vibration    21          0.782              1.428              0.894
 Vibration    22          0.793              1.399              0.851
 Vibration    23          0.917              1.115              0.521
 Vibration    24          0.942              1.063              0.476

 Optimization completed.
    -- Stationary point found.
 Normal termination of Gaussian 16 at Sun Feb  7 16:23:38 2021.
