 Gaussian 16, Revision A.03,
 Gaussian 16:  ES64L-G16RevA.03 25-Dec-2016

 ----------------------------------------------------------------------
 # wB97XD def2tzvp, opt=(ts, noeigen, calcfc, maxcycles=70, maxstep=5),
  freq=noraman, scrf=(iefpcm, solvent=water)
 ----------------------------------------------------------------------

 ------------------------
 2_iteration/TS-198-2.out
 ------------------------
 Symbolic Z-matrix:
 Charge =  0 Multiplicity = 1

 SCF Done:  E(RwB97XD) =  -1572.04476670     A.U. after   15 cycles
 Optimization completed.
    -- Stationary point found.
 Normal termination of Gaussian 16 at Sun Feb  7 16:19:56 2021.

 ---------------------------------------------------------------------
 #N Geom=AllCheck Guess=TCheck SCRF=Check GenChk RwB97XD/def2TZVP Freq
 ---------------------------------------------------------------------

 Structure from the checkpoint file:  "/beegfs/scratch/user/q/tla25/Gau-98407.chk"
 ------------------------
 2_iteration/TS-198-2.out
 ------------------------
 Charge =  0 Multiplicity = 1

                         Standard orientation:
 ---------------------------------------------------------------------
 Center     Atomic      Atomic             Coordinates (Angstroms)
 Number     Number       Type             X           Y           Z
 ---------------------------------------------------------------------
      1          6           0       -0.758260   -0.242480   -0.115949
      2          6           0       -2.131570    0.228940    0.073471
      3          8           0       -2.372679    1.442630    0.200191
      4          6           0        0.331030    0.498989    0.327971
      5          6           0        0.257791    2.159179   -1.962769
      6          1           0       -0.445999    1.389649   -2.275149
      7          1           0       -0.058948    3.115929   -2.378549
      8          1           0        1.245401    1.910388   -2.344029
      9          7           0        0.267411    2.203229   -0.503429
     10          1           0        0.918701    2.883059   -0.127899
     11          1           0       -0.674989    2.408659   -0.164029
     12          6           0        1.727840   -0.030212    0.173651
     13          6           0        2.793680    0.713118   -0.315439
     14          6           0        4.067800    0.164177   -0.377669
     15          6           0        4.295829   -1.128833    0.060491
     16          6           0        3.239659   -1.872643    0.570101
     17          6           0        1.970169   -1.327652    0.627721
     18          1           0        2.661521    1.729898   -0.651719
     19          1           0        4.882950    0.758936   -0.769079
     20          1           0        5.289989   -1.554164    0.012151
     21          1           0        3.405118   -2.881403    0.926111
     22          1           0        1.150359   -1.908162    1.030111
     23         17           0        0.153041    1.162919    2.012661
     24         17           0       -0.495461   -1.381581   -1.442729
     25          7           0       -3.140521   -0.674639    0.081381
     26          6           0       -2.964291   -2.080149    0.382511
     27          6           0       -4.510300   -0.209248    0.040991
     28          1           0       -1.950161   -2.268540    0.723791
     29          1           0       -3.654841   -2.360259    1.181681
     30          1           0       -3.169602   -2.706759   -0.488649
     31          1           0       -4.560570    0.747192   -0.471929
     32          1           0       -5.116951   -0.939318   -0.496509
     33          1           0       -4.923890   -0.088138    1.047221
 ---------------------------------------------------------------------

 SCF Done:  E(RwB97XD) =  -1572.04476670     A.U. after    1 cycles

 The electronic state is 1-A.
 Alpha  occ. eigenvalues -- -101.69419-101.68893 -19.21162 -14.48340 -14.46102
 Alpha  occ. eigenvalues --  -10.40865 -10.38610 -10.31661 -10.31657 -10.30856
 Alpha  occ. eigenvalues --  -10.30827 -10.30575 -10.30050 -10.29708 -10.29557
 Alpha  occ. eigenvalues --  -10.29501 -10.29444  -9.58008  -9.57405  -7.32647
 Alpha  occ. eigenvalues --   -7.32049  -7.31789  -7.31762  -7.31197  -7.31168
 Alpha  occ. eigenvalues --   -1.13868  -1.04552  -1.03471  -0.99062  -0.96205
 Alpha  occ. eigenvalues --   -0.94231  -0.87095  -0.85860  -0.82978  -0.81488
 Alpha  occ. eigenvalues --   -0.79633  -0.78648  -0.73149  -0.71306  -0.67554
 Alpha  occ. eigenvalues --   -0.64772  -0.62123  -0.60544  -0.58897  -0.57817
 Alpha  occ. eigenvalues --   -0.57061  -0.56357  -0.55733  -0.55187  -0.53468
 Alpha  occ. eigenvalues --   -0.52547  -0.51535  -0.51306  -0.48865  -0.48666
 Alpha  occ. eigenvalues --   -0.48481  -0.48030  -0.47622  -0.46828  -0.45898
 Alpha  occ. eigenvalues --   -0.45658  -0.44080  -0.43279  -0.41692  -0.40460
 Alpha  occ. eigenvalues --   -0.40050  -0.38767  -0.35027  -0.34358  -0.33528
 Alpha  occ. eigenvalues --   -0.32217  -0.26925
 Alpha virt. eigenvalues --    0.02784   0.04570   0.04854   0.08754   0.10179
 Alpha virt. eigenvalues --    0.11007   0.12271   0.13796   0.14903   0.14977
 Alpha virt. eigenvalues --    0.16036   0.16946   0.17369   0.17920   0.18188

 Mulliken charges:
               1
     1  C   -0.369981
     2  C    0.364750
     3  O   -0.563734
     4  C    0.305385
     5  C   -0.294523
     6  H    0.155767
     7  H    0.156258
     8  H    0.149729
     9  N   -0.318024
    10  H    0.281803
    11  H    0.279598
    12  C    0.179265
    13  C   -0.223848
    14  C   -0.158090
    15  C   -0.146444
    16  C   -0.121578
    17  C   -0.299438
    18  H    0.151667
    19  H    0.146175
    20  H    0.147221
    21  H    0.145810
    22  H    0.170697
    23  Cl  -0.141439
    24  Cl  -0.162087
    25  N   -0.103659
    26  C   -0.303817
    27  C   -0.292809
    28  H    0.163572
    29  H    0.139156
    30  H    0.142546
    31  H    0.141069
    32  H    0.140928
    33  H    0.138075
 Sum of Mulliken charges =  -0.00000

 Dipole moment (field-independent basis, Debye):
    X=              2.3971    Y=              1.0906    Z=             -2.0362  Tot=              3.3289
 Quadrupole moment (field-independent basis, Debye-Ang):
   XX=            -98.8526   YY=           -101.5583   ZZ=           -118.8127
   XY=             11.1828   XZ=             -2.4227   YZ=            -11.2907

  Exact polarizability: 303.460  12.501 271.661 -14.178  -6.696 209.684
 Approx polarizability: 228.217   6.961 231.732 -10.946  -4.303 182.204

 ******    1 imaginary frequencies (negative Signs) ******

                      1                      2                      3
                      A                      A                      A
 Frequencies --   -378.6694                35.6313                57.9870
 Red. masses --      5.5023                 3.7646                 4.8434
 Frc consts  --      0.4648                 0.0028                 0.0096
 IR Inten    --    691.5208                 0.5147                 3.3889

                      4                      5                      6
                      A                      A                      A
 Frequencies --     72.6468                77.7366               107.0531
 Red. masses --      4.1756                 4.7004                 3.7181
 Frc consts  --      0.0130                 0.0167                 0.0251
 IR Inten    --      1.5900                 5.6157                 1.1888

                      7                      8                      9
                      A                      A                      A
 Frequencies --    117.4512               125.6563               141.6066
 Red. masses --      2.3867                 1.4187                 3.2849
 Frc consts  --      0.0194                 0.0132                 0.0388
 IR Inten    --      0.5385                 0.6285                 3.8949

                     10                     11                     12
                      A                      A                      A
 Frequencies --    169.2271               172.7853               182.1676
 Red. masses --      2.9160                 1.7003                 2.2343
 Frc consts  --      0.0492                 0.0299                 0.0437
 IR Inten    --     11.6506                 1.9461                 7.6613

                     13                     14                     15
                      A                      A                      A
 Frequencies --    196.7650               221.9151               242.7943
 Red. masses --      4.7287                 4.3756                 2.4590
 Frc consts  --      0.1079                 0.1270                 0.0854
 IR Inten    --      1.3062                17.6019                 1.8383

                     16                     17                     18
                      A                      A                      A
 Frequencies --    251.2699               272.4059               287.0865
 Red. masses --      5.1807                 4.4044                 4.1590
 Frc consts  --      0.1927                 0.1926                 0.2020
 IR Inten    --      7.2675                 5.5422                 1.5463

                     19                     20                     21
                      A                      A                      A
 Frequencies --    296.9597               319.1170               363.1099
 Red. masses --      1.9804                 3.3193                10.3211
 Frc consts  --      0.1029                 0.1992                 0.8018
 IR Inten    --      6.2536                40.4564                18.3386

                     22                     23                     24
                      A                      A                      A
 Frequencies --    388.2406               422.8758               433.3900
 Red. masses --      4.2241                 2.8731                 2.9763
 Frc consts  --      0.3751                 0.3027                 0.3294
 IR Inten    --     51.2554                 1.2276                 2.2131

                     25                     26                     27
                      A                      A                      A
 Frequencies --    498.1261               527.8231               573.9009
 Red. masses --      5.2073                 3.6413                 5.4624
 Frc consts  --      0.7613                 0.5977                 1.0600
 IR Inten    --     16.6520                 9.3224               197.4934

                     28                     29                     30
                      A                      A                      A
 Frequencies --    610.4274               639.4828               681.1692
 Red. masses --      5.0101                 6.4948                 5.5934
 Frc consts  --      1.0999                 1.5649                 1.5291
 IR Inten    --     33.9853                17.5227                14.1590

                     31                     32                     33
                      A                      A                      A
 Frequencies --    703.7929               721.2135               756.6576
 Red. masses --      2.4221                 1.7264                 2.3323
 Frc consts  --      0.7068                 0.5291                 0.7867
 IR Inten    --    139.3782                48.4262               238.2978

                     34                     35                     36
                      A                      A                      A
 Frequencies --    786.3929               820.0218               841.2805
 Red. masses --      4.3104                 2.6124                 5.7064
 Frc consts  --      1.5705                 1.0350                 2.3795
 IR Inten    --     43.9370                30.5538                50.2382

                     37                     38                     39
                      A                      A                      A
 Frequencies --    870.0992               957.2542               966.3175
 Red. masses --      1.2520                 1.6832                 2.9406
 Frc consts  --      0.5585                 0.9088                 1.6178
 IR Inten    --      0.4563                 0.9637                 5.8919

                     40                     41                     42
                      A                      A                      A
 Frequencies --   1005.4837              1012.4602              1026.1014
 Red. masses --      1.1688                 1.3377                 5.4338
 Frc consts  --      0.6962                 0.8079                 3.3708
 IR Inten    --     48.7074                10.7002                 1.1955

                     43                     44                     45
                      A                      A                      A
 Frequencies --   1032.7243              1061.7553              1068.0440
 Red. masses --      1.3188                 2.6628                 2.2758
 Frc consts  --      0.8287                 1.7686                 1.5295
 IR Inten    --      0.2399                68.7191                39.9389

                     46                     47                     48
                      A                      A                      A
 Frequencies --   1079.5749              1094.5934              1121.2347
 Red. masses --      3.8362                 1.3673                 1.3359
 Frc consts  --      2.6342                 0.9652                 0.9895
 IR Inten    --     17.3122                17.7370                50.3811

                     49                     50                     51
                      A                      A                      A
 Frequencies --   1127.6136              1133.3245              1170.8494
 Red. masses --      1.5493                 1.2297                 1.4191
 Frc consts  --      1.1606                 0.9306                 1.1462
 IR Inten    --     24.4693                 0.4585                 6.1025

                     52                     53                     54
                      A                      A                      A
 Frequencies --   1186.8439              1204.9695              1222.8501
 Red. masses --      1.1400                 3.3233                 1.1773
 Frc consts  --      0.9461                 2.8430                 1.0373
 IR Inten    --      0.1297                19.4610                24.3590

                     55                     56                     57
                      A                      A                      A
 Frequencies --   1229.5977              1249.5987              1316.5316
 Red. masses --      2.6335                 1.4741                 5.1834
 Frc consts  --      2.3459                 1.3562                 5.2933
 IR Inten    --    280.9215                55.9268                28.9571

                     58                     59                     60
                      A                      A                      A
 Frequencies --   1322.1324              1367.2091              1369.9382
 Red. masses --      4.7897                 1.3917                 1.2981
 Frc consts  --      4.9330                 1.5328                 1.4354
 IR Inten    --     24.0322                 1.1158                47.3130

                     61                     62                     63
                      A                      A                      A
 Frequencies --   1430.8914              1446.5956              1451.0652
 Red. masses --      2.8811                 1.9104                 1.2274
 Frc consts  --      3.4756                 2.3554                 1.5226
 IR Inten    --    975.6403                12.0566                 9.5876

                     64                     65                     66
                      A                      A                      A
 Frequencies --   1469.0316              1475.9920              1483.4339
 Red. masses --      1.3495                 1.2162                 1.0734
 Frc consts  --      1.7159                 1.5611                 1.3917
 IR Inten    --     37.9760                58.7582                 7.9515

                     67                     68                     69
                      A                      A                      A
 Frequencies --   1491.4693              1491.9281              1500.9399
 Red. masses --      2.1039                 1.0582                 1.0506
 Frc consts  --      2.7574                 1.3878                 1.3946
 IR Inten    --     42.5070                13.9019                15.5779

                     70                     71                     72
                      A                      A                      A
 Frequencies --   1506.6723              1507.5935              1537.0258
 Red. masses --      1.0575                 1.0437                 1.7372
 Frc consts  --      1.4144                 1.3976                 2.4180
 IR Inten    --     17.5453                16.7425               231.5318

                     73                     74                     75
                      A                      A                      A
 Frequencies --   1548.0875              1612.6307              1651.2439
 Red. masses --      2.3969                 2.3351                 2.4091
 Frc consts  --      3.3845                 3.5779                 3.8702
 IR Inten    --     11.8034               707.1754                43.9057

                     76                     77                     78
                      A                      A                      A
 Frequencies --   1658.0601              1676.6865              3035.5579
 Red. masses --      2.4406                 5.7512                 1.0432
 Frc consts  --      3.9532                 9.5260                 5.6638
 IR Inten    --     44.0044                 0.9075                74.0126

                     79                     80                     81
                      A                      A                      A
 Frequencies --   3043.3471              3075.1613              3099.2194
 Red. masses --      1.0386                 1.0349                 1.1031
 Frc consts  --      5.6677                 5.7662                 6.2426
 IR Inten    --    110.3641                39.8457                63.1231

                     82                     83                     84
                      A                      A                      A
 Frequencies --   3108.6338              3152.8923              3174.5167
 Red. masses --      1.0971                 1.1027                 1.1004
 Frc consts  --      6.2464                 6.4583                 6.5334
 IR Inten    --     20.9837                12.8104                10.2986

                     85                     86                     87
                      A                      A                      A
 Frequencies --   3176.4811              3177.2735              3199.7639
 Red. masses --      1.0986                 1.1052                 1.0863
 Frc consts  --      6.5308                 6.5735                 6.5530
 IR Inten    --     13.0073                18.1454                 0.3153

                     88                     89                     90
                      A                      A                      A
 Frequencies --   3208.2781              3217.4505              3225.2622
 Red. masses --      1.0896                 1.0937                 1.0980
 Frc consts  --      6.6081                 6.6708                 6.7297
 IR Inten    --      6.7234                21.1007                17.7700

                     91                     92                     93
                      A                      A                      A
 Frequencies --   3252.8467              3399.5839              3573.8067
 Red. masses --      1.0917                 1.0640                 1.0854
 Frc consts  --      6.8060                 7.2452                 8.1675
 IR Inten    --     13.2297               172.4870                81.3430

 - Thermochemistry -
 -------------------
 Temperature   298.150 Kelvin.  Pressure   1.00000 Atm.
 Atom     1 has atomic number  6 and mass  12.00000

 Molecular mass:   274.06397 amu.
 Principal axes and moments of inertia in atomic units:
                           1         2         3
     Eigenvalues --  2820.275606596.155697283.56213
           X            0.99990   0.01108  -0.00822
           Y           -0.01222   0.98794  -0.15435
           Z            0.00641   0.15444   0.98798
 This molecule is an asymmetric top.
 Rotational symmetry number  1.
 Warning -- assumption of classical behavior for rotation
           may cause significant error
 Rotational temperatures (Kelvin)      0.03071     0.01313     0.01189
 Rotational constants (GHZ):           0.63992     0.27361     0.24778
    1 imaginary frequencies ignored.
 Zero-point vibrational energy     702044.6 (Joules/Mol)
                                  167.79269 (Kcal/Mol)
 Warning -- explicit consideration of  27 degrees of freedom as
           vibrations may cause significant error
 Vibrational temperatures:     51.27    83.43   104.52   111.85   154.03
          (Kelvin)            168.99   180.79   203.74   243.48   248.60
                              262.10   283.10   319.29   349.33   361.52
                              391.93   413.05   427.26   459.14   522.43
                              558.59   608.42   623.55   716.69   759.42
                              825.72   878.27   920.07   980.05  1012.60
                             1037.67  1088.66  1131.44  1179.83  1210.41
                             1251.88  1377.28  1390.32  1446.67  1456.70
                             1476.33  1485.86  1527.63  1536.68  1553.27
                             1574.88  1613.21  1622.38  1630.60  1684.59
                             1707.60  1733.68  1759.41  1769.12  1797.89
                             1894.20  1902.25  1967.11  1971.04  2058.73
                             2081.33  2087.76  2113.61  2123.62  2134.33
                             2145.89  2146.55  2159.52  2167.77  2169.09
                             2211.44  2227.35  2320.22  2375.77  2385.58
                             2412.38  4367.49  4378.70  4424.47  4459.09
                             4472.63  4536.31  4567.42  4570.25  4571.39
                             4603.75  4616.00  4629.19  4640.43  4680.12
                             4891.24  5141.91

 Zero-point correction=                           0.267395 (Hartree/Particle)
 Thermal correction to Energy=                    0.285292
 Thermal correction to Enthalpy=                  0.286236
 Thermal correction to Gibbs Free Energy=         0.221276
 Sum of electronic and zero-point Energies=          -1571.777372
 Sum of electronic and thermal Energies=             -1571.759474
 Sum of electronic and thermal Enthalpies=           -1571.758530
 Sum of electronic and thermal Free Energies=        -1571.823491

                     E (Thermal)             CV                S
                      KCal/Mol        Cal/Mol-Kelvin    Cal/Mol-Kelvin
 Total                  179.024             65.236            136.721
 Electronic               0.000              0.000              0.000
 Translational            0.889              2.981             42.723
 Rotational               0.889              2.981             33.271
 Vibrational            177.246             59.275             60.727
 Vibration     1          0.594              1.982              5.488
 Vibration     2          0.596              1.974              4.525
 Vibration     3          0.599              1.967              4.080
 Vibration     4          0.599              1.964              3.947
 Vibration     5          0.606              1.944              3.322
 Vibration     6          0.608              1.935              3.142
 Vibration     7          0.611              1.927              3.011
 Vibration     8          0.615              1.912              2.782
 Vibration     9          0.625              1.880              2.444
 Vibration    10          0.626              1.876              2.405
 Vibration    11          0.630              1.864              2.306
 Vibration    12          0.636              1.844              2.163
 Vibration    13          0.648              1.808              1.943
 Vibration    14          0.659              1.775              1.782
 Vibration    15          0.663              1.761              1.722
 Vibration    16          0.675              1.724              1.581
 Vibration    17          0.684              1.698              1.491
 Vibration    18          0.691              1.679              1.434
 Vibration    19          0.705              1.637              1.315
 Vibration    20          0.737              1.548              1.109
 Vibration    21          0.756              1.495              1.007
 Vibration    22          0.785              1.420              0.882
 Vibration    23          0.794              1.397              0.848
 Vibration    24          0.854              1.254              0.663
 Vibration    25          0.883              1.188              0.592
 Vibration    26          0.930              1.088              0.497
 Vibration    27          0.969              1.010              0.432

 Optimization completed.
    -- Stationary point found.
 Normal termination of Gaussian 16 at Sun Feb  7 17:47:52 2021.
