 Gaussian 16, Revision A.03,
 Gaussian 16:  ES64L-G16RevA.03 25-Dec-2016

 ----------------------------------------------------------------------
 # wB97XD def2tzvp, opt=(ts, noeigen, calcfc, maxcycles=70, maxstep=3),
  freq=noraman, scrf=(iefpcm, solvent=water)
 ----------------------------------------------------------------------

 ------------------------
 0_iteration/TS-122-0.out
 ------------------------
 Symbolic Z-matrix:
 Charge =  0 Multiplicity = 1

 SCF Done:  E(RwB97XD) =  -3362.82285942     A.U. after   15 cycles
 SCF Done:  E(RwB97XD) =  -3362.82285948     A.U. after    8 cycles
 Optimization completed.
    -- Stationary point found.
 Normal termination of Gaussian 16 at Tue Apr 13 11:55:30 2021.

 ---------------------------------------------------------------------
 #N Geom=AllCheck Guess=TCheck SCRF=Check GenChk RwB97XD/def2TZVP Freq
 ---------------------------------------------------------------------

 Structure from the checkpoint file:  "/beegfs/scratch/user/q/tla25/Gau-342138.chk"
 ------------------------
 0_iteration/TS-122-0.out
 ------------------------
 Charge =  0 Multiplicity = 1

                         Standard orientation:
 ---------------------------------------------------------------------
 Center     Atomic      Atomic             Coordinates (Angstroms)
 Number     Number       Type             X           Y           Z
 ---------------------------------------------------------------------
      1          6           0        0.086819   -1.080170   -0.091049
      2          6           0        0.711416   -2.380020   -0.030352
      3          8           0        1.874187   -2.543895    0.356488
      4          6           0        0.845065    0.080815    0.030254
      5          6           0        1.037189   -0.528814    2.925948
      6          1           0        1.630131   -1.115237    3.629292
      7          1           0        0.597654    0.315684    3.450674
      8          1           0        0.238127   -1.167596    2.537445
      9          7           0        1.836379   -0.068986    1.806200
     10          1           0        2.342957    0.787364    1.987958
     11          1           0        2.466581   -0.799126    1.492893
     12          6           0        0.183721    1.417079    0.145069
     13          6           0        0.409942    2.458299   -0.748914
     14          6           0       -0.278193    3.657403   -0.629753
     15          6           0       -1.193133    3.841737    0.393204
     16          6           0       -1.423006    2.811671    1.295276
     17          6           0       -0.746532    1.612682    1.168008
     18          1           0        1.117187    2.334882   -1.555877
     19          1           0       -0.092834    4.449356   -1.343975
     20          1           0       -1.725576    4.779418    0.487981
     21          1           0       -2.137122    2.939085    2.098671
     22          1           0       -0.960398    0.811866    1.859690
     23         35           0        2.544070    0.174092   -0.983236
     24          6           0       -1.392602   -0.985292   -0.263830
     25          6           0       -2.271826   -1.517031    0.677964
     26          6           0       -3.645079   -1.432561    0.505892
     27          6           0       -4.169366   -0.804594   -0.615073
     28          6           0       -3.307991   -0.272145   -1.564134
     29          6           0       -1.935909   -0.369234   -1.391070
     30          1           0       -1.874482   -1.993625    1.566496
     31          1           0       -4.307326   -1.850030    1.254224
     32          1           0       -5.241323   -0.731512   -0.748425
     33          1           0       -3.705532    0.216183   -2.445299
     34          1           0       -1.268967    0.044283   -2.137955
     35          6           0       -0.093523   -3.600139   -0.423911
     36          1           0       -0.796231   -3.393022   -1.230040
     37          1           0        0.595410   -4.389544   -0.719420
     38          1           0       -0.670779   -3.955678    0.432430
 ---------------------------------------------------------------------

 SCF Done:  E(RwB97XD) =  -3362.82285948     A.U. after    1 cycles

 The electronic state is 1-A.
 Alpha  occ. eigenvalues -- -483.12415 -62.67249 -56.46362 -56.46020 -56.46001
 Alpha  occ. eigenvalues --  -19.21646 -14.46983 -10.39894 -10.36049 -10.31429
 Alpha  occ. eigenvalues --  -10.31311 -10.30033 -10.29699 -10.29649 -10.29544
 Alpha  occ. eigenvalues --  -10.29414 -10.29387 -10.28870 -10.28830 -10.28749
 Alpha  occ. eigenvalues --  -10.28627 -10.28579 -10.27493 -10.27280  -8.81342
 Alpha  occ. eigenvalues --   -6.63469  -6.62392  -6.62330  -2.73854  -2.73562
 Alpha  occ. eigenvalues --   -2.73513  -2.72642  -2.72641  -1.12333  -1.02784
 Alpha  occ. eigenvalues --   -0.98263  -0.96579  -0.93026  -0.88116  -0.86101
 Alpha  occ. eigenvalues --   -0.85465  -0.84887  -0.83121  -0.81142  -0.78271
 Alpha  occ. eigenvalues --   -0.73971  -0.71053  -0.70203  -0.69584  -0.67363
 Alpha  occ. eigenvalues --   -0.63456  -0.62278  -0.61388  -0.58125  -0.56884
 Alpha  occ. eigenvalues --   -0.56429  -0.55768  -0.55240  -0.54374  -0.53736
 Alpha  occ. eigenvalues --   -0.52737  -0.52427  -0.51748  -0.50858  -0.50566
 Alpha  occ. eigenvalues --   -0.49724  -0.48296  -0.47705  -0.47398  -0.46821
 Alpha  occ. eigenvalues --   -0.45782  -0.44947  -0.43712  -0.43360  -0.42522
 Alpha  occ. eigenvalues --   -0.42238  -0.42007  -0.37225  -0.36768  -0.34974
 Alpha  occ. eigenvalues --   -0.34186  -0.33602  -0.32997  -0.32100  -0.27972
 Alpha virt. eigenvalues --   -0.00145   0.03553   0.05164   0.05477   0.06031
 Alpha virt. eigenvalues --    0.07252   0.10953   0.12375   0.13382   0.13597
 Alpha virt. eigenvalues --    0.14257   0.15066   0.15502   0.16270   0.16675

 Mulliken charges:
               1
     1  C   -0.315497
     2  C    0.303398
     3  O   -0.510518
     4  C    0.288324
     5  C   -0.307094
     6  H    0.156831
     7  H    0.162787
     8  H    0.135691
     9  N   -0.345636
    10  H    0.278828
    11  H    0.276790
    12  C    0.093803
    13  C   -0.232599
    14  C   -0.140666
    15  C   -0.132068
    16  C   -0.169582
    17  C   -0.226716
    18  H    0.147000
    19  H    0.144739
    20  H    0.146522
    21  H    0.143584
    22  H    0.181040
    23  Br  -0.132366
    24  C    0.229620
    25  C   -0.270000
    26  C   -0.159152
    27  C   -0.130159
    28  C   -0.171492
    29  C   -0.206867
    30  H    0.164069
    31  H    0.138475
    32  H    0.141795
    33  H    0.138010
    34  H    0.141277
    35  C   -0.390295
    36  H    0.144206
    37  H    0.135561
    38  H    0.148355
 Sum of Mulliken charges =   0.00000

 Dipole moment (field-independent basis, Debye):
    X=             -2.7277    Y=              3.8285    Z=              4.1360  Tot=              6.2613
 Quadrupole moment (field-independent basis, Debye-Ang):
   XX=           -130.0912   YY=           -129.7246   ZZ=           -116.4361
   XY=              7.1317   XZ=              3.5394   YZ=             -2.7675

  Exact polarizability: 352.366 -11.129 340.569 -12.597 -22.257 298.920
 Approx polarizability: 280.916 -10.353 262.988 -13.745 -22.997 255.599

 ******    1 imaginary frequencies (negative Signs) ******

                      1                      2                      3
                      A                      A                      A
 Frequencies --   -352.9634                35.4635                40.8436
 Red. masses --      5.7945                 4.7467                 4.0934
 Frc consts  --      0.4253                 0.0035                 0.0040
 IR Inten    --    491.1445                 0.5353                 0.0817

                      4                      5                      6
                      A                      A                      A
 Frequencies --     61.7601                66.8323                75.6587
 Red. masses --      4.1913                 3.3121                 3.3343
 Frc consts  --      0.0094                 0.0087                 0.0112
 IR Inten    --      0.5234                 0.7078                 1.5057

                      7                      8                      9
                      A                      A                      A
 Frequencies --    103.1239               105.2381               132.0767
 Red. masses --      4.0541                 3.0314                 8.3708
 Frc consts  --      0.0254                 0.0198                 0.0860
 IR Inten    --      0.1871                 2.3982                 4.2355

                     10                     11                     12
                      A                      A                      A
 Frequencies --    136.2543               158.7020               166.8599
 Red. masses --      1.1768                 5.2005                 3.7674
 Frc consts  --      0.0129                 0.0772                 0.0618
 IR Inten    --      0.5446                 3.4311                 2.9846

                     13                     14                     15
                      A                      A                      A
 Frequencies --    195.8288               214.9077               227.0088
 Red. masses --      3.0947                 3.0657                 2.2120
 Frc consts  --      0.0699                 0.0834                 0.0672
 IR Inten    --     10.2279                11.9106                 5.0803

                     16                     17                     18
                      A                      A                      A
 Frequencies --    251.3868               262.0397               283.1067
 Red. masses --      3.2889                 4.2291                 2.7815
 Frc consts  --      0.1225                 0.1711                 0.1314
 IR Inten    --      8.8103                 8.6369                 5.7778

                     19                     20                     21
                      A                      A                      A
 Frequencies --    293.6487               310.6652               378.9630
 Red. masses --      3.6499                 3.9347                 6.9301
 Frc consts  --      0.1854                 0.2237                 0.5864
 IR Inten    --     18.8815                 0.3520                42.5341

                     22                     23                     24
                      A                      A                      A
 Frequencies --    406.7512               425.3076               429.4206
 Red. masses --      4.0377                 2.8882                 2.9701
 Frc consts  --      0.3936                 0.3078                 0.3227
 IR Inten    --     20.4484                 0.4081                 2.7399

                     25                     26                     27
                      A                      A                      A
 Frequencies --    480.6480               518.9662               562.3670
 Red. masses --      4.3128                 3.4365                 3.2296
 Frc consts  --      0.5870                 0.5453                 0.6018
 IR Inten    --     11.7391                24.6888                23.8350

                     28                     29                     30
                      A                      A                      A
 Frequencies --    574.6767               611.0418               633.0174
 Red. masses --      3.2188                 1.7137                 4.9067
 Frc consts  --      0.6263                 0.3770                 1.1584
 IR Inten    --     63.4871                81.3631                58.6455

                     31                     32                     33
                      A                      A                      A
 Frequencies --    635.7037               649.4778               662.2036
 Red. masses --      6.1937                 4.6607                 4.5959
 Frc consts  --      1.4747                 1.1583                 1.1874
 IR Inten    --      6.1740                83.8977                16.4543

                     34                     35                     36
                      A                      A                      A
 Frequencies --    698.8625               727.4424               729.2340
 Red. masses --      3.9350                 1.6435                 1.5651
 Frc consts  --      1.1323                 0.5124                 0.4904
 IR Inten    --     31.2678                53.8456               138.7891

                     37                     38                     39
                      A                      A                      A
 Frequencies --    764.6506               799.2819               823.0617
 Red. masses --      3.0026                 2.0949                 3.2401
 Frc consts  --      1.0344                 0.7885                 1.2932
 IR Inten    --    102.4832                10.7151                84.5035

                     40                     41                     42
                      A                      A                      A
 Frequencies --    859.1588               878.9689               880.7180
 Red. masses --      5.3261                 1.2467                 1.2459
 Frc consts  --      2.3163                 0.5675                 0.5694
 IR Inten    --     30.5640                 1.4199                 1.3552

                     43                     44                     45
                      A                      A                      A
 Frequencies --    956.6964               971.1694               974.0619
 Red. masses --      1.4532                 1.3739                 1.1364
 Frc consts  --      0.7837                 0.7635                 0.6353
 IR Inten    --      3.3106                27.1114               109.4546

                     46                     47                     48
                      A                      A                      A
 Frequencies --   1005.9449              1013.7824              1021.2970
 Red. masses --      2.5191                 1.3944                 1.7699
 Frc consts  --      1.5019                 0.8444                 1.0877
 IR Inten    --     36.2770                 2.4778                12.8022

                     49                     50                     51
                      A                      A                      A
 Frequencies --   1022.1618              1027.1712              1027.7086
 Red. masses --      1.7287                 5.1647                 2.0630
 Frc consts  --      1.0642                 3.2105                 1.2838
 IR Inten    --      6.8388                 3.2110                 1.0168

                     52                     53                     54
                      A                      A                      A
 Frequencies --   1028.6789              1037.6662              1045.0771
 Red. masses --      2.1472                 1.3307                 1.8044
 Frc consts  --      1.3387                 0.8442                 1.1611
 IR Inten    --      2.2048                 0.0399                 5.7361

                     55                     56                     57
                      A                      A                      A
 Frequencies --   1052.6474              1065.8226              1071.7997
 Red. masses --      1.5044                 2.2163                 1.9531
 Frc consts  --      0.9822                 1.4833                 1.3219
 IR Inten    --     95.3184                16.5066                25.9009

                     58                     59                     60
                      A                      A                      A
 Frequencies --   1098.7334              1111.4735              1128.9171
 Red. masses --      2.7919                 1.5585                 1.6066
 Frc consts  --      1.9858                 1.1344                 1.2064
 IR Inten    --      6.8474                11.4882                 6.8763

                     61                     62                     63
                      A                      A                      A
 Frequencies --   1176.2054              1179.2561              1181.8187
 Red. masses --      3.4706                 1.4321                 1.1409
 Frc consts  --      2.8289                 1.1734                 0.9388
 IR Inten    --     44.3060                24.6739                 0.2944

                     64                     65                     66
                      A                      A                      A
 Frequencies --   1187.9837              1209.5817              1225.4860
 Red. masses --      1.1306                 1.1219                 1.1323
 Frc consts  --      0.9401                 0.9671                 1.0019
 IR Inten    --      0.7921                 0.8212                12.3368

                     67                     68                     69
                      A                      A                      A
 Frequencies --   1262.8893              1308.0412              1322.3251
 Red. masses --      4.0393                 4.4080                 4.6194
 Frc consts  --      3.7957                 4.4436                 4.7589
 IR Inten    --    147.6291                24.6020                14.5471

                     70                     71                     72
                      A                      A                      A
 Frequencies --   1341.4108              1353.2643              1360.1022
 Red. masses --      3.4787                 1.3776                 1.4770
 Frc consts  --      3.6880                 1.4864                 1.6098
 IR Inten    --    357.5474                 0.4676                11.1213

                     73                     74                     75
                      A                      A                      A
 Frequencies --   1371.6374              1390.8033              1412.7480
 Red. masses --      1.4419                 1.4466                 3.4442
 Frc consts  --      1.5983                 1.6487                 4.0501
 IR Inten    --     18.5378                19.4828               908.7720

                     76                     77                     78
                      A                      A                      A
 Frequencies --   1449.1529              1461.4073              1473.0619
 Red. masses --      1.2652                 1.0814                 1.0868
 Frc consts  --      1.5655                 1.3607                 1.3895
 IR Inten    --     51.5478                51.5356                37.9299

                     79                     80                     81
                      A                      A                      A
 Frequencies --   1489.0458              1491.9292              1497.8383
 Red. masses --      2.1975                 2.2673                 1.0459
 Frc consts  --      2.8708                 2.9734                 1.3825
 IR Inten    --     26.6364                45.7673                12.8795

                     82                     83                     84
                      A                      A                      A
 Frequencies --   1501.5202              1542.9841              1547.7645
 Red. masses --      1.0395                 2.3651                 2.2668
 Frc consts  --      1.3809                 3.3175                 3.1995
 IR Inten    --     12.3489                44.1524                10.1674

                     85                     86                     87
                      A                      A                      A
 Frequencies --   1622.2138              1644.5254              1651.2079
 Red. masses --      1.3104                 5.1122                 5.1166
 Frc consts  --      2.0318                 8.1459                 8.2193
 IR Inten    --    249.8658                19.1078                10.8568

                     88                     89                     90
                      A                      A                      A
 Frequencies --   1663.4085              1674.4944              1674.9625
 Red. masses --      4.7621                 5.8736                 5.7734
 Frc consts  --      7.7634                 9.7034                 9.5432
 IR Inten    --    305.5075                41.8505                 1.3305

                     91                     92                     93
                      A                      A                      A
 Frequencies --   3041.4250              3063.3708              3109.5718
 Red. masses --      1.0396                 1.0371                 1.0986
 Frc consts  --      5.6661                 5.7340                 6.2587
 IR Inten    --     43.8881                 8.5473                21.7720

                     94                     95                     96
                      A                      A                      A
 Frequencies --   3136.0656              3163.6838              3167.4762
 Red. masses --      1.0983                 1.1048                 1.1025
 Frc consts  --      6.3641                 6.5153                 6.5172
 IR Inten    --     15.3209                26.2700                18.5332

                     97                     98                     99
                      A                      A                      A
 Frequencies --   3187.5014              3191.9024              3199.9311
 Red. masses --      1.0866                 1.0876                 1.0866
 Frc consts  --      6.5048                 6.5284                 6.5553
 IR Inten    --      9.6771                 1.1154                 0.0580

                    100                    101                    102
                      A                      A                      A
 Frequencies --   3201.2321              3208.5451              3210.0482
 Red. masses --      1.0912                 1.0951                 1.0910
 Frc consts  --      6.5888                 6.6420                 6.6236
 IR Inten    --     13.0135                44.1181                16.6293

                    103                    104                    105
                      A                      A                      A
 Frequencies --   3219.7439              3221.5257              3241.9097
 Red. masses --      1.0988                 1.0964                 1.0923
 Frc consts  --      6.7116                 6.7040                 6.7638
 IR Inten    --     19.8056                26.1392                 4.2140

                    106                    107                    108
                      A                      A                      A
 Frequencies --   3249.8859              3514.8143              3622.8433
 Red. masses --      1.0923                 1.0517                 1.0965
 Frc consts  --      6.7974                 7.6550                 8.4790
 IR Inten    --      5.0123                44.6037                94.3991

 - Thermochemistry -
 -------------------
 Temperature   298.150 Kelvin.  Pressure   1.00000 Atm.
 Atom     1 has atomic number  6 and mass  12.00000

 Molecular mass:   331.05718 amu.
 Principal axes and moments of inertia in atomic units:
                           1         2         3
     Eigenvalues --  5389.391156509.064318962.03931
           X            0.99935  -0.00335   0.03588
           Y            0.00355   0.99998  -0.00542
           Z           -0.03586   0.00555   0.99934
 This molecule is an asymmetric top.
 Rotational symmetry number  1.
 Warning -- assumption of classical behavior for rotation
           may cause significant error
 Rotational temperatures (Kelvin)      0.01607     0.01331     0.00966
 Rotational constants (GHZ):           0.33487     0.27727     0.20138
    1 imaginary frequencies ignored.
 Zero-point vibrational energy     816646.8 (Joules/Mol)
                                  195.18327 (Kcal/Mol)
 Warning -- explicit consideration of  28 degrees of freedom as
           vibrations may cause significant error
 Vibrational temperatures:     51.02    58.76    88.86    96.16   108.86
          (Kelvin)            148.37   151.41   190.03   196.04   228.34
                              240.07   281.75   309.20   326.62   361.69
                              377.02   407.33   422.50   446.98   545.24
                              585.22   611.92   617.84   691.55   746.68
                              809.12   826.83   879.15   910.77   914.64
                              934.45   952.76  1005.51  1046.63  1049.21
                             1100.16  1149.99  1184.20  1236.14  1264.64
                             1267.16  1376.47  1397.30  1401.46  1447.33
                             1458.61  1469.42  1470.66  1477.87  1478.64
                             1480.04  1492.97  1503.63  1514.52  1533.48
                             1542.08  1580.83  1599.16  1624.26  1692.30
                             1696.69  1700.37  1709.24  1740.32  1763.20
                             1817.02  1881.98  1902.53  1929.99  1947.05
                             1956.88  1973.48  2001.06  2032.63  2085.01
                             2102.64  2119.41  2142.40  2146.55  2155.06
                             2160.35  2220.01  2226.89  2334.00  2366.11
                             2375.72  2393.27  2409.22  2409.90  4375.93
                             4407.51  4473.98  4512.10  4551.84  4557.29
                             4586.10  4592.44  4603.99  4605.86  4616.38
                             4618.54  4632.49  4635.06  4664.38  4675.86
                             5057.03  5212.46

 Zero-point correction=                           0.311044 (Hartree/Particle)
 Thermal correction to Energy=                    0.330160
 Thermal correction to Enthalpy=                  0.331105
 Thermal correction to Gibbs Free Energy=         0.262629
 Sum of electronic and zero-point Energies=          -3362.511815
 Sum of electronic and thermal Energies=             -3362.492699
 Sum of electronic and thermal Enthalpies=           -3362.491755
 Sum of electronic and thermal Free Energies=        -3362.560230

                     E (Thermal)             CV                S
                      KCal/Mol        Cal/Mol-Kelvin    Cal/Mol-Kelvin
 Total                  207.179             72.075            144.119
 Electronic               0.000              0.000              0.000
 Translational            0.889              2.981             43.286
 Rotational               0.889              2.981             34.107
 Vibrational            205.401             66.114             66.725
 Vibration     1          0.594              1.982              5.498
 Vibration     2          0.594              1.981              5.218
 Vibration     3          0.597              1.973              4.400
 Vibration     4          0.598              1.970              4.245
 Vibration     5          0.599              1.965              4.000
 Vibration     6          0.605              1.947              3.394
 Vibration     7          0.605              1.945              3.355
 Vibration     8          0.612              1.921              2.916
 Vibration     9          0.614              1.917              2.856
 Vibration    10          0.621              1.893              2.565
 Vibration    11          0.624              1.883              2.471
 Vibration    12          0.636              1.846              2.172
 Vibration    13          0.645              1.818              2.002
 Vibration    14          0.651              1.800              1.902
 Vibration    15          0.663              1.760              1.721
 Vibration    16          0.669              1.742              1.648
 Vibration    17          0.682              1.705              1.515
 Vibration    18          0.688              1.686              1.453
 Vibration    19          0.700              1.653              1.359
 Vibration    20          0.749              1.515              1.043
 Vibration    21          0.772              1.456              0.938
 Vibration    22          0.787              1.415              0.874
 Vibration    23          0.791              1.406              0.861
 Vibration    24          0.837              1.293              0.708
 Vibration    25          0.874              1.208              0.612
 Vibration    26          0.918              1.113              0.519
 Vibration    27          0.931              1.086              0.495
 Vibration    28          0.970              1.008              0.431

 Optimization completed.
    -- Stationary point found.
 Normal termination of Gaussian 16 at Tue Apr 13 13:10:29 2021.
