 Gaussian 16, Revision A.03,
 Gaussian 16:  ES64L-G16RevA.03 25-Dec-2016

 ----------------------------------------------------------------------
 # wB97XD def2tzvp, opt=(ts, noeigen, calcfc, maxcycles=70, maxstep=1),
  freq=noraman, scrf=(iefpcm, solvent=water)
 ----------------------------------------------------------------------

 ------------------------
 0_iteration/TS-193-0.out
 ------------------------
 Symbolic Z-matrix:
 Charge =  0 Multiplicity = 1

 SCF Done:  E(RwB97XD) =  -1438.04852609     A.U. after   15 cycles
 SCF Done:  E(RwB97XD) =  -1438.04851692     A.U. after   10 cycles
 SCF Done:  E(RwB97XD) =  -1438.04851094     A.U. after   10 cycles
 SCF Done:  E(RwB97XD) =  -1438.04850858     A.U. after   11 cycles
 SCF Done:  E(RwB97XD) =  -1438.04851273     A.U. after   11 cycles
 SCF Done:  E(RwB97XD) =  -1438.04853145     A.U. after    9 cycles
 SCF Done:  E(RwB97XD) =  -1438.04856833     A.U. after   10 cycles
 SCF Done:  E(RwB97XD) =  -1438.04861225     A.U. after   11 cycles
 SCF Done:  E(RwB97XD) =  -1438.04866264     A.U. after   10 cycles
 SCF Done:  E(RwB97XD) =  -1438.04873786     A.U. after   11 cycles
 SCF Done:  E(RwB97XD) =  -1438.04995699     A.U. after   11 cycles
 SCF Done:  E(RwB97XD) =  -1438.04999173     A.U. after   11 cycles
 SCF Done:  E(RwB97XD) =  -1438.05001698     A.U. after   11 cycles
 SCF Done:  E(RwB97XD) =  -1438.05003468     A.U. after   11 cycles
 SCF Done:  E(RwB97XD) =  -1438.05004084     A.U. after   11 cycles
 SCF Done:  E(RwB97XD) =  -1438.05004065     A.U. after    9 cycles
 SCF Done:  E(RwB97XD) =  -1438.05004009     A.U. after    7 cycles
 SCF Done:  E(RwB97XD) =  -1438.05004034     A.U. after    7 cycles
 SCF Done:  E(RwB97XD) =  -1438.05004021     A.U. after    7 cycles
 Optimization completed.
    -- Stationary point found.
 Normal termination of Gaussian 16 at Thu Feb  4 02:36:27 2021.

 ---------------------------------------------------------------------
 #N Geom=AllCheck Guess=TCheck SCRF=Check GenChk RwB97XD/def2TZVP Freq
 ---------------------------------------------------------------------

 Structure from the checkpoint file:  "/beegfs/scratch/user/q/tla25/Gau-10071.chk"
 ------------------------
 0_iteration/TS-193-0.out
 ------------------------
 Charge =  0 Multiplicity = 1

                         Standard orientation:
 ---------------------------------------------------------------------
 Center     Atomic      Atomic             Coordinates (Angstroms)
 Number     Number       Type             X           Y           Z
 ---------------------------------------------------------------------
      1          6           0        1.261203   -0.552142   -0.389208
      2          6           0        2.575670   -0.364043   -0.886986
      3          8           0        3.406072   -1.245488   -1.099918
      4          6           0        0.341126    0.465494   -0.076807
      5          6           0        2.035556    1.143886    2.047762
      6          1           0        2.181833    1.459938    3.079603
      7          1           0        2.475882    0.158183    1.907818
      8          1           0        2.523210    1.853555    1.382082
      9          7           0        0.616400    1.073594    1.723325
     10          1           0        0.135089    0.441342    2.350805
     11          1           0        0.163065    1.978354    1.791308
     12          6           0       -1.140959    0.181828   -0.044533
     13          6           0       -1.952578    0.634662   -1.080884
     14          6           0       -3.307168    0.340734   -1.099842
     15          6           0       -3.875657   -0.405175   -0.080237
     16          6           0       -3.074287   -0.868060    0.952033
     17          6           0       -1.718994   -0.583838    0.966206
     18          1           0       -1.529230    1.219000   -1.885230
     19          1           0       -3.917595    0.702523   -1.917012
     20          1           0       -4.934783   -0.627634   -0.090546
     21          1           0       -3.500928   -1.459517    1.751540
     22          1           0       -1.119001   -0.995324    1.765653
     23         17           0        0.705205    2.032157   -0.845179
     24         17           0        0.839767   -2.204275    0.013379
     25          1           0        2.831081    0.684264   -1.104371
 ---------------------------------------------------------------------

 SCF Done:  E(RwB97XD) =  -1438.05004021     A.U. after    1 cycles

 The electronic state is 1-A.
 Alpha  occ. eigenvalues -- -101.71198-101.69179 -19.21514 -14.50095 -10.42567
 Alpha  occ. eigenvalues --  -10.35377 -10.32336 -10.32226 -10.32143 -10.30443
 Alpha  occ. eigenvalues --  -10.30143 -10.29811 -10.29757 -10.29699  -9.59801
 Alpha  occ. eigenvalues --   -9.57706  -7.34463  -7.33570  -7.33537  -7.32345
 Alpha  occ. eigenvalues --   -7.31491  -7.31476  -1.11948  -1.06045  -1.00368
 Alpha  occ. eigenvalues --   -0.96979  -0.95400  -0.87762  -0.86159  -0.83310
 Alpha  occ. eigenvalues --   -0.79997  -0.75911  -0.71620  -0.69325  -0.64857
 Alpha  occ. eigenvalues --   -0.63683  -0.61791  -0.59126  -0.58332  -0.57146
 Alpha  occ. eigenvalues --   -0.56098  -0.53896  -0.53404  -0.51926  -0.50684
 Alpha  occ. eigenvalues --   -0.49350  -0.48833  -0.48372  -0.47208  -0.46313
 Alpha  occ. eigenvalues --   -0.44542  -0.43910  -0.42052  -0.41940  -0.40118
 Alpha  occ. eigenvalues --   -0.39359  -0.34593  -0.34418  -0.32995  -0.28591
 Alpha virt. eigenvalues --    0.01264   0.04309   0.05189   0.07194   0.10256
 Alpha virt. eigenvalues --    0.11798   0.13499   0.13994   0.14713   0.15238
 Alpha virt. eigenvalues --    0.16808   0.17180   0.17787   0.18639   0.18942

 Mulliken charges:
               1
     1  C   -0.136234
     2  C    0.046819
     3  O   -0.487437
     4  C    0.184376
     5  C   -0.323917
     6  H    0.173909
     7  H    0.171687
     8  H    0.161732
     9  N   -0.292585
    10  H    0.278789
    11  H    0.298953
    12  C    0.262649
    13  C   -0.261823
    14  C   -0.126568
    15  C   -0.150269
    16  C   -0.146541
    17  C   -0.288247
    18  H    0.152690
    19  H    0.149068
    20  H    0.149150
    21  H    0.149491
    22  H    0.166325
    23  Cl  -0.080803
    24  Cl  -0.146418
    25  H    0.095203
 Sum of Mulliken charges =  -0.00000

 Dipole moment (field-independent basis, Debye):
    X=             -6.6962    Y=              6.9551    Z=              7.4172  Tot=             12.1749
 Quadrupole moment (field-independent basis, Debye-Ang):
   XX=           -106.7194   YY=           -100.3389   ZZ=            -83.6397
   XY=             16.6377   XZ=             12.4670   YZ=             -1.8019

  Exact polarizability: 259.169  -4.789 203.559 -14.006 -10.520 197.456
 Approx polarizability: 200.856  -2.712 174.725  -9.848 -12.753 171.804

 ******    1 imaginary frequencies (negative Signs) ******

                      1                      2                      3
                      A                      A                      A
 Frequencies --   -336.0694                45.8417                58.8805
 Red. masses --      5.6725                 7.3918                 5.4844
 Frc consts  --      0.3775                 0.0092                 0.0112
 IR Inten    --    833.8743                 2.0642                 2.9403

                      4                      5                      6
                      A                      A                      A
 Frequencies --     73.9046                89.9565               114.9801
 Red. masses --      2.7047                 4.6983                 3.9272
 Frc consts  --      0.0087                 0.0224                 0.0306
 IR Inten    --      0.3420                 3.1155                10.4717

                      7                      8                      9
                      A                      A                      A
 Frequencies --    170.2644               186.8580               225.4368
 Red. masses --      1.5773                 2.6914                 9.2527
 Frc consts  --      0.0269                 0.0554                 0.2771
 IR Inten    --      1.0574                 2.6963                 6.6360

                     10                     11                     12
                      A                      A                      A
 Frequencies --    236.0648               251.0999               276.9716
 Red. masses --      8.5453                 3.2922                 4.5656
 Frc consts  --      0.2806                 0.1223                 0.2064
 IR Inten    --      7.3425                 0.8535                 6.6473

                     13                     14                     15
                      A                      A                      A
 Frequencies --    292.4382               313.4757               328.9875
 Red. masses --      4.4782                 4.0295                 5.7676
 Frc consts  --      0.2256                 0.2333                 0.3678
 IR Inten    --      5.7118                24.5430                 2.7218

                     16                     17                     18
                      A                      A                      A
 Frequencies --    385.3737               399.6992               425.3741
 Red. masses --      7.0463                 4.3115                 2.9786
 Frc consts  --      0.6166                 0.4058                 0.3175
 IR Inten    --     29.0999                 9.5481                 0.0374

                     19                     20                     21
                      A                      A                      A
 Frequencies --    508.9249               599.2276               637.2022
 Red. masses --      4.3486                 4.5880                 6.2817
 Frc consts  --      0.6636                 0.9706                 1.5027
 IR Inten    --     13.9832               223.4261                10.4630

                     22                     23                     24
                      A                      A                      A
 Frequencies --    648.9775               666.1147               675.5441
 Red. masses --      5.7986                 1.6363                 5.6276
 Frc consts  --      1.4389                 0.4278                 1.5132
 IR Inten    --     75.8960                 4.9242                35.0630

                     25                     26                     27
                      A                      A                      A
 Frequencies --    729.6182               787.2392               837.2923
 Red. masses --      1.6318                 2.1685                 4.2086
 Frc consts  --      0.5118                 0.7918                 1.7384
 IR Inten    --     88.1551                89.3589               125.9337

                     28                     29                     30
                      A                      A                      A
 Frequencies --    879.4426               907.1869               970.2733
 Red. masses --      1.2488                 5.6680                 1.3859
 Frc consts  --      0.5690                 2.7484                 0.7687
 IR Inten    --      1.5163                38.6415                 1.1519

                     31                     32                     33
                      A                      A                      A
 Frequencies --   1012.3974              1018.3658              1020.0734
 Red. masses --      1.1552                 1.4841                 1.5884
 Frc consts  --      0.6976                 0.9068                 0.9738
 IR Inten    --      3.5901                 5.5993                 6.8341

                     34                     35                     36
                      A                      A                      A
 Frequencies --   1026.7404              1036.8676              1051.5847
 Red. masses --      3.8856                 1.3158                 1.3177
 Frc consts  --      2.4134                 0.8335                 0.8586
 IR Inten    --      1.9988                 7.5495               101.2682

                     37                     38                     39
                      A                      A                      A
 Frequencies --   1075.0170              1082.1373              1132.9577
 Red. masses --      1.8497                 4.8781                 1.5899
 Frc consts  --      1.2595                 3.3657                 1.2024
 IR Inten    --     22.0134                28.0490                 7.8683

                     40                     41                     42
                      A                      A                      A
 Frequencies --   1189.3683              1210.2328              1225.1162
 Red. masses --      1.1327                 3.7808                 1.2082
 Frc consts  --      0.9440                 3.2627                 1.0684
 IR Inten    --      0.5567               133.3003                17.7418

                     43                     44                     45
                      A                      A                      A
 Frequencies --   1239.3210              1246.9906              1322.8643
 Red. masses --      5.2289                 1.3303                 4.7871
 Frc consts  --      4.7318                 1.2188                 4.9358
 IR Inten    --    106.4643                22.1575                38.9811

                     46                     47                     48
                      A                      A                      A
 Frequencies --   1347.9427              1373.2014              1380.6986
 Red. masses --      1.3770                 2.6750                 1.3628
 Frc consts  --      1.4741                 2.9720                 1.5307
 IR Inten    --     17.4453               800.5126                55.2596

                     49                     50                     51
                      A                      A                      A
 Frequencies --   1456.5389              1475.2692              1492.5074
 Red. masses --      1.2346                 1.6925                 2.2579
 Frc consts  --      1.5432                 2.1704                 2.9634
 IR Inten    --     31.3922               136.1559                35.8127

                     52                     53                     54
                      A                      A                      A
 Frequencies --   1497.0014              1503.2809              1548.5456
 Red. masses --      1.0447                 1.0302                 2.1987
 Frc consts  --      1.3794                 1.3716                 3.1064
 IR Inten    --     34.6724                20.9210                 4.8982

                     55                     56                     57
                      A                      A                      A
 Frequencies --   1640.2816              1654.0218              1670.1570
 Red. masses --      1.0945                 5.4415                 8.0214
 Frc consts  --      1.7350                 8.7711                13.1831
 IR Inten    --     57.7386                 5.2659              1121.9701

                     58                     59                     60
                      A                      A                      A
 Frequencies --   1675.3326              3004.3181              3078.2331
 Red. masses --      5.7496                 1.0828                 1.0325
 Frc consts  --      9.5080                 5.7583                 5.7644
 IR Inten    --      1.2196                70.0054                17.7135

                     61                     62                     63
                      A                      A                      A
 Frequencies --   3161.3469              3172.3729              3203.0374
 Red. masses --      1.1053                 1.1060                 1.0864
 Frc consts  --      6.5082                 6.5581                 6.5671
 IR Inten    --      5.2505                 7.5657                 0.2878

                     64                     65                     66
                      A                      A                      A
 Frequencies --   3211.9811              3221.9986              3231.5798
 Red. masses --      1.0898                 1.0937                 1.0946
 Frc consts  --      6.6244                 6.6898                 6.7352
 IR Inten    --      8.2109                26.7194                12.6161

                     67                     68                     69
                      A                      A                      A
 Frequencies --   3235.7335              3531.5144              3615.3408
 Red. masses --      1.0954                 1.0517                 1.0948
 Frc consts  --      6.7571                 7.7276                 8.4310
 IR Inten    --      2.7111                79.6638                52.3935

 - Thermochemistry -
 -------------------
 Temperature   298.150 Kelvin.  Pressure   1.00000 Atm.
 Atom     1 has atomic number  6 and mass  12.00000

 Molecular mass:   231.02177 amu.
 Principal axes and moments of inertia in atomic units:
                           1         2         3
     Eigenvalues --  2328.568584366.179755008.43805
           X            0.99944   0.02615   0.02104
           Y           -0.02679   0.99917   0.03057
           Z           -0.02022  -0.03112   0.99931
 This molecule is an asymmetric top.
 Rotational symmetry number  1.
 Warning -- assumption of classical behavior for rotation
           may cause significant error
 Rotational temperatures (Kelvin)      0.03720     0.01984     0.01729
 Rotational constants (GHZ):           0.77504     0.41335     0.36034
    1 imaginary frequencies ignored.
 Zero-point vibrational energy     508382.5 (Joules/Mol)
                                  121.50634 (Kcal/Mol)
 Warning -- explicit consideration of  19 degrees of freedom as
           vibrations may cause significant error
 Vibrational temperatures:     65.96    84.72   106.33   129.43   165.43
          (Kelvin)            244.97   268.85   324.35   339.64   361.28
                              398.50   420.75   451.02   473.34   554.47
                              575.08   612.02   732.23   862.15   916.79
                              933.73   958.39   971.96  1049.76  1132.66
                             1204.68  1265.32  1305.24  1396.01  1456.61
                             1465.20  1467.66  1477.25  1491.82  1513.00
                             1546.71  1556.95  1630.07  1711.24  1741.26
                             1762.67  1783.11  1794.14  1903.31  1939.39
                             1975.73  1986.52  2095.63  2122.58  2147.39
                             2153.85  2162.89  2228.01  2360.00  2379.77
                             2402.98  2410.43  4322.54  4428.89  4548.47
                             4564.34  4608.46  4621.32  4635.74  4649.52
                             4655.50  5081.06  5201.67

 Zero-point correction=                           0.193633 (Hartree/Particle)
 Thermal correction to Energy=                    0.207398
 Thermal correction to Enthalpy=                  0.208342
 Thermal correction to Gibbs Free Energy=         0.152187
 Sum of electronic and zero-point Energies=          -1437.856408
 Sum of electronic and thermal Energies=             -1437.842643
 Sum of electronic and thermal Enthalpies=           -1437.841698
 Sum of electronic and thermal Free Energies=        -1437.897853

                     E (Thermal)             CV                S
                      KCal/Mol        Cal/Mol-Kelvin    Cal/Mol-Kelvin
 Total                  130.144             50.320            118.188
 Electronic               0.000              0.000              0.000
 Translational            0.889              2.981             42.214
 Rotational               0.889              2.981             32.299
 Vibrational            128.366             44.358             43.675
 Vibration     1          0.595              1.979              4.989
 Vibration     2          0.596              1.974              4.494
 Vibration     3          0.599              1.966              4.047
 Vibration     4          0.602              1.956              3.661
 Vibration     5          0.608              1.937              3.183
 Vibration     6          0.625              1.879              2.433
 Vibration     7          0.632              1.858              2.259
 Vibration     8          0.650              1.802              1.915
 Vibration     9          0.655              1.786              1.832
 Vibration    10          0.663              1.761              1.723
 Vibration    11          0.678              1.716              1.552
 Vibration    12          0.688              1.688              1.460
 Vibration    13          0.701              1.648              1.344
 Vibration    14          0.712              1.618              1.265
 Vibration    15          0.754              1.501              1.018
 Vibration    16          0.766              1.471              0.964
 Vibration    17          0.787              1.415              0.874
 Vibration    18          0.864              1.230              0.636
 Vibration    19          0.957              1.033              0.451

 Optimization completed.
    -- Stationary point found.
 Normal termination of Gaussian 16 at Thu Feb  4 03:19:09 2021.
