 Gaussian 16, Revision A.03,
 Gaussian 16:  ES64L-G16RevA.03 25-Dec-2016

 ----------------------------------------------------------------------
 # wB97XD def2tzvp, opt=(ts, noeigen, calcfc, maxcycles=70, maxstep=3),
  freq=noraman, scrf=(iefpcm, solvent=water)
 ----------------------------------------------------------------------

 ------------------------
 0_iteration/TS-146-0.out
 ------------------------
 Symbolic Z-matrix:
 Charge =  0 Multiplicity = 1

 SCF Done:  E(RwB97XD) =  -5705.37320800     A.U. after   15 cycles
 SCF Done:  E(RwB97XD) =  -5705.37320811     A.U. after    7 cycles
 Optimization completed.
    -- Stationary point found.
 Normal termination of Gaussian 16 at Sun Mar 28 09:31:42 2021.

 ---------------------------------------------------------------------
 #N Geom=AllCheck Guess=TCheck SCRF=Check GenChk RwB97XD/def2TZVP Freq
 ---------------------------------------------------------------------

 Structure from the checkpoint file:  "/beegfs/scratch/user/q/tla25/Gau-60984.chk"
 ------------------------
 0_iteration/TS-146-0.out
 ------------------------
 Charge =  0 Multiplicity = 1

                         Standard orientation:
 ---------------------------------------------------------------------
 Center     Atomic      Atomic             Coordinates (Angstroms)
 Number     Number       Type             X           Y           Z
 ---------------------------------------------------------------------
      1          6           0       -0.980450    0.576712   -0.212114
      2          6           0       -2.406105    0.637918   -0.431667
      3          8           0       -2.957159    1.665080   -0.822480
      4          6           0       -0.159221   -0.488609    0.166122
      5          6           0       -0.894609    0.196012    2.823552
      6          1           0       -1.358861   -0.133216    3.751784
      7          1           0       -0.043498    0.833551    3.048492
      8          1           0       -1.616768    0.773407    2.245683
      9          7           0       -0.469914   -0.945147    2.019083
     10          1           0        0.348305   -1.411322    2.395967
     11          1           0       -1.204004   -1.641985    1.972075
     12          6           0        1.339176   -0.327456    0.079748
     13          6           0        1.923330   -0.433379   -1.182705
     14          6           0        3.282690   -0.248487   -1.351846
     15          6           0        4.089595    0.043364   -0.260042
     16          6           0        3.517971    0.155321    0.994853
     17          6           0        2.151666   -0.025495    1.163891
     18          1           0        1.303557   -0.655589   -2.041545
     19          1           0        3.713492   -0.333973   -2.341045
     20          1           0        5.154782    0.183888   -0.389872
     21          1           0        4.130821    0.389993    1.855382
     22          1           0        1.745727    0.107161    2.155191
     23         35           0       -0.607125   -2.285742   -0.530853
     24         35           0       -0.136708    2.302881   -0.315417
     25          6           0       -3.294818   -0.561983   -0.163776
     26          1           0       -3.333896   -1.199682   -1.047589
     27          1           0       -2.978781   -1.178796    0.673821
     28          1           0       -4.295407   -0.181441    0.031260
 ---------------------------------------------------------------------

 SCF Done:  E(RwB97XD) =  -5705.37320811     A.U. after    1 cycles

 The electronic state is 1-A.
 Alpha  occ. eigenvalues -- -483.13785-483.12005 -62.68616 -62.66822 -56.47744
 Alpha  occ. eigenvalues --  -56.47378 -56.47363 -56.45940 -56.45590 -56.45577
 Alpha  occ. eigenvalues --  -19.21551 -14.50225 -10.41861 -10.36984 -10.32487
 Alpha  occ. eigenvalues --  -10.32224 -10.31901 -10.30331 -10.29957 -10.29751
 Alpha  occ. eigenvalues --  -10.29698 -10.29622 -10.28031  -8.82707  -8.80922
 Alpha  occ. eigenvalues --   -6.64879  -6.63726  -6.63675  -6.63068  -6.61949
 Alpha  occ. eigenvalues --   -6.61912  -2.75254  -2.74940  -2.74900  -2.73967
 Alpha  occ. eigenvalues --   -2.73967  -2.73456  -2.73136  -2.73107  -2.72201
 Alpha  occ. eigenvalues --   -2.72201  -1.12707  -1.05678  -0.98761  -0.94720
 Alpha  occ. eigenvalues --   -0.89437  -0.86700  -0.86060  -0.84289  -0.80367
 Alpha  occ. eigenvalues --   -0.79938  -0.74143  -0.71640  -0.68610  -0.65402
 Alpha  occ. eigenvalues --   -0.62003  -0.59547  -0.58588  -0.57190  -0.56279
 Alpha  occ. eigenvalues --   -0.55784  -0.53998  -0.53129  -0.52257  -0.51680
 Alpha  occ. eigenvalues --   -0.50377  -0.49536  -0.48621  -0.47029  -0.46428
 Alpha  occ. eigenvalues --   -0.45148  -0.44405  -0.43472  -0.43254  -0.39346
 Alpha  occ. eigenvalues --   -0.38153  -0.38064  -0.37015  -0.34608  -0.34105
 Alpha  occ. eigenvalues --   -0.32257  -0.28513
 Alpha virt. eigenvalues --    0.00789   0.02795   0.04641   0.05132   0.09695
 Alpha virt. eigenvalues --    0.09815   0.13209   0.13344   0.14036   0.14295
 Alpha virt. eigenvalues --    0.15954   0.16271   0.17433   0.18128   0.18449

 Mulliken charges:
               1
     1  C   -0.236636
     2  C    0.192215
     3  O   -0.469679
     4  C    0.247752
     5  C   -0.281441
     6  H    0.169001
     7  H    0.159720
     8  H    0.159694
     9  N   -0.341802
    10  H    0.299375
    11  H    0.284760
    12  C    0.183526
    13  C   -0.285173
    14  C   -0.126880
    15  C   -0.137684
    16  C   -0.179984
    17  C   -0.188747
    18  H    0.158503
    19  H    0.148296
    20  H    0.148613
    21  H    0.147038
    22  H    0.139093
    23  Br  -0.097298
    24  Br  -0.141657
    25  C   -0.349705
    26  H    0.155870
    27  H    0.105093
    28  H    0.138139
 Sum of Mulliken charges =  -0.00000

 Dipole moment (field-independent basis, Debye):
    X=              4.2244    Y=             -7.1023    Z=              7.8236  Tot=             11.3797
 Quadrupole moment (field-independent basis, Debye-Ang):
   XX=           -113.6182   YY=           -126.3955   ZZ=            -95.4352
   XY=             15.0927   XZ=             -8.8032   YZ=              0.7571

  Exact polarizability: 291.782   2.035 249.352  11.858  -3.109 241.203
 Approx polarizability: 224.788   2.676 205.935   9.098  -1.653 208.471

 ******    1 imaginary frequencies (negative Signs) ******

                      1                      2                      3
                      A                      A                      A
 Frequencies --   -329.5489                23.8646                59.4947
 Red. masses --      5.5115                 4.1576                 6.7217
 Frc consts  --      0.3527                 0.0014                 0.0140
 IR Inten    --    673.5471                 1.6479                 1.4202

                      4                      5                      6
                      A                      A                      A
 Frequencies --     66.6149                71.5123               107.0266
 Red. masses --      6.3225                 6.0822                 1.2486
 Frc consts  --      0.0165                 0.0183                 0.0084
 IR Inten    --      2.2045                 9.5066                 1.7124

                      7                      8                      9
                      A                      A                      A
 Frequencies --    121.2111               126.2392               163.7413
 Red. masses --      2.7745                 2.9599                 8.6071
 Frc consts  --      0.0240                 0.0278                 0.1360
 IR Inten    --      0.6933                 2.3248                 0.0764

                     10                     11                     12
                      A                      A                      A
 Frequencies --    168.3385               201.4445               207.9690
 Red. masses --      5.5264                 6.6001                 5.3124
 Frc consts  --      0.0923                 0.1578                 0.1354
 IR Inten    --      3.0352                 2.2428                 5.2917

                     13                     14                     15
                      A                      A                      A
 Frequencies --    253.7888               255.4397               276.0615
 Red. masses --      1.3616                 2.5458                 4.4253
 Frc consts  --      0.0517                 0.0979                 0.1987
 IR Inten    --      2.2114                 2.1533                 8.2124

                     16                     17                     18
                      A                      A                      A
 Frequencies --    305.5415               313.4875               341.5280
 Red. masses --      3.3479                 5.3746                 5.3149
 Frc consts  --      0.1841                 0.3112                 0.3653
 IR Inten    --     30.0429                 6.5169                 9.8276

                     19                     20                     21
                      A                      A                      A
 Frequencies --    383.5057               418.7487               506.4807
 Red. masses --      3.9040                 2.8892                 4.3923
 Frc consts  --      0.3383                 0.2985                 0.6638
 IR Inten    --      8.4159                 0.0687                60.2921

                     22                     23                     24
                      A                      A                      A
 Frequencies --    559.2315               588.6212               626.6800
 Red. masses --      4.1381                 4.4145                 2.7986
 Frc consts  --      0.7625                 0.9012                 0.6476
 IR Inten    --    104.1963                76.3026                11.5801

                     25                     26                     27
                      A                      A                      A
 Frequencies --    637.3812               649.8745               696.0719
 Red. masses --      5.9467                 3.0406                 1.8428
 Frc consts  --      1.4234                 0.7566                 0.5261
 IR Inten    --      4.9199                77.6381               118.4574

                     28                     29                     30
                      A                      A                      A
 Frequencies --    713.4770               727.4386               795.5032
 Red. masses --      5.4485                 1.5296                 2.2967
 Frc consts  --      1.6341                 0.4769                 0.8563
 IR Inten    --    157.5738               145.4168                 4.4562

                     31                     32                     33
                      A                      A                      A
 Frequencies --    870.3555               885.2132               910.0903
 Red. masses --      1.2902                 3.9912                 3.7952
 Frc consts  --      0.5758                 1.8427                 1.8521
 IR Inten    --      0.4189                 9.4763                27.3206

                     34                     35                     36
                      A                      A                      A
 Frequencies --    960.2107               998.0166              1012.4982
 Red. masses --      1.4890                 1.1265                 1.3756
 Frc consts  --      0.8089                 0.6611                 0.8309
 IR Inten    --      0.2388                14.1881                 0.2545

                     37                     38                     39
                      A                      A                      A
 Frequencies --   1025.9022              1030.1214              1034.1879
 Red. masses --      4.2560                 1.6936                 1.3247
 Frc consts  --      2.6392                 1.0589                 0.8348
 IR Inten    --     19.0419                84.7850                 3.2033

                     40                     41                     42
                      A                      A                      A
 Frequencies --   1041.9532              1061.2871              1067.8661
 Red. masses --      1.7349                 1.2884                 2.1162
 Frc consts  --      1.1097                 0.8550                 1.4218
 IR Inten    --      9.6745               113.8324                16.5198

                     43                     44                     45
                      A                      A                      A
 Frequencies --   1072.9021              1127.1352              1188.5322
 Red. masses --      4.5573                 1.5684                 1.1524
 Frc consts  --      3.0908                 1.1740                 0.9591
 IR Inten    --     21.9659                 7.0811                 1.6999

                     46                     47                     48
                      A                      A                      A
 Frequencies --   1205.2965              1220.8227              1227.2077
 Red. masses --      3.4817                 1.1442                 1.4090
 Frc consts  --      2.9801                 1.0048                 1.2503
 IR Inten    --    104.6790                 7.1711                25.1567

                     49                     50                     51
                      A                      A                      A
 Frequencies --   1284.3976              1321.6483              1333.4038
 Red. masses --      4.8430                 4.3751                 1.3313
 Frc consts  --      4.7072                 4.5026                 1.3946
 IR Inten    --    192.1828                13.3166                 7.5327

                     52                     53                     54
                      A                      A                      A
 Frequencies --   1362.9662              1391.8635              1404.1217
 Red. masses --      1.4481                 1.4356                 3.5139
 Frc consts  --      1.5850                 1.6386                 4.0817
 IR Inten    --      8.5626               162.7482              1019.6082

                     55                     56                     57
                      A                      A                      A
 Frequencies --   1455.2961              1468.8820              1488.3100
 Red. masses --      1.2065                 1.0913                 1.0890
 Frc consts  --      1.5055                 1.3873                 1.4212
 IR Inten    --     38.3866                 1.4825                 7.8150

                     58                     59                     60
                      A                      A                      A
 Frequencies --   1490.4649              1496.1765              1502.2532
 Red. masses --      1.9678                 1.0709                 1.0725
 Frc consts  --      2.5756                 1.4124                 1.4261
 IR Inten    --     29.5784                19.5485                23.8899

                     61                     62                     63
                      A                      A                      A
 Frequencies --   1544.4690              1652.5476              1661.1272
 Red. masses --      2.2672                 4.4144                 5.1418
 Frc consts  --      3.1864                 7.1028                 8.3593
 IR Inten    --     13.0180                31.5576               678.2311

                     64                     65                     66
                      A                      A                      A
 Frequencies --   1664.8562              1674.8405              3074.0544
 Red. masses --      1.3050                 5.7235                 1.0342
 Frc consts  --      2.1311                 9.4593                 5.7582
 IR Inten    --     64.4688                 0.3830                23.5918

                     67                     68                     69
                      A                      A                      A
 Frequencies --   3079.9566              3151.2743              3156.2719
 Red. masses --      1.0373                 1.1036                 1.1001
 Frc consts  --      5.7976                 6.4569                 6.4569
 IR Inten    --      8.2266                 4.9290                13.0469

                     70                     71                     72
                      A                      A                      A
 Frequencies --   3178.8395              3179.5782              3201.9679
 Red. masses --      1.1055                 1.1017                 1.0863
 Frc consts  --      6.5819                 6.5624                 6.5619
 IR Inten    --     12.3560                34.3775                 0.4442

                     73                     74                     75
                      A                      A                      A
 Frequencies --   3209.5415              3217.9966              3226.9253
 Red. masses --      1.0893                 1.0937                 1.0980
 Frc consts  --      6.6114                 6.6731                 6.7364
 IR Inten    --      4.9277                18.0156                17.9157

                     76                     77                     78
                      A                      A                      A
 Frequencies --   3247.5136              3524.1648              3598.3401
 Red. masses --      1.0922                 1.0517                 1.0956
 Frc consts  --      6.7866                 7.6959                 8.3581
 IR Inten    --     10.0048                58.1516                57.5504

 - Thermochemistry -
 -------------------
 Temperature   298.150 Kelvin.  Pressure   1.00000 Atm.
 Atom     1 has atomic number  6 and mass  12.00000

 Molecular mass:   332.93639 amu.
 Principal axes and moments of inertia in atomic units:
                           1         2         3
     Eigenvalues --  4425.441245083.589607214.08842
           X            0.99984  -0.00298  -0.01757
           Y            0.00286   0.99997  -0.00658
           Z            0.01759   0.00652   0.99982
 This molecule is an asymmetric top.
 Rotational symmetry number  1.
 Warning -- assumption of classical behavior for rotation
           may cause significant error
 Rotational temperatures (Kelvin)      0.01957     0.01704     0.01201
 Rotational constants (GHZ):           0.40781     0.35501     0.25017
    1 imaginary frequencies ignored.
 Zero-point vibrational energy     577497.0 (Joules/Mol)
                                  138.02511 (Kcal/Mol)
 Warning -- explicit consideration of  22 degrees of freedom as
           vibrations may cause significant error
 Vibrational temperatures:     34.34    85.60    95.84   102.89   153.99
          (Kelvin)            174.40   181.63   235.59   242.20   289.83
                              299.22   365.15   367.52   397.19   439.61
                              451.04   491.38   551.78   602.49   728.71
                              804.61   846.89   901.65   917.05   935.02
                             1001.49  1026.53  1046.62  1144.55  1252.25
                             1273.62  1309.42  1381.53  1435.92  1456.76
                             1476.04  1482.11  1487.97  1499.14  1526.96
                             1536.42  1543.67  1621.70  1710.03  1734.15
                             1756.49  1765.68  1847.96  1901.56  1918.47
                             1961.00  2002.58  2020.22  2093.85  2113.39
                             2141.35  2144.45  2152.66  2161.41  2222.15
                             2377.65  2389.99  2395.36  2409.72  4422.88
                             4431.37  4533.98  4541.17  4573.64  4574.70
                             4606.92  4617.81  4629.98  4642.83  4672.45
                             5070.49  5177.21

 Zero-point correction=                           0.219957 (Hartree/Particle)
 Thermal correction to Energy=                    0.235824
 Thermal correction to Enthalpy=                  0.236768
 Thermal correction to Gibbs Free Energy=         0.174595
 Sum of electronic and zero-point Energies=          -5705.153251
 Sum of electronic and thermal Energies=             -5705.137384
 Sum of electronic and thermal Enthalpies=           -5705.136440
 Sum of electronic and thermal Free Energies=        -5705.198614

                     E (Thermal)             CV                S
                      KCal/Mol        Cal/Mol-Kelvin    Cal/Mol-Kelvin
 Total                  147.982             57.037            130.856
 Electronic               0.000              0.000              0.000
 Translational            0.889              2.981             43.303
 Rotational               0.889              2.981             33.450
 Vibrational            146.204             51.076             54.102
 Vibration     1          0.593              1.985              6.283
 Vibration     2          0.597              1.974              4.474
 Vibration     3          0.598              1.970              4.251
 Vibration     4          0.598              1.968              4.111
 Vibration     5          0.606              1.944              3.322
 Vibration     6          0.609              1.932              3.081
 Vibration     7          0.611              1.927              3.003
 Vibration     8          0.623              1.887              2.506
 Vibration     9          0.625              1.881              2.454
 Vibration    10          0.638              1.838              2.120
 Vibration    11          0.641              1.828              2.061
 Vibration    12          0.665              1.756              1.704
 Vibration    13          0.666              1.754              1.693
 Vibration    14          0.678              1.718              1.558
 Vibration    15          0.696              1.663              1.386
 Vibration    16          0.701              1.648              1.344
 Vibration    17          0.721              1.592              1.205
 Vibration    18          0.753              1.505              1.025
 Vibration    19          0.782              1.430              0.896
 Vibration    20          0.862              1.236              0.642
 Vibration    21          0.915              1.120              0.525
 Vibration    22          0.946              1.056              0.470

 Optimization completed.
    -- Stationary point found.
 Normal termination of Gaussian 16 at Sun Mar 28 10:37:11 2021.
