 Gaussian 16, Revision A.03,
 Gaussian 16:  ES64L-G16RevA.03 25-Dec-2016

 ----------------------------------------------------------------------
 # wB97XD def2tzvp, opt=(ts, noeigen, calcfc, maxcycles=70, maxstep=3),
  freq=noraman, scrf=(iefpcm, solvent=water)
 ----------------------------------------------------------------------

 ------------------------
 3_iteration/TS-163-3.out
 ------------------------
 Symbolic Z-matrix:
 Charge =  0 Multiplicity = 1

 SCF Done:  E(RwB97XD) =  -1264.88652524     A.U. after   15 cycles
 Optimization completed.
    -- Stationary point found.
 Normal termination of Gaussian 16 at Sun Feb  7 20:34:55 2021.

 ---------------------------------------------------------------------
 #N Geom=AllCheck Guess=TCheck SCRF=Check GenChk RwB97XD/def2TZVP Freq
 ---------------------------------------------------------------------

 Structure from the checkpoint file:  "/beegfs/scratch/user/q/tla25/Gau-22251.chk"
 ------------------------
 3_iteration/TS-163-3.out
 ------------------------
 Charge =  0 Multiplicity = 1

                         Standard orientation:
 ---------------------------------------------------------------------
 Center     Atomic      Atomic             Coordinates (Angstroms)
 Number     Number       Type             X           Y           Z
 ---------------------------------------------------------------------
      1          6           0       -0.278628   -1.165368   -0.178381
      2          6           0       -0.288159   -2.619218   -0.130641
      3          8           0        0.706635   -3.303275    0.161839
      4          6           0        0.934627   -0.484397   -0.219431
      5          6           0        3.247777   -0.459484    1.670539
      6          1           0        3.663094   -0.865378    2.594999
      7          1           0        3.911675   -0.708929    0.845599
      8          1           0        3.182325    0.624816    1.756709
      9          7           0        1.923733   -0.999235    1.395929
     10          1           0        1.906755   -2.003154    1.220209
     11          1           0        1.269424   -0.802350    2.143169
     12          6           0        0.964658    1.009373   -0.113261
     13          6           0        1.463164    1.820959   -1.124551
     14          6           0        1.422304    3.203409   -1.005671
     15          6           0        0.895509    3.792983    0.131229
     16          6           0        0.404133    2.989837    1.151999
     17          6           0        0.436822    1.613067    1.028289
     18          1           0        1.875051    1.376446   -2.019081
     19          1           0        1.807129    3.818326   -1.809101
     20          1           0        0.868477    4.871033    0.224989
     21          1           0       -0.008864    3.436940    2.047029
     22          1           0        0.027478    1.003820    1.823169
     23         17           0        2.203992   -1.108977   -1.356271
     24          6           0       -1.564093   -0.420148   -0.093281
     25          6           0       -1.961786    0.452235   -1.107941
     26          6           0       -3.151441    1.159354   -1.022931
     27          6           0       -3.985442    0.992920    0.073699
     28          6           0       -3.616979    0.114047    1.082919
     29          6           0       -2.419014   -0.578942    0.999969
     30          1           0       -1.320095    0.581610   -1.970921
     31          1           0       -3.431926    1.836316   -1.820541
     32          1           0       -4.916698    1.541177    0.140119
     33          1           0       -4.258910   -0.023358    1.944369
     34          1           0       -2.130189   -1.248864    1.801679
     35          7           0       -1.459234   -3.247309   -0.427501
     36          1           0       -1.531152   -4.227989   -0.223691
     37          1           0       -2.306710   -2.729603   -0.571161
 ---------------------------------------------------------------------

 SCF Done:  E(RwB97XD) =  -1264.88652524     A.U. after    1 cycles

 The electronic state is 1-A.
 Alpha  occ. eigenvalues -- -101.68724 -19.20327 -14.47187 -14.43846 -10.40160
 Alpha  occ. eigenvalues --  -10.38060 -10.31277 -10.31248 -10.30005 -10.29777
 Alpha  occ. eigenvalues --  -10.29581 -10.29503 -10.29437 -10.29384 -10.28813
 Alpha  occ. eigenvalues --  -10.28762 -10.28672 -10.28547 -10.28471 -10.26680
 Alpha  occ. eigenvalues --   -9.57337  -7.31952  -7.31136  -7.31093  -1.12761
 Alpha  occ. eigenvalues --   -1.03308  -0.99601  -0.98412  -0.96325  -0.95076
 Alpha  occ. eigenvalues --   -0.88861  -0.86253  -0.85653  -0.84773  -0.82001
 Alpha  occ. eigenvalues --   -0.78306  -0.74860  -0.71109  -0.70165  -0.69589
 Alpha  occ. eigenvalues --   -0.68826  -0.64995  -0.62836  -0.62106  -0.61543
 Alpha  occ. eigenvalues --   -0.59237  -0.56995  -0.56507  -0.55859  -0.55041
 Alpha  occ. eigenvalues --   -0.54439  -0.53521  -0.52520  -0.52020  -0.51513
 Alpha  occ. eigenvalues --   -0.50776  -0.50565  -0.48911  -0.48404  -0.47461
 Alpha  occ. eigenvalues --   -0.47381  -0.46108  -0.45142  -0.43961  -0.43201
 Alpha  occ. eigenvalues --   -0.42634  -0.42422  -0.39536  -0.38439  -0.35741
 Alpha  occ. eigenvalues --   -0.35040  -0.34231  -0.33852  -0.33247  -0.32516
 Alpha  occ. eigenvalues --   -0.26749
 Alpha virt. eigenvalues --    0.01297   0.04249   0.05417   0.05738   0.07518
 Alpha virt. eigenvalues --    0.09206   0.10556   0.13095   0.13570   0.13675
 Alpha virt. eigenvalues --    0.13899   0.15308   0.16183   0.16686   0.17391

 Mulliken charges:
               1
     1  C   -0.181036
     2  C    0.311359
     3  O   -0.553046
     4  C    0.246860
     5  C   -0.273633
     6  H    0.149185
     7  H    0.144237
     8  H    0.149242
     9  N   -0.321853
    10  H    0.277910
    11  H    0.261831
    12  C    0.138576
    13  C   -0.234385
    14  C   -0.134902
    15  C   -0.136532
    16  C   -0.151988
    17  C   -0.296866
    18  H    0.140702
    19  H    0.144829
    20  H    0.146302
    21  H    0.144995
    22  H    0.170641
    23  Cl  -0.148695
    24  C    0.132337
    25  C   -0.197255
    26  C   -0.170177
    27  C   -0.138602
    28  C   -0.123279
    29  C   -0.284611
    30  H    0.144187
    31  H    0.137765
    32  H    0.142079
    33  H    0.140217
    34  H    0.142285
    35  N   -0.461153
    36  H    0.264450
    37  H    0.278025
 Sum of Mulliken charges =  -0.00000

 Dipole moment (field-independent basis, Debye):
    X=             -1.0749    Y=              4.1604    Z=              4.3566  Tot=              6.1192
 Quadrupole moment (field-independent basis, Debye-Ang):
   XX=           -113.7628   YY=           -126.2857   ZZ=           -114.1228
   XY=              9.3066   XZ=              4.3234   YZ=             -6.2417

  Exact polarizability: 331.299  -7.531 328.651 -14.406 -11.185 279.228
 Approx polarizability: 254.591 -11.961 258.758 -16.872 -11.455 244.535

 ******    1 imaginary frequencies (negative Signs) ******

                      1                      2                      3
                      A                      A                      A
 Frequencies --   -367.9549                34.3965                42.4849
 Red. masses --      6.2769                 5.0724                 4.3592
 Frc consts  --      0.5007                 0.0035                 0.0046
 IR Inten    --    784.7149                 1.1324                 0.6905

                      4                      5                      6
                      A                      A                      A
 Frequencies --     60.9638                64.7814                78.0848
 Red. masses --      4.0418                 4.1297                 2.8515
 Frc consts  --      0.0089                 0.0102                 0.0102
 IR Inten    --      4.8729                 1.1063                 3.1332

                      7                      8                      9
                      A                      A                      A
 Frequencies --     95.1364               108.6552               131.2810
 Red. masses --      4.2085                 3.6811                 5.8582
 Frc consts  --      0.0224                 0.0256                 0.0595
 IR Inten    --      7.4203                 9.9621                 4.1425

                     10                     11                     12
                      A                      A                      A
 Frequencies --    138.1029               174.7184               195.3698
 Red. masses --      1.6677                 2.1207                 7.7414
 Frc consts  --      0.0187                 0.0381                 0.1741
 IR Inten    --      9.2908                 0.3346                 6.9249

                     13                     14                     15
                      A                      A                      A
 Frequencies --    220.6502               236.2898               240.5945
 Red. masses --      3.9669                 1.4184                 4.6145
 Frc consts  --      0.1138                 0.0467                 0.1574
 IR Inten    --     37.7479               272.7555                28.5448

                     16                     17                     18
                      A                      A                      A
 Frequencies --    268.9055               279.5928               291.3352
 Red. masses --      4.0810                 3.8514                 3.7305
 Frc consts  --      0.1739                 0.1774                 0.1866
 IR Inten    --     29.4411                26.7301                 3.8666

                     19                     20                     21
                      A                      A                      A
 Frequencies --    319.3326               363.0856               387.9886
 Red. masses --      4.8936                 6.3573                 5.7926
 Frc consts  --      0.2940                 0.4938                 0.5138
 IR Inten    --      2.5109                45.3434                37.5122

                     22                     23                     24
                      A                      A                      A
 Frequencies --    419.4507               422.6840               425.7506
 Red. masses --      3.3865                 3.0602                 2.8605
 Frc consts  --      0.3510                 0.3221                 0.3055
 IR Inten    --     13.2203                 4.9766                 0.2638

                     25                     26                     27
                      A                      A                      A
 Frequencies --    480.5223               527.0133               543.0929
 Red. masses --      2.8629                 3.5167                 1.6080
 Frc consts  --      0.3895                 0.5755                 0.2794
 IR Inten    --     33.0660                52.4051                 6.6119

                     28                     29                     30
                      A                      A                      A
 Frequencies --    588.6716               599.6181               634.5334
 Red. masses --      3.2366                 3.7508                 6.0006
 Frc consts  --      0.6608                 0.7945                 1.4235
 IR Inten    --     96.0915                99.6441                16.0786

                     31                     32                     33
                      A                      A                      A
 Frequencies --    638.4020               660.8887               668.9605
 Red. masses --      6.3685                 2.5532                 6.4772
 Frc consts  --      1.5293                 0.6570                 1.7078
 IR Inten    --      2.2644                47.2871                23.8241

                     34                     35                     36
                      A                      A                      A
 Frequencies --    710.6278               727.3787               729.3216
 Red. masses --      1.8796                 1.5552                 1.5147
 Frc consts  --      0.5592                 0.4848                 0.4747
 IR Inten    --     39.5762                66.2037               100.5814

                     37                     38                     39
                      A                      A                      A
 Frequencies --    776.3913               794.3075               803.0837
 Red. masses --      2.4578                 3.8014                 3.2325
 Frc consts  --      0.8729                 1.4131                 1.2283
 IR Inten    --     76.3130                72.9072                54.4524

                     40                     41                     42
                      A                      A                      A
 Frequencies --    834.5260               875.9965               877.0193
 Red. masses --      3.4686                 1.2528                 1.2504
 Frc consts  --      1.4232                 0.5664                 0.5666
 IR Inten    --    129.8533                 1.5579                 2.3088

                     43                     44                     45
                      A                      A                      A
 Frequencies --    898.5413               955.2081               964.0311
 Red. masses --      4.6743                 1.4873                 1.4273
 Frc consts  --      2.2235                 0.7996                 0.7815
 IR Inten    --     31.7420                 4.3392                 3.0013

                     46                     47                     48
                      A                      A                      A
 Frequencies --   1012.5801              1013.6592              1016.6324
 Red. masses --      1.3032                 1.2880                 1.3647
 Frc consts  --      0.7872                 0.7797                 0.8311
 IR Inten    --      2.8216                 3.6319                 0.2712

                     49                     50                     51
                      A                      A                      A
 Frequencies --   1025.6016              1026.5396              1027.0248
 Red. masses --      4.4642                 5.1497                 1.4123
 Frc consts  --      2.7666                 3.1973                 0.8777
 IR Inten    --      1.9025                 2.3441                 0.3612

                     52                     53                     54
                      A                      A                      A
 Frequencies --   1033.9106              1040.1747              1043.9350
 Red. masses --      1.3438                 1.2174                 3.5591
 Frc consts  --      0.8464                 0.7761                 2.2853
 IR Inten    --      3.5084               118.8608                20.0446

                     55                     56                     57
                      A                      A                      A
 Frequencies --   1063.8657              1071.7876              1084.4488
 Red. masses --      2.1614                 1.9640                 3.0778
 Frc consts  --      1.4413                 1.3292                 2.1326
 IR Inten    --     22.2809                53.8176               166.4017

                     58                     59                     60
                      A                      A                      A
 Frequencies --   1098.1555              1109.8362              1122.6550
 Red. masses --      2.1405                 1.5576                 1.5458
 Frc consts  --      1.5209                 1.1304                 1.1479
 IR Inten    --     39.6582                12.6706                 9.4661

                     61                     62                     63
                      A                      A                      A
 Frequencies --   1181.1756              1185.6373              1201.2772
 Red. masses --      1.1323                 1.1331                 2.9146
 Frc consts  --      0.9307                 0.9385                 2.4781
 IR Inten    --      0.8638                 0.8690                44.4738

                     64                     65                     66
                      A                      A                      A
 Frequencies --   1202.8237              1208.1481              1217.0796
 Red. masses --      1.4373                 1.1232                 1.2153
 Frc consts  --      1.2252                 0.9659                 1.0607
 IR Inten    --     35.7120                 0.8224                18.4976

                     67                     68                     69
                      A                      A                      A
 Frequencies --   1302.4223              1311.8366              1324.2215
 Red. masses --      4.4736                 4.5475                 4.1859
 Frc consts  --      4.4711                 4.6109                 4.3247
 IR Inten    --     11.3510                43.1739                15.0548

                     70                     71                     72
                      A                      A                      A
 Frequencies --   1330.8608              1356.7910              1360.5322
 Red. masses --      1.3362                 1.5395                 1.4985
 Frc consts  --      1.3944                 1.6697                 1.6343
 IR Inten    --      3.8864                64.3416                 7.1180

                     73                     74                     75
                      A                      A                      A
 Frequencies --   1379.3759              1436.5751              1458.1483
 Red. masses --      4.0309                 3.9634                 1.2954
 Frc consts  --      4.5187                 4.8192                 1.6228
 IR Inten    --    782.0237               617.6416                83.5298

                     76                     77                     78
                      A                      A                      A
 Frequencies --   1488.4851              1491.3155              1492.5873
 Red. masses --      2.2436                 1.0763                 2.1352
 Frc consts  --      2.9287                 1.4104                 2.8027
 IR Inten    --     29.7367                28.5359                37.1290

                     79                     80                     81
                      A                      A                      A
 Frequencies --   1498.4185              1540.8030              1545.3991
 Red. masses --      1.0384                 2.3565                 2.4084
 Frc consts  --      1.3737                 3.2962                 3.3890
 IR Inten    --     20.9878                46.1159                25.9857

                     82                     83                     84
                      A                      A                      A
 Frequencies --   1607.5794              1640.7115              1646.7433
 Red. masses --      1.4838                 4.0917                 2.9323
 Frc consts  --      2.2593                 6.4896                 4.6851
 IR Inten    --    346.5054               176.0178               414.2754

                     85                     86                     87
                      A                      A                      A
 Frequencies --   1653.2963              1661.2547              1670.5867
 Red. masses --      3.6050                 1.5593                 5.7572
 Frc consts  --      5.8057                 2.5354                 9.4667
 IR Inten    --     42.5010               240.4391                 3.6863

                     88                     89                     90
                      A                      A                      A
 Frequencies --   1675.2557              3059.4482              3134.3725
 Red. masses --      5.8156                 1.0366                 1.1018
 Frc consts  --      9.6162                 5.7167                 6.3774
 IR Inten    --      2.3297                67.3531                18.0358

                     91                     92                     93
                      A                      A                      A
 Frequencies --   3167.8379              3187.0531              3192.1640
 Red. masses --      1.1039                 1.0867                 1.0874
 Frc consts  --      6.5270                 6.5035                 6.5286
 IR Inten    --     12.0569                 9.0362                 0.4699

                     94                     95                     96
                      A                      A                      A
 Frequencies --   3199.0516              3201.8301              3206.9319
 Red. masses --      1.0861                 1.0914                 1.0892
 Frc consts  --      6.5488                 6.5920                 6.5997
 IR Inten    --      0.7799                14.4430                 5.7084

                     97                     98                     99
                      A                      A                      A
 Frequencies --   3208.5832              3215.9981              3219.4132
 Red. masses --      1.0950                 1.0933                 1.0988
 Frc consts  --      6.6418                 6.6623                 6.7100
 IR Inten    --     44.4046                27.6223                20.3410

                    100                    101                    102
                      A                      A                      A
 Frequencies --   3224.7741              3235.5319              3449.9395
 Red. masses --      1.0973                 1.0939                 1.0620
 Frc consts  --      6.7229                 6.7470                 7.4474
 IR Inten    --     16.2575                 5.1581               124.5585

                    103                    104                    105
                      A                      A                      A
 Frequencies --   3589.8100              3626.3164              3752.1798
 Red. masses --      1.0868                 1.0454                 1.1047
 Frc consts  --      8.2514                 8.0998                 9.1635
 IR Inten    --     49.0995                90.9814                90.7542

 - Thermochemistry -
 -------------------
 Temperature   298.150 Kelvin.  Pressure   1.00000 Atm.
 Atom     1 has atomic number  6 and mass  12.00000

 Molecular mass:   288.10294 amu.
 Principal axes and moments of inertia in atomic units:
                           1         2         3
     Eigenvalues --  4939.866805329.181418234.88370
           X            0.99696   0.07572   0.01831
           Y           -0.07549   0.99706  -0.01313
           Z           -0.01925   0.01171   0.99975
 This molecule is an asymmetric top.
 Rotational symmetry number  1.
 Warning -- assumption of classical behavior for rotation
           may cause significant error
 Rotational temperatures (Kelvin)      0.01753     0.01625     0.01052
 Rotational constants (GHZ):           0.36534     0.33865     0.21916
    1 imaginary frequencies ignored.
 Zero-point vibrational energy     789649.9 (Joules/Mol)
                                  188.73086 (Kcal/Mol)
 Warning -- explicit consideration of  28 degrees of freedom as
           vibrations may cause significant error
 Vibrational temperatures:     49.49    61.13    87.71    93.21   112.35
          (Kelvin)            136.88   156.33   188.88   198.70   251.38
                              281.09   317.47   339.97   346.16   386.90
                              402.27   419.17   459.45   522.40   558.23
                              603.50   608.15   612.56   691.36   758.25
                              781.39   846.97   862.72   912.95   918.52
                              950.87   962.49  1022.43  1046.54  1049.33
                             1117.05  1142.83  1155.46  1200.70  1260.36
                             1261.84  1292.80  1374.33  1387.03  1456.88
                             1458.43  1462.71  1475.61  1476.96  1477.66
                             1487.57  1496.58  1501.99  1530.67  1542.06
                             1560.28  1580.00  1596.81  1615.25  1699.45
                             1705.87  1728.37  1730.59  1738.26  1751.11
                             1873.90  1887.44  1905.26  1914.81  1952.12
                             1957.50  1984.61  2066.91  2097.95  2141.60
                             2145.67  2147.50  2155.89  2216.87  2223.48
                             2312.95  2360.62  2369.30  2378.72  2390.18
                             2403.60  2410.32  4401.86  4509.66  4557.81
                             4585.46  4592.81  4602.72  4606.72  4614.06
                             4616.44  4627.10  4632.02  4639.73  4655.21
                             4963.69  5164.94  5217.46  5398.55

 Zero-point correction=                           0.300762 (Hartree/Particle)
 Thermal correction to Energy=                    0.319546
 Thermal correction to Enthalpy=                  0.320491
 Thermal correction to Gibbs Free Energy=         0.253162
 Sum of electronic and zero-point Energies=          -1264.585763
 Sum of electronic and thermal Energies=             -1264.566979
 Sum of electronic and thermal Enthalpies=           -1264.566035
 Sum of electronic and thermal Free Energies=        -1264.633364

                     E (Thermal)             CV                S
                      KCal/Mol        Cal/Mol-Kelvin    Cal/Mol-Kelvin
 Total                  200.518             71.475            141.706
 Electronic               0.000              0.000              0.000
 Translational            0.889              2.981             42.872
 Rotational               0.889              2.981             33.738
 Vibrational            198.741             65.513             65.096
 Vibration     1          0.594              1.983              5.558
 Vibration     2          0.595              1.980              5.140
 Vibration     3          0.597              1.973              4.426
 Vibration     4          0.597              1.971              4.306
 Vibration     5          0.599              1.964              3.938
 Vibration     6          0.603              1.953              3.552
 Vibration     7          0.606              1.942              3.293
 Vibration     8          0.612              1.922              2.927
 Vibration     9          0.614              1.915              2.830
 Vibration    10          0.627              1.874              2.384
 Vibration    11          0.636              1.846              2.176
 Vibration    12          0.647              1.810              1.954
 Vibration    13          0.655              1.785              1.831
 Vibration    14          0.658              1.778              1.798
 Vibration    15          0.673              1.730              1.603
 Vibration    16          0.680              1.711              1.536
 Vibration    17          0.687              1.690              1.466
 Vibration    18          0.705              1.637              1.314
 Vibration    19          0.737              1.548              1.109
 Vibration    20          0.756              1.496              1.008
 Vibration    21          0.782              1.428              0.894
 Vibration    22          0.785              1.421              0.883
 Vibration    23          0.788              1.414              0.873
 Vibration    24          0.837              1.293              0.709
 Vibration    25          0.882              1.190              0.594
 Vibration    26          0.898              1.155              0.559
 Vibration    27          0.946              1.056              0.470
 Vibration    28          0.958              1.033              0.450

 Optimization completed.
    -- Stationary point found.
 Normal termination of Gaussian 16 at Sun Feb  7 23:07:13 2021.
