 Gaussian 16, Revision A.03,
 Gaussian 16:  ES64L-G16RevA.03 25-Dec-2016

 ----------------------------------------------------------------------
 # wB97XD def2tzvp, opt=(ts, noeigen, calcfc, maxcycles=70, maxstep=8),
  freq=noraman, scrf=(iefpcm, solvent=water)
 ----------------------------------------------------------------------

 ------------------------
 1_iteration/TS-162-1.out
 ------------------------
 Symbolic Z-matrix:
 Charge =  0 Multiplicity = 1

 SCF Done:  E(RwB97XD) =  -1248.82018462     A.U. after   15 cycles
 SCF Done:  E(RwB97XD) =  -1248.82018461     A.U. after    8 cycles
 Optimization completed.
    -- Stationary point found.
 Normal termination of Gaussian 16 at Mon Mar 29 11:05:05 2021.

 ---------------------------------------------------------------------
 #N Geom=AllCheck Guess=TCheck SCRF=Check GenChk RwB97XD/def2TZVP Freq
 ---------------------------------------------------------------------

 Structure from the checkpoint file:  "/beegfs/scratch/user/q/tla25/Gau-95239.chk"
 ------------------------
 1_iteration/TS-162-1.out
 ------------------------
 Charge =  0 Multiplicity = 1

                         Standard orientation:
 ---------------------------------------------------------------------
 Center     Atomic      Atomic             Coordinates (Angstroms)
 Number     Number       Type             X           Y           Z
 ---------------------------------------------------------------------
      1          6           0       -1.086514   -0.300653   -0.261801
      2          6           0       -2.412437   -0.865320   -0.279606
      3          8           0       -2.635530   -2.062266   -0.056465
      4          6           0        0.034879   -1.133560   -0.263003
      5          6           0       -0.508555   -1.679627    2.592081
      6          1           0        0.387029   -1.360471    3.119548
      7          1           0       -1.115941   -0.802481    2.350349
      8          1           0       -1.092965   -2.330387    3.244327
      9          7           0       -0.154269   -2.342131    1.351623
     10          1           0        0.654673   -2.944681    1.425858
     11          1           0       -0.948000   -2.850641    0.974518
     12          6           0        1.410192   -0.575272   -0.076133
     13          6           0        1.666833    0.231302    1.033953
     14          6           0        2.915277    0.791669    1.230833
     15          6           0        3.933989    0.566800    0.314414
     16          6           0        3.689319   -0.227654   -0.793047
     17          6           0        2.439637   -0.800278   -0.983763
     18          1           0        0.879203    0.438661    1.742667
     19          1           0        3.091346    1.411075    2.100870
     20          1           0        4.910315    1.009608    0.464364
     21          1           0        4.472887   -0.407789   -1.517808
     22          1           0        2.267331   -1.415586   -1.854543
     23         17           0        0.023823   -2.541475   -1.386829
     24          6           0       -0.918728    1.180163   -0.214110
     25          6           0       -1.425580    1.937525    0.841009
     26          6           0       -1.274747    3.315507    0.873949
     27          6           0       -0.603144    3.967525   -0.150523
     28          6           0       -0.094417    3.229550   -1.210214
     29          6           0       -0.258357    1.853414   -1.242249
     30          1           0       -1.935277    1.437687    1.656469
     31          1           0       -1.674468    3.880232    1.707142
     32          1           0       -0.478175    5.042653   -0.123809
     33          1           0        0.427252    3.727781   -2.018062
     34          1           0        0.136681    1.284431   -2.075236
     35          6           0       -3.594870    0.041722   -0.549578
     36          1           0       -3.349315    0.861688   -1.222944
     37          1           0       -4.401439   -0.558308   -0.967815
     38          1           0       -3.948657    0.477775    0.387291
 ---------------------------------------------------------------------

 SCF Done:  E(RwB97XD) =  -1248.82018461     A.U. after    1 cycles

 The electronic state is 1-A.
 Alpha  occ. eigenvalues -- -101.69232 -19.21434 -14.46894 -10.40369 -10.35921
 Alpha  occ. eigenvalues --  -10.31351 -10.31280 -10.29976 -10.29681 -10.29629
 Alpha  occ. eigenvalues --  -10.29530 -10.29399 -10.29374 -10.28841 -10.28798
 Alpha  occ. eigenvalues --  -10.28717 -10.28575 -10.28530 -10.27280 -10.27205
 Alpha  occ. eigenvalues --   -9.57845  -7.32472  -7.31641  -7.31592  -1.12123
 Alpha  occ. eigenvalues --   -1.03053  -0.98791  -0.96542  -0.95454  -0.89503
 Alpha  occ. eigenvalues --   -0.86604  -0.85654  -0.84850  -0.83044  -0.81406
 Alpha  occ. eigenvalues --   -0.78277  -0.74052  -0.71053  -0.70175  -0.69598
 Alpha  occ. eigenvalues --   -0.67384  -0.63467  -0.62320  -0.61416  -0.58538
 Alpha  occ. eigenvalues --   -0.56905  -0.56544  -0.55824  -0.55274  -0.54394
 Alpha  occ. eigenvalues --   -0.53809  -0.52835  -0.52505  -0.51696  -0.50905
 Alpha  occ. eigenvalues --   -0.50573  -0.50332  -0.48417  -0.47954  -0.47634
 Alpha  occ. eigenvalues --   -0.46989  -0.45859  -0.45349  -0.43877  -0.43421
 Alpha  occ. eigenvalues --   -0.42994  -0.42588  -0.42293  -0.39421  -0.38225
 Alpha  occ. eigenvalues --   -0.35105  -0.34179  -0.33688  -0.32956  -0.32107
 Alpha  occ. eigenvalues --   -0.27879
 Alpha virt. eigenvalues --    0.00106   0.04016   0.05356   0.05593   0.06540
 Alpha virt. eigenvalues --    0.09111   0.11058   0.12491   0.13401   0.13762
 Alpha virt. eigenvalues --    0.14313   0.15392   0.15785   0.16299   0.16799

 Mulliken charges:
               1
     1  C   -0.315358
     2  C    0.291271
     3  O   -0.517877
     4  C    0.309488
     5  C   -0.305275
     6  H    0.160826
     7  H    0.136820
     8  H    0.156220
     9  N   -0.343602
    10  H    0.276852
    11  H    0.272963
    12  C    0.094069
    13  C   -0.233912
    14  C   -0.167827
    15  C   -0.134013
    16  C   -0.136587
    17  C   -0.242718
    18  H    0.185441
    19  H    0.143652
    20  H    0.146306
    21  H    0.144780
    22  H    0.141751
    23  Cl  -0.122078
    24  C    0.226162
    25  C   -0.267273
    26  C   -0.158253
    27  C   -0.129924
    28  C   -0.174410
    29  C   -0.196989
    30  H    0.164698
    31  H    0.138250
    32  H    0.141591
    33  H    0.137798
    34  H    0.141895
    35  C   -0.390577
    36  H    0.143080
    37  H    0.135600
    38  H    0.147156
 Sum of Mulliken charges =  -0.00000

 Dipole moment (field-independent basis, Debye):
    X=              4.2235    Y=              1.6243    Z=              4.2711  Tot=              6.2224
 Quadrupole moment (field-independent basis, Debye-Ang):
   XX=           -124.7344   YY=           -122.7513   ZZ=           -113.6458
   XY=             -8.4952   XZ=             -4.6863   YZ=             -5.9447

  Exact polarizability: 335.654  13.202 330.224 -19.523  14.117 286.707
 Approx polarizability: 258.169  13.325 265.335 -20.344  15.365 247.681

 ******    1 imaginary frequencies (negative Signs) ******

                      1                      2                      3
                      A                      A                      A
 Frequencies --   -359.4088                37.5324                44.0680
 Red. masses --      5.7644                 4.6803                 3.8915
 Frc consts  --      0.4387                 0.0039                 0.0045
 IR Inten    --    541.2791                 0.6016                 0.0681

                      4                      5                      6
                      A                      A                      A
 Frequencies --     66.6133                68.6656                76.5143
 Red. masses --      4.2054                 3.6478                 2.9372
 Frc consts  --      0.0110                 0.0101                 0.0101
 IR Inten    --      1.1281                 1.6471                 2.6016

                      7                      8                      9
                      A                      A                      A
 Frequencies --    105.2462               113.5854               127.3498
 Red. masses --      3.8790                 2.1687                 1.6081
 Frc consts  --      0.0253                 0.0165                 0.0154
 IR Inten    --      0.3392                 3.0553                 5.1917

                     10                     11                     12
                      A                      A                      A
 Frequencies --    135.8729               158.6571               183.5976
 Red. masses --      3.6250                 2.7728                 3.1128
 Frc consts  --      0.0394                 0.0411                 0.0618
 IR Inten    --      3.1104                29.2863                 3.6159

                     13                     14                     15
                      A                      A                      A
 Frequencies --    189.4058               234.5377               247.6765
 Red. masses --      7.1142                 1.7259                 2.7012
 Frc consts  --      0.1504                 0.0559                 0.0976
 IR Inten    --      3.1675                 5.1721                 4.8740

                     16                     17                     18
                      A                      A                      A
 Frequencies --    259.8498               279.2139               298.3890
 Red. masses --      5.2636                 3.4643                 3.6269
 Frc consts  --      0.2094                 0.1591                 0.1903
 IR Inten    --      0.3268                 2.0983                23.1055

                     19                     20                     21
                      A                      A                      A
 Frequencies --    309.4546               356.2190               384.0219
 Red. masses --      3.9109                 8.4645                 7.2592
 Frc consts  --      0.2207                 0.6328                 0.6307
 IR Inten    --      1.2171                23.6487                40.0682

                     22                     23                     24
                      A                      A                      A
 Frequencies --    406.5406               426.1338               429.5994
 Red. masses --      3.9991                 2.8929                 2.9894
 Frc consts  --      0.3894                 0.3095                 0.3251
 IR Inten    --     22.9414                 0.3780                 3.4385

                     25                     26                     27
                      A                      A                      A
 Frequencies --    486.7778               519.6533               567.1032
 Red. masses --      4.3135                 3.5298                 3.2634
 Frc consts  --      0.6022                 0.5616                 0.6184
 IR Inten    --     10.2010                20.4127                21.7025

                     28                     29                     30
                      A                      A                      A
 Frequencies --    577.3058               608.8912               634.6708
 Red. masses --      3.2246                 1.7553                 5.5775
 Frc consts  --      0.6332                 0.3834                 1.3237
 IR Inten    --     80.4779                81.9855                18.1398

                     31                     32                     33
                      A                      A                      A
 Frequencies --    636.3490               658.5742               668.3896
 Red. masses --      6.2891                 4.3449                 4.6061
 Frc consts  --      1.5005                 1.1103                 1.2124
 IR Inten    --      8.2582                86.5751                18.0755

                     34                     35                     36
                      A                      A                      A
 Frequencies --    699.9711               727.6728               729.4932
 Red. masses --      3.8795                 1.6357                 1.5661
 Frc consts  --      1.1199                 0.5103                 0.4910
 IR Inten    --     33.2936                55.7244               146.1814

                     37                     38                     39
                      A                      A                      A
 Frequencies --    773.2111               800.3453               833.9323
 Red. masses --      2.7188                 2.1019                 3.5095
 Frc consts  --      0.9577                 0.7933                 1.4380
 IR Inten    --     81.8523                11.3891                81.9088

                     40                     41                     42
                      A                      A                      A
 Frequencies --    868.1488               878.6232               881.0232
 Red. masses --      5.7821                 1.2473                 1.2481
 Frc consts  --      2.5676                 0.5673                 0.5708
 IR Inten    --     53.3108                 1.8662                 1.5902

                     43                     44                     45
                      A                      A                      A
 Frequencies --    956.4340               971.1950               974.8501
 Red. masses --      1.4553                 1.3912                 1.1220
 Frc consts  --      0.7844                 0.7731                 0.6282
 IR Inten    --      4.5384                19.2115               112.1039

                     46                     47                     48
                      A                      A                      A
 Frequencies --   1005.9174              1013.6651              1021.1276
 Red. masses --      2.3314                 1.3933                 1.4756
 Frc consts  --      1.3900                 0.8435                 0.9065
 IR Inten    --     32.3934                 2.0559                 2.9135

                     49                     50                     51
                      A                      A                      A
 Frequencies --   1023.5653              1027.1611              1027.6582
 Red. masses --      2.2252                 5.0262                 1.9915
 Frc consts  --      1.3736                 3.1244                 1.2392
 IR Inten    --     12.1600                 3.3018                 0.6932

                     52                     53                     54
                      A                      A                      A
 Frequencies --   1029.0672              1037.4387              1045.9062
 Red. masses --      2.2408                 1.3351                 1.8347
 Frc consts  --      1.3981                 0.8466                 1.1825
 IR Inten    --      4.3110                 0.1215                 6.9396

                     55                     56                     57
                      A                      A                      A
 Frequencies --   1057.7852              1065.9721              1073.6163
 Red. masses --      1.4979                 2.2685                 1.8459
 Frc consts  --      0.9875                 1.5187                 1.2536
 IR Inten    --     81.9564                16.3996                29.4188

                     58                     59                     60
                      A                      A                      A
 Frequencies --   1100.2251              1112.5415              1128.6192
 Red. masses --      3.0585                 1.5629                 1.6121
 Frc consts  --      2.1814                 1.1397                 1.2099
 IR Inten    --      8.7435                11.2304                 8.5286

                     61                     62                     63
                      A                      A                      A
 Frequencies --   1176.2594              1181.4340              1183.3043
 Red. masses --      3.4545                 1.1374                 1.4373
 Frc consts  --      2.8160                 0.9354                 1.1857
 IR Inten    --     40.2704                 0.6104                28.0005

                     64                     65                     66
                      A                      A                      A
 Frequencies --   1188.0139              1210.6231              1223.9253
 Red. masses --      1.1280                 1.1225                 1.1293
 Frc consts  --      0.9380                 0.9693                 0.9967
 IR Inten    --      0.4648                 0.8702                10.8536

                     67                     68                     69
                      A                      A                      A
 Frequencies --   1266.9520              1308.0750              1323.8078
 Red. masses --      4.0770                 4.4929                 4.6053
 Frc consts  --      3.8558                 4.5294                 4.7551
 IR Inten    --    140.2485                23.5287                15.5799

                     70                     71                     72
                      A                      A                      A
 Frequencies --   1345.1119              1354.3525              1361.3177
 Red. masses --      2.8324                 1.4901                 1.4959
 Frc consts  --      3.0194                 1.6104                 1.6333
 IR Inten    --    345.7986                 5.4695                13.2927

                     73                     74                     75
                      A                      A                      A
 Frequencies --   1370.4328              1390.0873              1409.3261
 Red. masses --      1.4536                 1.4799                 3.5366
 Frc consts  --      1.6084                 1.6849                 4.1386
 IR Inten    --     29.0275                15.4909               964.2277

                     76                     77                     78
                      A                      A                      A
 Frequencies --   1455.8772              1462.0781              1471.0086
 Red. masses --      1.2226                 1.0775                 1.0954
 Frc consts  --      1.5268                 1.3571                 1.3965
 IR Inten    --     32.1484                43.6670                44.7127

                     79                     80                     81
                      A                      A                      A
 Frequencies --   1489.3878              1493.0637              1496.9836
 Red. masses --      2.2026                 2.2805                 1.0430
 Frc consts  --      2.8787                 2.9953                 1.3771
 IR Inten    --     24.9562                44.2718                14.4816

                     82                     83                     84
                      A                      A                      A
 Frequencies --   1504.4371              1543.9795              1548.1929
 Red. masses --      1.0388                 2.3667                 2.2733
 Frc consts  --      1.3852                 3.3242                 3.2105
 IR Inten    --     10.5107                43.5065                 7.6880

                     85                     86                     87
                      A                      A                      A
 Frequencies --   1614.4234              1643.7648              1651.1920
 Red. masses --      1.3049                 4.9446                 4.9500
 Frc consts  --      2.0038                 7.8715                 7.9516
 IR Inten    --    256.5687                46.2747                62.4253

                     88                     89                     90
                      A                      A                      A
 Frequencies --   1659.0793              1673.6958              1675.6471
 Red. masses --      5.1319                 5.9637                 5.7928
 Frc consts  --      8.3227                 9.8428                 9.5830
 IR Inten    --    286.1857                13.8197                 1.5573

                     91                     92                     93
                      A                      A                      A
 Frequencies --   3045.5652              3063.1535              3111.4296
 Red. masses --      1.0376                 1.0371                 1.1006
 Frc consts  --      5.6703                 5.7332                 6.2776
 IR Inten    --     40.5777                 9.3852                21.5971

                     94                     95                     96
                      A                      A                      A
 Frequencies --   3135.9442              3162.8134              3165.6889
 Red. masses --      1.0984                 1.1048                 1.1026
 Frc consts  --      6.3640                 6.5117                 6.5105
 IR Inten    --     16.4075                26.1679                18.3535

                     97                     98                     99
                      A                      A                      A
 Frequencies --   3187.5524              3191.3755              3200.1392
 Red. masses --      1.0863                 1.0877                 1.0866
 Frc consts  --      6.5030                 6.5270                 6.5560
 IR Inten    --      9.5639                 0.8652                 0.0301

                    100                    101                    102
                      A                      A                      A
 Frequencies --   3201.1252              3207.9916              3209.8987
 Red. masses --      1.0912                 1.0951                 1.0910
 Frc consts  --      6.5883                 6.6400                 6.6229
 IR Inten    --     13.2089                45.0049                16.3747

                    103                    104                    105
                      A                      A                      A
 Frequencies --   3219.3485              3221.8575              3243.3989
 Red. masses --      1.0988                 1.0964                 1.0923
 Frc consts  --      6.7098                 6.7054                 6.7702
 IR Inten    --     19.8233                25.4472                 5.1099

                    106                    107                    108
                      A                      A                      A
 Frequencies --   3248.9070              3491.4595              3614.9489
 Red. masses --      1.0924                 1.0553                 1.0935
 Frc consts  --      6.7934                 7.5798                 8.4191
 IR Inten    --      4.6574                57.4772                98.5370

 - Thermochemistry -
 -------------------
 Temperature   298.150 Kelvin.  Pressure   1.00000 Atm.
 Atom     1 has atomic number  6 and mass  12.00000

 Molecular mass:   287.10769 amu.
 Principal axes and moments of inertia in atomic units:
                           1         2         3
     Eigenvalues --  5131.068705196.678377870.11015
           X            0.97524  -0.22103  -0.00764
           Y            0.22079   0.97502  -0.02438
           Z            0.01284   0.02209   0.99967
 This molecule is an asymmetric top.
 Rotational symmetry number  1.
 Warning -- assumption of classical behavior for rotation
           may cause significant error
 Rotational temperatures (Kelvin)      0.01688     0.01667     0.01101
 Rotational constants (GHZ):           0.35173     0.34729     0.22932
    1 imaginary frequencies ignored.
 Zero-point vibrational energy     818006.8 (Joules/Mol)
                                  195.50832 (Kcal/Mol)
 Warning -- explicit consideration of  28 degrees of freedom as
           vibrations may cause significant error
 Vibrational temperatures:     54.00    63.40    95.84    98.79   110.09
          (Kelvin)            151.43   163.42   183.23   195.49   228.27
                              264.16   272.51   337.45   356.35   373.87
                              401.73   429.32   445.24   512.52   552.52
                              584.92   613.11   618.10   700.36   747.67
                              815.94   830.61   876.06   913.15   915.56
                              947.54   961.66  1007.10  1046.96  1049.58
                             1112.48  1151.52  1199.84  1249.07  1264.14
                             1267.60  1376.10  1397.33  1402.59  1447.29
                             1458.44  1469.17  1472.68  1477.86  1478.57
                             1480.60  1492.64  1504.83  1521.92  1533.70
                             1544.69  1582.98  1600.70  1623.83  1692.37
                             1699.82  1702.51  1709.29  1741.82  1760.96
                             1822.86  1882.03  1904.66  1935.32  1948.61
                             1958.63  1971.75  2000.03  2027.71  2094.68
                             2103.60  2116.45  2142.90  2148.19  2153.83
                             2164.55  2221.44  2227.50  2322.80  2365.01
                             2375.70  2387.05  2408.07  2410.88  4381.89
                             4407.19  4476.65  4511.92  4550.58  4554.72
                             4586.18  4591.68  4604.29  4605.71  4615.58
                             4618.33  4631.92  4635.53  4666.53  4674.45
                             5023.43  5201.11

 Zero-point correction=                           0.311562 (Hartree/Particle)
 Thermal correction to Energy=                    0.330405
 Thermal correction to Enthalpy=                  0.331349
 Thermal correction to Gibbs Free Energy=         0.264074
 Sum of electronic and zero-point Energies=          -1248.508622
 Sum of electronic and thermal Energies=             -1248.489779
 Sum of electronic and thermal Enthalpies=           -1248.488835
 Sum of electronic and thermal Free Energies=        -1248.556111

                     E (Thermal)             CV                S
                      KCal/Mol        Cal/Mol-Kelvin    Cal/Mol-Kelvin
 Total                  207.332             71.655            141.593
 Electronic               0.000              0.000              0.000
 Translational            0.889              2.981             42.862
 Rotational               0.889              2.981             33.706
 Vibrational            205.555             65.693             65.026
 Vibration     1          0.594              1.982              5.385
 Vibration     2          0.595              1.980              5.067
 Vibration     3          0.598              1.970              4.251
 Vibration     4          0.598              1.969              4.191
 Vibration     5          0.599              1.965              3.978
 Vibration     6          0.605              1.945              3.355
 Vibration     7          0.607              1.938              3.207
 Vibration     8          0.611              1.926              2.986
 Vibration     9          0.614              1.918              2.861
 Vibration    10          0.621              1.893              2.566
 Vibration    11          0.631              1.862              2.292
 Vibration    12          0.633              1.854              2.234
 Vibration    13          0.654              1.788              1.844
 Vibration    14          0.661              1.767              1.747
 Vibration    15          0.668              1.746              1.663
 Vibration    16          0.680              1.712              1.538
 Vibration    17          0.691              1.677              1.426
 Vibration    18          0.699              1.656              1.365
 Vibration    19          0.732              1.562              1.139
 Vibration    20          0.753              1.504              1.023
 Vibration    21          0.771              1.456              0.939
 Vibration    22          0.788              1.413              0.871
 Vibration    23          0.791              1.406              0.860
 Vibration    24          0.843              1.279              0.692
 Vibration    25          0.875              1.206              0.611
 Vibration    26          0.923              1.102              0.510
 Vibration    27          0.934              1.080              0.490
 Vibration    28          0.968              1.013              0.435

 Optimization completed.
    -- Stationary point found.
 Normal termination of Gaussian 16 at Mon Mar 29 13:55:00 2021.
