 Gaussian 16, Revision A.03,
 Gaussian 16:  ES64L-G16RevA.03 25-Dec-2016

 ----------------------------------------------------------------------
 # wB97XD def2tzvp, opt=(ts, noeigen, calcfc, maxcycles=70, maxstep=3),
  freq=noraman, scrf=(iefpcm, solvent=water)
 ----------------------------------------------------------------------

 ------------------------
 0_iteration/TS-147-0.out
 ------------------------
 Symbolic Z-matrix:
 Charge =  0 Multiplicity = 1

 SCF Done:  E(RwB97XD) =  -5721.44370060     A.U. after   16 cycles
 SCF Done:  E(RwB97XD) =  -5721.44359026     A.U. after   12 cycles
 SCF Done:  E(RwB97XD) =  -5721.44352873     A.U. after   12 cycles
 SCF Done:  E(RwB97XD) =  -5721.44352054     A.U. after   12 cycles
 SCF Done:  E(RwB97XD) =  -5721.44355221     A.U. after   10 cycles
 SCF Done:  E(RwB97XD) =  -5721.44367329     A.U. after   12 cycles
 SCF Done:  E(RwB97XD) =  -5721.44385769     A.U. after   11 cycles
 SCF Done:  E(RwB97XD) =  -5721.44409635     A.U. after   12 cycles
 SCF Done:  E(RwB97XD) =  -5721.44437316     A.U. after   12 cycles
 SCF Done:  E(RwB97XD) =  -5721.44465899     A.U. after   12 cycles
 SCF Done:  E(RwB97XD) =  -5721.44554160     A.U. after   12 cycles
 SCF Done:  E(RwB97XD) =  -5721.44552790     A.U. after   10 cycles
 SCF Done:  E(RwB97XD) =  -5721.44552354     A.U. after   12 cycles
 SCF Done:  E(RwB97XD) =  -5721.44554834     A.U. after   11 cycles
 SCF Done:  E(RwB97XD) =  -5721.44554860     A.U. after    8 cycles
 SCF Done:  E(RwB97XD) =  -5721.44554751     A.U. after    9 cycles
 SCF Done:  E(RwB97XD) =  -5721.44554834     A.U. after    9 cycles
 SCF Done:  E(RwB97XD) =  -5721.44554846     A.U. after    8 cycles
 SCF Done:  E(RwB97XD) =  -5721.44554860     A.U. after    8 cycles
 Optimization completed.
    -- Stationary point found.
 Normal termination of Gaussian 16 at Sat Mar 27 13:18:29 2021.

 ---------------------------------------------------------------------
 #N Geom=AllCheck Guess=TCheck SCRF=Check GenChk RwB97XD/def2TZVP Freq
 ---------------------------------------------------------------------

 Structure from the checkpoint file:  "/beegfs/scratch/user/q/tla25/Gau-64207.chk"
 ------------------------
 0_iteration/TS-147-0.out
 ------------------------
 Charge =  0 Multiplicity = 1

                         Standard orientation:
 ---------------------------------------------------------------------
 Center     Atomic      Atomic             Coordinates (Angstroms)
 Number     Number       Type             X           Y           Z
 ---------------------------------------------------------------------
      1          6           0       -1.030954    0.462482   -0.186133
      2          6           0       -2.460907    0.175255   -0.196321
      3          8           0       -2.897428   -0.896284    0.243653
      4          6           0       -0.076058   -0.495755    0.086101
      5          6           0       -0.764635   -0.173116    2.878017
      6          1           0        0.159638    0.167141    3.338373
      7          1           0       -1.237569    0.670706    2.372666
      8          1           0       -1.439068   -0.534704    3.654639
      9          7           0       -0.497724   -1.204638    1.885189
     10          1           0        0.135666   -1.926794    2.207226
     11          1           0       -1.372450   -1.630811    1.589566
     12          6           0        1.384463   -0.164392    0.064777
     13          6           0        2.200252   -0.178654    1.186485
     14          6           0        3.546619    0.149208    1.083104
     15          6           0        4.093299    0.488412   -0.141567
     16          6           0        3.284786    0.495817   -1.271671
     17          6           0        1.945811    0.170846   -1.169285
     18          1           0        1.809622   -0.439872    2.156924
     19          1           0        4.164890    0.135344    1.971342
     20          1           0        5.142493    0.742468   -0.219733
     21          1           0        3.699673    0.755371   -2.237129
     22          1           0        1.320685    0.177603   -2.053099
     23         35           0       -0.299077   -2.270917   -0.790702
     24         35           0       -0.501780    2.306002   -0.222043
     25          7           0       -3.306702    1.109789   -0.682902
     26          1           0       -4.292823    0.927396   -0.640166
     27          1           0       -2.986419    1.981770   -1.060798
 ---------------------------------------------------------------------

 SCF Done:  E(RwB97XD) =  -5721.44554860     A.U. after    1 cycles

 The electronic state is 1-A.
 Alpha  occ. eigenvalues -- -483.13059-483.12705 -62.67875 -62.67531 -56.46993
 Alpha  occ. eigenvalues --  -56.46654 -56.46642 -56.46631 -56.46297 -56.46280
 Alpha  occ. eigenvalues --  -19.21337 -14.48013 -14.44740 -10.40617 -10.39487
 Alpha  occ. eigenvalues --  -10.31858 -10.31837 -10.31648 -10.30060 -10.29830
 Alpha  occ. eigenvalues --  -10.29595 -10.29554 -10.29499  -8.81974  -8.81617
 Alpha  occ. eigenvalues --   -6.64121  -6.63773  -6.63001  -6.62964  -6.62648
 Alpha  occ. eigenvalues --   -6.62591  -2.74509  -2.74189  -2.74159  -2.74148
 Alpha  occ. eigenvalues --   -2.73846  -2.73800  -2.73253  -2.73252  -2.72890
 Alpha  occ. eigenvalues --   -2.72890  -1.14006  -1.03726  -1.00600  -0.98395
 Alpha  occ. eigenvalues --   -0.94263  -0.89419  -0.86107  -0.85796  -0.81437
 Alpha  occ. eigenvalues --   -0.78726  -0.75227  -0.71366  -0.69935  -0.65900
 Alpha  occ. eigenvalues --   -0.63566  -0.62365  -0.59331  -0.57756  -0.56876
 Alpha  occ. eigenvalues --   -0.55512  -0.55306  -0.53660  -0.52208  -0.51726
 Alpha  occ. eigenvalues --   -0.51400  -0.50025  -0.48466  -0.47445  -0.45944
 Alpha  occ. eigenvalues --   -0.45038  -0.43720  -0.42681  -0.40132  -0.39046
 Alpha  occ. eigenvalues --   -0.38445  -0.36913  -0.35346  -0.34704  -0.34398
 Alpha  occ. eigenvalues --   -0.32892  -0.28090
 Alpha virt. eigenvalues --    0.00917   0.03510   0.04674   0.06300   0.09701
 Alpha virt. eigenvalues --    0.10838   0.12902   0.13903   0.14757   0.15240
 Alpha virt. eigenvalues --    0.16116   0.16967   0.17255   0.18082   0.19022

 Mulliken charges:
               1
     1  C   -0.318150
     2  C    0.356416
     3  O   -0.531428
     4  C    0.254091
     5  C   -0.278490
     6  H    0.148386
     7  H    0.151093
     8  H    0.156699
     9  N   -0.367627
    10  H    0.289175
    11  H    0.282169
    12  C    0.192766
    13  C   -0.168374
    14  C   -0.165506
    15  C   -0.147598
    16  C   -0.111325
    17  C   -0.311930
    18  H    0.134079
    19  H    0.145799
    20  H    0.147524
    21  H    0.147397
    22  H    0.161535
    23  Br  -0.131755
    24  Br  -0.125604
    25  N   -0.458941
    26  H    0.274352
    27  H    0.275248
 Sum of Mulliken charges =  -0.00000

 Dipole moment (field-independent basis, Debye):
    X=              2.2531    Y=              1.3456    Z=              3.8978  Tot=              4.6989
 Quadrupole moment (field-independent basis, Debye-Ang):
   XX=           -103.9719   YY=           -117.2957   ZZ=            -97.7843
   XY=             -8.0159   XZ=              2.6359   YZ=             -9.0265

  Exact polarizability: 277.241   6.492 245.737  10.947 -13.631 238.897
 Approx polarizability: 214.821   8.844 203.419   7.705 -12.198 203.893

 ******    1 imaginary frequencies (negative Signs) ******

                      1                      2                      3
                      A                      A                      A
 Frequencies --   -354.9782                37.8547                59.3647
 Red. masses --      5.3740                 4.2663                 7.6479
 Frc consts  --      0.3990                 0.0036                 0.0159
 IR Inten    --    507.9809                 0.0965                 1.4703

                      4                      5                      6
                      A                      A                      A
 Frequencies --     71.1486                78.8300               115.4281
 Red. masses --      5.6919                 6.1601                 4.4470
 Frc consts  --      0.0170                 0.0226                 0.0349
 IR Inten    --      0.3906                 3.7886                 2.2618

                      7                      8                      9
                      A                      A                      A
 Frequencies --    133.7105               142.1237               158.6855
 Red. masses --      3.1882                 2.1662                 3.4917
 Frc consts  --      0.0336                 0.0258                 0.0518
 IR Inten    --      0.9300                 4.4079                34.6793

                     10                     11                     12
                      A                      A                      A
 Frequencies --    163.9494               167.5877               210.1165
 Red. masses --      2.0043                 1.6657                 5.1706
 Frc consts  --      0.0317                 0.0276                 0.1345
 IR Inten    --    155.1637                94.6145                34.5887

                     13                     14                     15
                      A                      A                      A
 Frequencies --    213.1070               243.7301               262.8197
 Red. masses --      5.1680                 3.2433                 4.7433
 Frc consts  --      0.1383                 0.1135                 0.1930
 IR Inten    --     22.3835                 5.2185                 7.5566

                     16                     17                     18
                      A                      A                      A
 Frequencies --    303.0939               304.3287               337.2379
 Red. masses --      3.4284                 6.1432                 4.9658
 Frc consts  --      0.1856                 0.3352                 0.3327
 IR Inten    --     17.9658                 9.9684                13.3943

                     19                     20                     21
                      A                      A                      A
 Frequencies --    412.9164               419.1049               505.5496
 Red. masses --      6.0398                 2.8885                 3.7358
 Frc consts  --      0.6067                 0.2989                 0.5625
 IR Inten    --     16.1342                 0.0532                41.4744

                     22                     23                     24
                      A                      A                      A
 Frequencies --    541.2357               566.8481               576.7491
 Red. masses --      2.2800                 1.5057                 3.1272
 Frc consts  --      0.3935                 0.2851                 0.6129
 IR Inten    --     96.6527                59.4422                35.7550

                     25                     26                     27
                      A                      A                      A
 Frequencies --    637.7243               658.2501               669.5016
 Red. masses --      6.1126                 1.7970                 4.4476
 Frc consts  --      1.4647                 0.4588                 1.1746
 IR Inten    --     12.9861               124.4024                74.9846

                     28                     29                     30
                      A                      A                      A
 Frequencies --    720.6189               726.4249               786.6936
 Red. masses --      2.4399                 2.0420                 8.1921
 Frc consts  --      0.7465                 0.6349                 2.9872
 IR Inten    --      0.4184               305.8177                45.0192

                     31                     32                     33
                      A                      A                      A
 Frequencies --    802.5185               870.4977               886.7341
 Red. masses --      2.3554                 1.2523                 5.0701
 Frc consts  --      0.8938                 0.5591                 2.3488
 IR Inten    --      0.5900                 0.3956                 2.5070

                     34                     35                     36
                      A                      A                      A
 Frequencies --    956.2193               988.8434              1012.8734
 Red. masses --      1.4344                 1.0919                 1.3746
 Frc consts  --      0.7727                 0.6290                 0.8309
 IR Inten    --      0.9098                71.5151                 1.4509

                     37                     38                     39
                      A                      A                      A
 Frequencies --   1025.6772              1032.1420              1035.5360
 Red. masses --      5.6217                 1.6249                 2.4213
 Frc consts  --      3.4845                 1.0199                 1.5298
 IR Inten    --      2.6430                 2.3286                10.5941

                     40                     41                     42
                      A                      A                      A
 Frequencies --   1067.0968              1076.5203              1094.1101
 Red. masses --      2.2464                 3.4119                 1.3289
 Frc consts  --      1.5071                 2.3297                 0.9373
 IR Inten    --     13.4968                85.2155                37.0970

                     43                     44                     45
                      A                      A                      A
 Frequencies --   1109.9396              1127.4127              1187.4322
 Red. masses --      2.0891                 1.5896                 1.1446
 Frc consts  --      1.5164                 1.1904                 0.9509
 IR Inten    --     18.1294                 9.8529                 0.3722

                     46                     47                     48
                      A                      A                      A
 Frequencies --   1208.7969              1214.0100              1224.5776
 Red. masses --      1.9799                 2.0157                 1.1582
 Frc consts  --      1.7045                 1.7503                 1.0233
 IR Inten    --     63.2850                32.3870                 0.9075

                     49                     50                     51
                      A                      A                      A
 Frequencies --   1320.0722              1357.8660              1367.5496
 Red. masses --      4.6761                 1.2913                 1.4087
 Frc consts  --      4.8009                 1.4028                 1.5522
 IR Inten    --      1.9469                 9.3448                 5.2626

                     52                     53                     54
                      A                      A                      A
 Frequencies --   1390.7199              1446.6102              1473.0573
 Red. masses --      4.1138                 2.5669                 1.6050
 Frc consts  --      4.6878                 3.1649                 2.0519
 IR Inten    --    615.4940               537.6616               158.5809

                     55                     56                     57
                      A                      A                      A
 Frequencies --   1487.8867              1489.9098              1508.1277
 Red. masses --      1.0420                 2.2052                 1.0401
 Frc consts  --      1.3591                 2.8842                 1.3938
 IR Inten    --     17.5715                33.4453                15.5861

                     58                     59                     60
                      A                      A                      A
 Frequencies --   1548.3551              1614.2935              1633.7910
 Red. masses --      2.4103                 1.6535                 1.1618
 Frc consts  --      3.4046                 2.5388                 1.8271
 IR Inten    --     10.9713               281.9779               330.0964

                     61                     62                     63
                      A                      A                      A
 Frequencies --   1653.2487              1672.3249              1676.0373
 Red. masses --      5.3595                 2.9043                 5.5928
 Frc consts  --      8.6307                 4.7856                 9.2565
 IR Inten    --     18.6717               330.2770                11.0428

                     64                     65                     66
                      A                      A                      A
 Frequencies --   3064.9559              3133.9741              3171.1637
 Red. masses --      1.0344                 1.1037                 1.1038
 Frc consts  --      5.7251                 6.3871                 6.5402
 IR Inten    --     41.4129                12.8907                20.5714

                     67                     68                     69
                      A                      A                      A
 Frequencies --   3199.6013              3206.6722              3215.4699
 Red. masses --      1.0863                 1.0895                 1.0940
 Frc consts  --      6.5523                 6.6004                 6.6645
 IR Inten    --      0.6054                 4.6068                20.7939

                     70                     71                     72
                      A                      A                      A
 Frequencies --   3225.1799              3262.7753              3485.5269
 Red. masses --      1.0984                 1.0912                 1.0547
 Frc consts  --      6.7314                 6.8440                 7.5498
 IR Inten    --     18.6399                10.6456                57.7487

                     73                     74                     75
                      A                      A                      A
 Frequencies --   3593.2415              3633.4115              3762.3278
 Red. masses --      1.0932                 1.0451                 1.1060
 Frc consts  --      8.3161                 8.1290                 9.2241
 IR Inten    --     89.4422               111.4303               101.5551

 - Thermochemistry -
 -------------------
 Temperature   298.150 Kelvin.  Pressure   1.00000 Atm.
 Atom     1 has atomic number  6 and mass  12.00000

 Molecular mass:   333.93164 amu.
 Principal axes and moments of inertia in atomic units:
                           1         2         3
     Eigenvalues --  4420.199445167.623007209.41728
           X            0.99988   0.01304  -0.00781
           Y           -0.01336   0.99906  -0.04126
           Z            0.00727   0.04135   0.99912
 This molecule is an asymmetric top.
 Rotational symmetry number  1.
 Warning -- assumption of classical behavior for rotation
           may cause significant error
 Rotational temperatures (Kelvin)      0.01960     0.01676     0.01201
 Rotational constants (GHZ):           0.40829     0.34924     0.25033
    1 imaginary frequencies ignored.
 Zero-point vibrational energy     548726.0 (Joules/Mol)
                                  131.14866 (Kcal/Mol)
 Warning -- explicit consideration of  23 degrees of freedom as
           vibrations may cause significant error
 Vibrational temperatures:     54.46    85.41   102.37   113.42   166.08
          (Kelvin)            192.38   204.48   228.31   235.89   241.12
                              302.31   306.61   350.67   378.14   436.08
                              437.86   485.21   594.09   603.00   727.37
                              778.72   815.57   829.81   917.54   947.08
                              963.26  1036.81  1045.16  1131.88  1154.65
                             1252.45  1275.81  1375.79  1422.73  1457.30
                             1475.72  1485.02  1489.91  1535.31  1548.87
                             1574.18  1596.96  1622.10  1708.45  1739.19
                             1746.69  1761.89  1899.29  1953.67  1967.60
                             2000.94  2081.35  2119.40  2140.74  2143.65
                             2169.86  2227.74  2322.61  2350.66  2378.66
                             2406.10  2411.44  4409.79  4509.09  4562.60
                             4603.51  4613.69  4626.34  4640.31  4694.41
                             5014.90  5169.87  5227.67  5413.15

 Zero-point correction=                           0.208999 (Hartree/Particle)
 Thermal correction to Energy=                    0.224950
 Thermal correction to Enthalpy=                  0.225894
 Thermal correction to Gibbs Free Energy=         0.164056
 Sum of electronic and zero-point Energies=          -5721.236550
 Sum of electronic and thermal Energies=             -5721.220598
 Sum of electronic and thermal Enthalpies=           -5721.219654
 Sum of electronic and thermal Free Energies=        -5721.281493

                     E (Thermal)             CV                S
                      KCal/Mol        Cal/Mol-Kelvin    Cal/Mol-Kelvin
 Total                  141.158             57.135            130.150
 Electronic               0.000              0.000              0.000
 Translational            0.889              2.981             43.312
 Rotational               0.889              2.981             33.465
 Vibrational            139.381             51.174             53.373
 Vibration     1          0.594              1.982              5.368
 Vibration     2          0.597              1.974              4.478
 Vibration     3          0.598              1.968              4.121
 Vibration     4          0.600              1.963              3.920
 Vibration     5          0.608              1.937              3.176
 Vibration     6          0.613              1.920              2.892
 Vibration     7          0.616              1.911              2.775
 Vibration     8          0.621              1.893              2.565
 Vibration     9          0.623              1.887              2.504
 Vibration    10          0.624              1.882              2.462
 Vibration    11          0.642              1.825              2.043
 Vibration    12          0.644              1.821              2.017
 Vibration    13          0.659              1.773              1.775
 Vibration    14          0.670              1.741              1.643
 Vibration    15          0.695              1.668              1.400
 Vibration    16          0.695              1.665              1.393
 Vibration    17          0.718              1.601              1.225
 Vibration    18          0.777              1.442              0.916
 Vibration    19          0.782              1.429              0.895
 Vibration    20          0.861              1.238              0.644
 Vibration    21          0.896              1.159              0.563
 Vibration    22          0.923              1.103              0.510
 Vibration    23          0.933              1.082              0.491

 Optimization completed.
    -- Stationary point found.
 Normal termination of Gaussian 16 at Sat Mar 27 14:21:00 2021.
