 Gaussian 16, Revision A.03,
 Gaussian 16:  ES64L-G16RevA.03 25-Dec-2016

 ----------------------------------------------------------------------
 # wB97XD def2tzvp, opt=(ts, noeigen, calcfc, maxcycles=70, maxstep=3),
  freq=noraman, scrf=(iefpcm, solvent=water)
 ----------------------------------------------------------------------

 ------------------------
 0_iteration/TS-104-0.out
 ------------------------
 Symbolic Z-matrix:
 Charge =  0 Multiplicity = 1

 SCF Done:  E(RwB97XD) =  -828.518179481     A.U. after   15 cycles
 Optimization completed.
    -- Stationary point found.
 Normal termination of Gaussian 16 at Mon Apr 12 20:54:47 2021.

 ---------------------------------------------------------------------
 #N Geom=AllCheck Guess=TCheck SCRF=Check GenChk RwB97XD/def2TZVP Freq
 ---------------------------------------------------------------------

 Structure from the checkpoint file:  "/beegfs/scratch/user/q/tla25/Gau-425672.chk"
 ------------------------
 0_iteration/TS-104-0.out
 ------------------------
 Charge =  0 Multiplicity = 1

                         Standard orientation:
 ---------------------------------------------------------------------
 Center     Atomic      Atomic             Coordinates (Angstroms)
 Number     Number       Type             X           Y           Z
 ---------------------------------------------------------------------
      1          6           0        0.041000   -1.095911   -0.591903
      2          6           0       -1.323700   -1.472201   -0.627003
      3          8           0       -1.737910   -2.540001   -1.132703
      4          6           0        0.566200    0.091189    0.016197
      5          6           0        0.951910    2.811189   -1.076303
      6          1           0        0.783010    3.445389   -1.946903
      7          1           0        0.467110    3.258889   -0.212103
      8          1           0        2.020610    2.739079   -0.886503
      9          7           0        0.406410    1.467189   -1.288403
     10          1           0       -0.603390    1.498289   -1.376903
     11          1           0        0.753310    1.054789   -2.146503
     12          6           0        2.063000    0.061479    0.262497
     13          6           0        3.017900    0.249080   -0.732603
     14          6           0        4.373000    0.169580   -0.452103
     15          6           0        4.806300   -0.116630    0.833197
     16          6           0        3.867700   -0.321020    1.832397
     17          6           0        2.513600   -0.226920    1.549597
     18          1           0        2.722100    0.449280   -1.753203
     19          1           0        5.091000    0.327670   -1.246703
     20          1           0        5.864200   -0.181830    1.052697
     21          1           0        4.186700   -0.552020    2.840897
     22          1           0        1.802100   -0.394021    2.347097
     23          6           0       -0.152500    0.825789    1.140497
     24          1           0       -0.344300    0.143789    1.967197
     25          1           0        0.468310    1.640389    1.510297
     26          1           0       -1.110590    1.234189    0.835697
     27          6           0        0.986290   -2.021811   -1.329503
     28          1           0        1.401900   -1.573011   -2.238203
     29          1           0        1.833990   -2.334921   -0.716103
     30          1           0        0.439690   -2.912311   -1.631303
     31          6           0       -2.423500   -0.597001   -0.083003
     32          6           0       -2.961700   -0.834301    1.177097
     33          6           0       -4.007700   -0.058491    1.651797
     34          6           0       -4.538590    0.956009    0.865197
     35          6           0       -4.028090    1.177309   -0.405503
     36          6           0       -2.979600    0.399499   -0.878003
     37          1           0       -2.542300   -1.617201    1.797897
     38          1           0       -4.409000   -0.242591    2.640697
     39          1           0       -5.352090    1.564909    1.238497
     40          1           0       -4.446790    1.955009   -1.032003
     41          1           0       -2.596300    0.564899   -1.879303
 ---------------------------------------------------------------------

 SCF Done:  E(RwB97XD) =  -828.518179481     A.U. after    1 cycles

 The electronic state is 1-A.
 Alpha  occ. eigenvalues --  -19.19119 -14.49056 -10.36048 -10.34031 -10.31986
 Alpha  occ. eigenvalues --  -10.30701 -10.29469 -10.29469 -10.29306 -10.29266
 Alpha  occ. eigenvalues --  -10.29222 -10.29191 -10.29101 -10.29090 -10.29081
 Alpha  occ. eigenvalues --  -10.28887 -10.28850 -10.28031 -10.25774 -10.25547
 Alpha  occ. eigenvalues --   -1.09566  -1.04601  -0.97510  -0.96566  -0.91915
 Alpha  occ. eigenvalues --   -0.86325  -0.85626  -0.85183  -0.84483  -0.82859
 Alpha  occ. eigenvalues --   -0.79455  -0.75171  -0.73753  -0.70797  -0.70500
 Alpha  occ. eigenvalues --   -0.69917  -0.66869  -0.64007  -0.62803  -0.60711
 Alpha  occ. eigenvalues --   -0.59087  -0.57002  -0.56588  -0.55673  -0.54861
 Alpha  occ. eigenvalues --   -0.54675  -0.53160  -0.52860  -0.52350  -0.51203
 Alpha  occ. eigenvalues --   -0.51043  -0.49402  -0.49332  -0.48688  -0.48438
 Alpha  occ. eigenvalues --   -0.48336  -0.46528  -0.45964  -0.45131  -0.44399
 Alpha  occ. eigenvalues --   -0.43815  -0.43439  -0.42317  -0.42024  -0.41870
 Alpha  occ. eigenvalues --   -0.41137  -0.34065  -0.33950  -0.33801  -0.33585
 Alpha  occ. eigenvalues --   -0.30410  -0.26240
 Alpha virt. eigenvalues --    0.03272   0.04822   0.05049   0.05361   0.06909
 Alpha virt. eigenvalues --    0.09648   0.12382   0.12805   0.13135   0.14020
 Alpha virt. eigenvalues --    0.14644   0.15028   0.15857   0.16388   0.17266

 Mulliken charges:
               1
     1  C   -0.303912
     2  C    0.204245
     3  O   -0.555429
     4  C    0.219380
     5  C   -0.284725
     6  H    0.158535
     7  H    0.161687
     8  H    0.162175
     9  N   -0.306038
    10  H    0.257727
    11  H    0.282824
    12  C    0.312033
    13  C   -0.352434
    14  C   -0.130676
    15  C   -0.154123
    16  C   -0.139982
    17  C   -0.284428
    18  H    0.159176
    19  H    0.143783
    20  H    0.144200
    21  H    0.142912
    22  H    0.148939
    23  C   -0.439406
    24  H    0.156777
    25  H    0.174742
    26  H    0.173559
    27  C   -0.382814
    28  H    0.108115
    29  H    0.124710
    30  H    0.129433
    31  C    0.236235
    32  C   -0.267241
    33  C   -0.126815
    34  C   -0.166104
    35  C   -0.125221
    36  C   -0.326611
    37  H    0.145460
    38  H    0.142446
    39  H    0.143687
    40  H    0.143552
    41  H    0.169627
 Sum of Mulliken charges =  -0.00000

 Dipole moment (field-independent basis, Debye):
    X=              4.9538    Y=             11.1184    Z=              0.4688  Tot=             12.1811
 Quadrupole moment (field-independent basis, Debye-Ang):
   XX=           -115.8179   YY=           -130.9958   ZZ=           -107.9221
   XY=            -13.2567   XZ=             -8.6402   YZ=            -17.4050

  Exact polarizability: 364.051   3.271 284.163  -9.781 -14.541 290.579
 Approx polarizability: 268.856  -1.293 234.983  -7.646 -14.239 251.808

 ******    1 imaginary frequencies (negative Signs) ******

                      1                      2                      3
                      A                      A                      A
 Frequencies --   -352.7610                26.2085                39.1875
 Red. masses --      5.8970                 4.4457                 4.0943
 Frc consts  --      0.4324                 0.0018                 0.0037
 IR Inten    --    948.9173                 1.2581                 4.7165

                      4                      5                      6
                      A                      A                      A
 Frequencies --     54.1314                64.1686                84.2796
 Red. masses --      4.6540                 4.5264                 3.5050
 Frc consts  --      0.0080                 0.0110                 0.0147
 IR Inten    --      2.5097                 3.6525                 1.5609

                      7                      8                      9
                      A                      A                      A
 Frequencies --     92.5272               109.1520               125.9890
 Red. masses --      4.2394                 1.6092                 2.9671
 Frc consts  --      0.0214                 0.0113                 0.0277
 IR Inten    --      2.6576                 2.3577                 5.0575

                     10                     11                     12
                      A                      A                      A
 Frequencies --    145.8946               179.9951               202.2614
 Red. masses --      1.5075                 1.2404                 2.6147
 Frc consts  --      0.0189                 0.0237                 0.0630
 IR Inten    --      0.1879                 0.0603                 1.5370

                     13                     14                     15
                      A                      A                      A
 Frequencies --    217.5022               240.0243               265.1098
 Red. masses --      4.2526                 3.2391                 3.3572
 Frc consts  --      0.1185                 0.1099                 0.1390
 IR Inten    --      1.4548                 3.0610                18.2226

                     16                     17                     18
                      A                      A                      A
 Frequencies --    288.1372               309.3344               342.9959
 Red. masses --      2.6751                 3.6548                 2.7349
 Frc consts  --      0.1309                 0.2061                 0.1896
 IR Inten    --     17.8714                17.7973                 3.9447

                     19                     20                     21
                      A                      A                      A
 Frequencies --    348.9535               380.8678               392.1988
 Red. masses --      1.6698                 3.9061                 2.8065
 Frc consts  --      0.1198                 0.3338                 0.2544
 IR Inten    --      0.7031                19.1083                 3.3852

                     22                     23                     24
                      A                      A                      A
 Frequencies --    401.0394               406.2467               418.7715
 Red. masses --      3.3251                 3.1107                 2.8983
 Frc consts  --      0.3151                 0.3025                 0.2995
 IR Inten    --     15.5491                10.6162                 1.3363

                     25                     26                     27
                      A                      A                      A
 Frequencies --    426.6585               507.9238               533.0542
 Red. masses --      2.9782                 3.8343                 3.2653
 Frc consts  --      0.3194                 0.5828                 0.5467
 IR Inten    --      2.8707                50.1583                92.3188

                     28                     29                     30
                      A                      A                      A
 Frequencies --    574.0006               608.3596               634.8211
 Red. masses --      3.5323                 3.2063                 6.3824
 Frc consts  --      0.6857                 0.6992                 1.5154
 IR Inten    --     91.4337                70.9420                 0.7949

                     31                     32                     33
                      A                      A                      A
 Frequencies --    639.4152               648.8983               688.3855
 Red. masses --      6.3052                 4.2872                 1.4569
 Frc consts  --      1.5188                 1.0636                 0.4068
 IR Inten    --      4.2317                37.3509                54.3968

                     34                     35                     36
                      A                      A                      A
 Frequencies --    699.3486               731.0432               732.8636
 Red. masses --      4.9954                 1.5165                 1.5128
 Frc consts  --      1.4395                 0.4775                 0.4787
 IR Inten    --     15.1325                76.2690               113.8319

                     37                     38                     39
                      A                      A                      A
 Frequencies --    781.3369               792.8858               807.9788
 Red. masses --      6.7212                 2.5722                 2.4475
 Frc consts  --      2.4175                 0.9527                 0.9414
 IR Inten    --     21.0379                11.8357                83.3809

                     40                     41                     42
                      A                      A                      A
 Frequencies --    823.2168               879.8916               883.0918
 Red. masses --      2.9305                 1.2488                 1.2523
 Frc consts  --      1.1701                 0.5697                 0.5754
 IR Inten    --     12.2618                 0.4504                 0.2721

                     43                     44                     45
                      A                      A                      A
 Frequencies --    917.1174               956.7510               960.1689
 Red. masses --      2.1719                 1.4790                 1.4130
 Frc consts  --      1.0763                 0.7976                 0.7675
 IR Inten    --     24.5992                86.3175                 4.9964

                     46                     47                     48
                      A                      A                      A
 Frequencies --   1001.9794              1011.9729              1014.6053
 Red. masses --      1.9444                 1.4139                 1.3696
 Frc consts  --      1.1502                 0.8531                 0.8307
 IR Inten    --    158.7194                10.1362                14.2321

                     49                     50                     51
                      A                      A                      A
 Frequencies --   1020.2806              1025.0844              1027.1925
 Red. masses --      1.3637                 4.5042                 5.0276
 Frc consts  --      0.8364                 2.7886                 3.1255
 IR Inten    --     62.0680                 0.7589                 2.0427

                     52                     53                     54
                      A                      A                      A
 Frequencies --   1029.9143              1031.4446              1046.0930
 Red. masses --      1.3816                 1.3108                 1.8780
 Frc consts  --      0.8634                 0.8216                 1.2109
 IR Inten    --      1.5278                 2.8800               124.7143

                     55                     56                     57
                      A                      A                      A
 Frequencies --   1050.4483              1059.9574              1063.9230
 Red. masses --      1.4545                 1.9467                 1.5559
 Frc consts  --      0.9456                 1.2886                 1.0376
 IR Inten    --     44.9026                 2.7860                 6.2418

                     58                     59                     60
                      A                      A                      A
 Frequencies --   1066.8703              1081.0187              1105.3178
 Red. masses --      2.1480                 1.9284                 1.9908
 Frc consts  --      1.4405                 1.3277                 1.4330
 IR Inten    --      6.2583                45.7238                 4.0252

                     61                     62                     63
                      A                      A                      A
 Frequencies --   1108.5366              1119.2605              1142.5267
 Red. masses --      1.5469                 1.8360                 1.9026
 Frc consts  --      1.1200                 1.3551                 1.4633
 IR Inten    --     12.7235                90.5475                36.6338

                     64                     65                     66
                      A                      A                      A
 Frequencies --   1181.5547              1187.5289              1204.0730
 Red. masses --      1.1392                 1.1323                 1.1230
 Frc consts  --      0.9371                 0.9408                 0.9592
 IR Inten    --      0.1109                 0.2074                 0.6503

                     67                     68                     69
                      A                      A                      A
 Frequencies --   1214.9478              1230.9325              1243.4634
 Red. masses --      3.3593                 1.1548                 1.4383
 Frc consts  --      2.9216                 1.0309                 1.3103
 IR Inten    --     10.5972                 2.7583                52.1100

                     70                     71                     72
                      A                      A                      A
 Frequencies --   1274.0653              1315.7403              1321.4688
 Red. masses --      3.4542                 4.1572                 4.9480
 Frc consts  --      3.3035                 4.2403                 5.0909
 IR Inten    --     13.3244                 1.0990                21.9363

                     73                     74                     75
                      A                      A                      A
 Frequencies --   1344.6787              1356.6771              1375.5380
 Red. masses --      1.3220                 1.4810                 1.5001
 Frc consts  --      1.4084                 1.6060                 1.6723
 IR Inten    --      0.8296                 0.7751                61.7105

                     76                     77                     78
                      A                      A                      A
 Frequencies --   1388.1781              1402.3576              1424.8593
 Red. masses --      3.2018                 1.3379                 1.2589
 Frc consts  --      3.6353                 1.5502                 1.5059
 IR Inten    --    522.1767                 6.3331                45.1686

                     79                     80                     81
                      A                      A                      A
 Frequencies --   1427.9914              1460.0126              1486.3820
 Red. masses --      4.0241                 1.1982                 2.1268
 Frc consts  --      4.8347                 1.5048                 2.7684
 IR Inten    --    598.2611                10.2867                 4.3664

                     82                     83                     84
                      A                      A                      A
 Frequencies --   1489.8857              1492.4689              1495.1302
 Red. masses --      1.6940                 1.1800                 1.1051
 Frc consts  --      2.2155                 1.5486                 1.4554
 IR Inten    --     29.0232               142.5023                27.7696

                     85                     86                     87
                      A                      A                      A
 Frequencies --   1498.2478              1504.4007              1506.4864
 Red. masses --      1.0904                 1.0530                 1.0614
 Frc consts  --      1.4421                 1.4041                 1.4192
 IR Inten    --     24.2133                18.1207                14.4753

                     88                     89                     90
                      A                      A                      A
 Frequencies --   1511.4845              1541.6193              1550.4937
 Red. masses --      1.1077                 2.4502                 2.2240
 Frc consts  --      1.4910                 3.4310                 3.1501
 IR Inten    --    101.5663                 0.7194                18.5707

                     91                     92                     93
                      A                      A                      A
 Frequencies --   1557.8429              1644.5695              1647.4328
 Red. masses --      7.1077                 1.5173                 3.3231
 Frc consts  --     10.1631                 2.4178                 5.3138
 IR Inten    --    981.1409                46.0169                 4.9579

                     94                     95                     96
                      A                      A                      A
 Frequencies --   1654.8186              1674.1909              1678.5104
 Red. masses --      3.2505                 5.9337                 5.5597
 Frc consts  --      5.2445                 9.7991                 9.2289
 IR Inten    --     12.6540                 2.9847                 1.8252

                     97                     98                     99
                      A                      A                      A
 Frequencies --   3025.1057              3073.0692              3083.9754
 Red. masses --      1.0486                 1.0356                 1.0889
 Frc consts  --      5.6535                 5.7619                 6.1017
 IR Inten    --     93.5800                44.7345                52.2407

                    100                    101                    102
                      A                      A                      A
 Frequencies --   3085.2398              3153.2364              3154.4048
 Red. masses --      1.0421                 1.1025                 1.0954
 Frc consts  --      5.8443                 6.4589                 6.4220
 IR Inten    --     21.2538                12.4773                 9.4766

                    103                    104                    105
                      A                      A                      A
 Frequencies --   3156.1906              3177.6994              3177.8443
 Red. masses --      1.1022                 1.0929                 1.1014
 Frc consts  --      6.4692                 6.5021                 6.5531
 IR Inten    --     25.4944                23.0968                 3.3055

                    106                    107                    108
                      A                      A                      A
 Frequencies --   3186.9421              3189.7772              3197.5429
 Red. masses --      1.0999                 1.0871                 1.0858
 Frc consts  --      6.5818                 6.5171                 6.5411
 IR Inten    --     11.7654                 3.5899                 0.9292

                    109                    110                    111
                      A                      A                      A
 Frequencies --   3199.7789              3205.6414              3208.0158
 Red. masses --      1.0902                 1.0891                 1.0946
 Frc consts  --      6.5763                 6.5938                 6.6371
 IR Inten    --      4.6014                 5.2902                40.0672

                    112                    113                    114
                      A                      A                      A
 Frequencies --   3216.3696              3220.1398              3223.9367
 Red. masses --      1.0925                 1.0986                 1.0934
 Frc consts  --      6.6587                 6.7117                 6.6956
 IR Inten    --     30.5249                22.6706                36.1482

                    115                    116                    117
                      A                      A                      A
 Frequencies --   3228.4956              3522.7454              3597.6515
 Red. masses --      1.0973                 1.0527                 1.0946
 Frc consts  --      6.7386                 7.6967                 8.3472
 IR Inten    --      3.1400                25.0982                67.6804

 - Thermochemistry -
 -------------------
 Temperature   298.150 Kelvin.  Pressure   1.00000 Atm.
 Atom     1 has atomic number  6 and mass  12.00000

 Molecular mass:   267.16231 amu.
 Principal axes and moments of inertia in atomic units:
                           1         2         3
     Eigenvalues --  2706.104798725.280989133.43576
           X            0.99995  -0.00824  -0.00630
           Y            0.00772   0.99696  -0.07754
           Z            0.00691   0.07749   0.99697
 This molecule is an asymmetric top.
 Rotational symmetry number  1.
 Warning -- assumption of classical behavior for rotation
           may cause significant error
 Rotational temperatures (Kelvin)      0.03201     0.00993     0.00948
 Rotational constants (GHZ):           0.66691     0.20684     0.19760
    1 imaginary frequencies ignored.
 Zero-point vibrational energy     920768.4 (Joules/Mol)
                                  220.06892 (Kcal/Mol)
 Warning -- explicit consideration of  28 degrees of freedom as
           vibrations may cause significant error
 Vibrational temperatures:     37.71    56.38    77.88    92.32   121.26
          (Kelvin)            133.13   157.05   181.27   209.91   258.97
                              291.01   312.94   345.34   381.43   414.57
                              445.06   493.49   502.07   547.98   564.29
                              577.01   584.50   602.52   613.87   730.79
                              766.95   825.86   875.29   913.37   919.98
                              933.62   990.43  1006.21  1051.81  1054.43
                             1124.17  1140.79  1162.50  1184.43  1265.97
                             1270.57  1319.53  1376.55  1381.47  1441.62
                             1456.00  1459.79  1467.96  1474.87  1477.90
                             1481.82  1484.02  1505.09  1511.36  1525.04
                             1530.75  1534.99  1555.34  1590.31  1594.94
                             1610.37  1643.84  1699.99  1708.59  1732.39
                             1748.04  1771.04  1789.07  1833.10  1893.06
                             1901.30  1934.69  1951.96  1979.09  1997.28
                             2017.68  2050.05  2054.56  2100.63  2138.57
                             2143.61  2147.33  2151.16  2155.64  2164.50
                             2167.50  2174.69  2218.05  2230.81  2241.39
                             2366.17  2370.29  2380.91  2408.79  2415.00
                             4352.45  4421.46  4437.15  4438.97  4536.80
                             4538.48  4541.05  4572.00  4572.21  4585.30
                             4589.38  4600.55  4603.77  4612.20  4615.62
                             4627.64  4633.06  4638.53  4645.09  5068.44
                             5176.22

 Zero-point correction=                           0.350702 (Hartree/Particle)
 Thermal correction to Energy=                    0.369493
 Thermal correction to Enthalpy=                  0.370437
 Thermal correction to Gibbs Free Energy=         0.303033
 Sum of electronic and zero-point Energies=           -828.167477
 Sum of electronic and thermal Energies=              -828.148686
 Sum of electronic and thermal Enthalpies=            -828.147742
 Sum of electronic and thermal Free Energies=         -828.215147

                     E (Thermal)             CV                S
                      KCal/Mol        Cal/Mol-Kelvin    Cal/Mol-Kelvin
 Total                  231.860             72.715            141.865
 Electronic               0.000              0.000              0.000
 Translational            0.889              2.981             42.647
 Rotational               0.889              2.981             33.733
 Vibrational            230.083             66.754             65.485
 Vibration     1          0.593              1.985              6.098
 Vibration     2          0.594              1.981              5.300
 Vibration     3          0.596              1.976              4.660
 Vibration     4          0.597              1.971              4.325
 Vibration     5          0.601              1.960              3.789
 Vibration     6          0.602              1.955              3.606
 Vibration     7          0.606              1.942              3.284
 Vibration     8          0.611              1.927              3.006
 Vibration     9          0.617              1.907              2.725
 Vibration    10          0.629              1.867              2.328
 Vibration    11          0.639              1.837              2.112
 Vibration    12          0.646              1.814              1.980
 Vibration    13          0.657              1.779              1.803
 Vibration    14          0.671              1.737              1.628
 Vibration    15          0.685              1.696              1.485
 Vibration    16          0.699              1.656              1.366
 Vibration    17          0.722              1.590              1.198
 Vibration    18          0.726              1.577              1.171
 Vibration    19          0.751              1.511              1.036
 Vibration    20          0.760              1.487              0.992
 Vibration    21          0.767              1.468              0.959
 Vibration    22          0.771              1.457              0.940
 Vibration    23          0.782              1.429              0.896
 Vibration    24          0.788              1.412              0.870
 Vibration    25          0.863              1.232              0.639
 Vibration    26          0.888              1.177              0.580
 Vibration    27          0.930              1.087              0.497
 Vibration    28          0.967              1.014              0.436

 Optimization completed.
    -- Stationary point found.
 Normal termination of Gaussian 16 at Mon Apr 12 22:11:53 2021.
