 Gaussian 16, Revision A.03,
 Gaussian 16:  ES64L-G16RevA.03 25-Dec-2016

 ----------------------------------------------------------------------
 # wB97XD def2tzvp, opt=(ts, noeigen, calcfc, maxcycles=70, maxstep=5),
  freq=noraman, scrf=(iefpcm, solvent=water)
 ----------------------------------------------------------------------

 ------------------------
 2_iteration/TS-148-2.out
 ------------------------
 Symbolic Z-matrix:
 Charge =  0 Multiplicity = 1

 SCF Done:  E(RwB97XD) =  -5780.61468917     A.U. after   15 cycles
 Optimization completed.
    -- Stationary point found.
 Normal termination of Gaussian 16 at Sun Feb  7 13:52:02 2021.

 ---------------------------------------------------------------------
 #N Geom=AllCheck Guess=TCheck SCRF=Check GenChk RwB97XD/def2TZVP Freq
 ---------------------------------------------------------------------

 Structure from the checkpoint file:  "/beegfs/scratch/user/q/tla25/Gau-28234.chk"
 ------------------------
 2_iteration/TS-148-2.out
 ------------------------
 Charge =  0 Multiplicity = 1

                         Standard orientation:
 ---------------------------------------------------------------------
 Center     Atomic      Atomic             Coordinates (Angstroms)
 Number     Number       Type             X           Y           Z
 ---------------------------------------------------------------------
      1          6           0       -0.712570    0.668818   -0.206669
      2          6           0       -2.153510    0.746127   -0.324949
      3          8           0       -2.786380    1.681127   -0.772819
      4          6           0        0.038730   -0.450232    0.110171
      5          6           0       -0.688070    0.088668    2.847231
      6          1           0       -1.119160    0.914308    2.278371
      7          1           0       -1.383040   -0.194122    3.637141
      8          1           0        0.244630    0.422728    3.294171
      9          7           0       -0.449409   -1.020832    1.932621
     10          1           0        0.192701   -1.714092    2.299771
     11          1           0       -1.322689   -1.485652    1.713051
     12          6           0        1.538480   -0.373721    0.089831
     13          6           0        2.325230   -0.295841    1.229591
     14          6           0        3.706500   -0.188170    1.127331
     15          6           0        4.316580   -0.155420   -0.113829
     16          6           0        3.535490   -0.231110   -1.260219
     17          6           0        2.161780   -0.341271   -1.158759
     18          1           0        1.885840   -0.301231    2.214491
     19          1           0        4.301190   -0.128520    2.029601
     20          1           0        5.392910   -0.072249   -0.191279
     21          1           0        3.998460   -0.204840   -2.238209
     22          1           0        1.559750   -0.397061   -2.056609
     23         35           0       -0.495029   -2.177792   -0.714529
     24         35           0        0.153039    2.367588   -0.311759
     25          8           0       -2.761930   -0.349283    0.171381
     26          6           0       -4.178090   -0.411813    0.029871
     27          1           0       -4.463630   -0.352374   -1.019999
     28          1           0       -4.472329   -1.372284    0.443971
     29          1           0       -4.655980    0.397366    0.581171
 ---------------------------------------------------------------------

 SCF Done:  E(RwB97XD) =  -5780.61468917     A.U. after    1 cycles

 The electronic state is 1-A.
 Alpha  occ. eigenvalues -- -483.13155-483.12644 -62.67981 -62.67457 -56.47108
 Alpha  occ. eigenvalues --  -56.46745 -56.46728 -56.46582 -56.46217 -56.46213
 Alpha  occ. eigenvalues --  -19.29592 -19.22691 -14.49003 -10.41476 -10.41190
 Alpha  occ. eigenvalues --  -10.33259 -10.32190 -10.32020 -10.32017 -10.30182
 Alpha  occ. eigenvalues --  -10.29904 -10.29672 -10.29628 -10.29566  -8.82067
 Alpha  occ. eigenvalues --   -8.81557  -6.64233  -6.63727  -6.63090  -6.63036
 Alpha  occ. eigenvalues --   -6.62558  -6.62546  -2.74608  -2.74299  -2.74256
 Alpha  occ. eigenvalues --   -2.74112  -2.73770  -2.73761  -2.73331  -2.73330
 Alpha  occ. eigenvalues --   -2.72815  -2.72815  -1.21143  -1.11542  -1.04563
 Alpha  occ. eigenvalues --   -0.98647  -0.94797  -0.89681  -0.86456  -0.85955
 Alpha  occ. eigenvalues --   -0.84391  -0.79968  -0.79257  -0.73971  -0.71480
 Alpha  occ. eigenvalues --   -0.68698  -0.65313  -0.63861  -0.61722  -0.58663
 Alpha  occ. eigenvalues --   -0.58092  -0.57673  -0.57188  -0.55855  -0.55184
 Alpha  occ. eigenvalues --   -0.53069  -0.52116  -0.52019  -0.51528  -0.49169
 Alpha  occ. eigenvalues --   -0.48309  -0.47479  -0.45906  -0.45360  -0.44822
 Alpha  occ. eigenvalues --   -0.43733  -0.42994  -0.40306  -0.39653  -0.38056
 Alpha  occ. eigenvalues --   -0.37371  -0.37077  -0.36632  -0.34469  -0.32993
 Alpha  occ. eigenvalues --   -0.28500
 Alpha virt. eigenvalues --    0.00667   0.03460   0.04667   0.05692   0.09611
 Alpha virt. eigenvalues --    0.10308   0.13006   0.13656   0.14306   0.14912
 Alpha virt. eigenvalues --    0.15735   0.16419   0.17304   0.17531   0.18231

 Mulliken charges:
               1
     1  C   -0.327908
     2  C    0.410997
     3  O   -0.459741
     4  C    0.254778
     5  C   -0.275706
     6  H    0.150119
     7  H    0.161463
     8  H    0.154094
     9  N   -0.366548
    10  H    0.296276
    11  H    0.285773
    12  C    0.195893
    13  C   -0.166020
    14  C   -0.175379
    15  C   -0.137326
    16  C   -0.126845
    17  C   -0.294019
    18  H    0.128031
    19  H    0.146055
    20  H    0.148140
    21  H    0.147699
    22  H    0.158966
    23  Br  -0.116433
    24  Br  -0.109019
    25  O   -0.299369
    26  C   -0.199533
    27  H    0.136429
    28  H    0.143670
    29  H    0.135461
 Sum of Mulliken charges =  -0.00000

 Dipole moment (field-independent basis, Debye):
    X=              1.9641    Y=             -5.9296    Z=              7.0561  Tot=              9.4237
 Quadrupole moment (field-independent basis, Debye-Ang):
   XX=           -105.7247   YY=           -131.3317   ZZ=           -102.5874
   XY=             11.6943   XZ=             -6.9111   YZ=             -1.4194

  Exact polarizability: 294.267   3.577 248.837   8.285  -7.716 248.132
 Approx polarizability: 225.521   4.035 205.677   6.810  -6.839 212.643

 ******    1 imaginary frequencies (negative Signs) ******

                      1                      2                      3
                      A                      A                      A
 Frequencies --   -332.0043                26.5120                50.5898
 Red. masses --      5.4715                 4.2137                 5.0109
 Frc consts  --      0.3553                 0.0017                 0.0076
 IR Inten    --    528.9521                 0.4903                 0.8755

                      4                      5                      6
                      A                      A                      A
 Frequencies --     66.1150                71.8860                84.5977
 Red. masses --      5.6826                 5.6179                 3.6731
 Frc consts  --      0.0146                 0.0171                 0.0155
 IR Inten    --      1.8134                 2.9132                 5.4337

                      7                      8                      9
                      A                      A                      A
 Frequencies --    109.5780               127.4629               134.4865
 Red. masses --      3.8270                 1.7069                 2.4812
 Frc consts  --      0.0271                 0.0163                 0.0264
 IR Inten    --      0.8275                 0.2910                 3.7779

                     10                     11                     12
                      A                      A                      A
 Frequencies --    146.8336               159.1184               178.2497
 Red. masses --      1.3040                 8.4651                 2.8040
 Frc consts  --      0.0166                 0.1263                 0.0525
 IR Inten    --      1.7635                 0.2109                 0.8056

                     13                     14                     15
                      A                      A                      A
 Frequencies --    183.3514               200.5440               240.8365
 Red. masses --      3.8002                 5.0174                 3.4718
 Frc consts  --      0.0753                 0.1189                 0.1186
 IR Inten    --      4.4708                 5.5457                 3.8973

                     16                     17                     18
                      A                      A                      A
 Frequencies --    266.1815               278.7264               300.5799
 Red. masses --      5.2445                10.0687                 3.8041
 Frc consts  --      0.2189                 0.4609                 0.2025
 IR Inten    --      7.1614                10.7285                17.0080

                     19                     20                     21
                      A                      A                      A
 Frequencies --    310.5862               352.3449               403.1515
 Red. masses --      3.7330                 6.6417                 7.2920
 Frc consts  --      0.2122                 0.4858                 0.6983
 IR Inten    --     16.1877                14.4035                19.9349

                     22                     23                     24
                      A                      A                      A
 Frequencies --    418.1276               507.0046               560.3977
 Red. masses --      2.8872                 4.3315                 4.0372
 Frc consts  --      0.2974                 0.6560                 0.7470
 IR Inten    --      0.1654                54.0165               130.1538

                     25                     26                     27
                      A                      A                      A
 Frequencies --    606.5553               638.3468               665.5929
 Red. masses --      2.9130                 5.6342                 2.4023
 Frc consts  --      0.6314                 1.3527                 0.6270
 IR Inten    --     29.1143                18.7111                93.8260

                     28                     29                     30
                      A                      A                      A
 Frequencies --    713.0424               723.7748               759.4535
 Red. masses --      4.6516                 1.5090                 5.9592
 Frc consts  --      1.3934                 0.4657                 2.0251
 IR Inten    --    135.2168               203.5858                14.6495

                     31                     32                     33
                      A                      A                      A
 Frequencies --    789.2377               803.9053               870.9114
 Red. masses --     10.3309                 2.4464                 1.2519
 Frc consts  --      3.7914                 0.9315                 0.5595
 IR Inten    --     58.8436                 1.4552                 0.4731

                     34                     35                     36
                      A                      A                      A
 Frequencies --    906.0845               933.3673               961.7911
 Red. masses --      5.2403                 4.2118                 1.6063
 Frc consts  --      2.5348                 2.1619                 0.8755
 IR Inten    --      7.4569                 6.4008                 3.1788

                     37                     38                     39
                      A                      A                      A
 Frequencies --    996.5988              1012.4221              1026.1511
 Red. masses --      1.0994                 1.3729                 5.6366
 Frc consts  --      0.6434                 0.8291                 3.4970
 IR Inten    --     49.8258                 0.5292                 2.3304

                     40                     41                     42
                      A                      A                      A
 Frequencies --   1033.7302              1063.3349              1068.5117
 Red. masses --      1.3183                 1.6999                 2.2167
 Frc consts  --      0.8300                 1.1324                 1.4911
 IR Inten    --      0.1197               131.2611                16.9194

                     43                     44                     45
                      A                      A                      A
 Frequencies --   1081.8838              1115.1639              1129.9708
 Red. masses --      2.0622                 8.2503                 1.6032
 Frc consts  --      1.4222                 6.0450                 1.2061
 IR Inten    --      7.6661               174.7772                 9.1818

                     46                     47                     48
                      A                      A                      A
 Frequencies --   1181.3823              1187.7971              1205.3206
 Red. masses --      1.2823                 1.1514                 2.1231
 Frc consts  --      1.0544                 0.9571                 1.8173
 IR Inten    --      2.0541                 1.3871                83.6315

                     49                     50                     51
                      A                      A                      A
 Frequencies --   1213.3184              1224.2921              1230.1996
 Red. masses --      1.4522                 1.6849                 1.3226
 Frc consts  --      1.2596                 1.4880                 1.1793
 IR Inten    --     76.3520                20.7023                15.4361

                     52                     53                     54
                      A                      A                      A
 Frequencies --   1290.7131              1321.8863              1344.3782
 Red. masses --      7.3010                 4.8829                 1.3080
 Frc consts  --      7.1663                 5.0271                 1.3929
 IR Inten    --    738.7102                 9.3301                 3.5978

                     55                     56                     57
                      A                      A                      A
 Frequencies --   1372.4903              1438.2010              1472.8558
 Red. masses --      1.3759                 3.2661                 1.4233
 Frc consts  --      1.5271                 3.9804                 1.8191
 IR Inten    --      5.3571               588.9557                74.9800

                     58                     59                     60
                      A                      A                      A
 Frequencies --   1478.3798              1481.7510              1488.1212
 Red. masses --      1.1919                 1.0454                 1.0411
 Frc consts  --      1.5348                 1.3524                 1.3584
 IR Inten    --     63.2563                13.8409                18.3154

                     61                     62                     63
                      A                      A                      A
 Frequencies --   1490.3549              1494.9206              1507.7923
 Red. masses --      2.1968                 1.0740                 1.0482
 Frc consts  --      2.8749                 1.4142                 1.4040
 IR Inten    --     29.3235                34.6676                15.4011

                     64                     65                     66
                      A                      A                      A
 Frequencies --   1548.4091              1639.6243              1654.6496
 Red. masses --      2.3075                 1.1370                 4.6905
 Frc consts  --      3.2596                 1.8009                 7.5662
 IR Inten    --     13.9945                94.8733                 2.7905

                     67                     68                     69
                      A                      A                      A
 Frequencies --   1675.9090              1725.2457              3067.6577
 Red. masses --      5.7564                11.4006                 1.0351
 Frc consts  --      9.5257                19.9932                 5.7389
 IR Inten    --      0.6007               970.4363                30.7963

                     70                     71                     72
                      A                      A                      A
 Frequencies --   3069.2046              3139.1455              3148.6962
 Red. masses --      1.0305                 1.1030                 1.1072
 Frc consts  --      5.7194                 6.4042                 6.4676
 IR Inten    --     56.4170                 9.5104                30.2248

                     73                     74                     75
                      A                      A                      A
 Frequencies --   3176.8214              3181.3642              3200.6488
 Red. masses --      1.1040                 1.1060                 1.0863
 Frc consts  --      6.5648                 6.5951                 6.5566
 IR Inten    --     17.9866                18.5318                 0.5731

                     76                     77                     78
                      A                      A                      A
 Frequencies --   3208.0978              3216.6412              3226.0269
 Red. masses --      1.0894                 1.0940                 1.0983
 Frc consts  --      6.6059                 6.6693                 6.7347
 IR Inten    --      4.9141                19.0875                17.8288

                     79                     80                     81
                      A                      A                      A
 Frequencies --   3262.0665              3522.1600              3605.1185
 Red. masses --      1.0910                 1.0510                 1.0968
 Frc consts  --      6.8402                 7.6820                 8.3985
 IR Inten    --     10.3632                50.0508                70.0030

 - Thermochemistry -
 -------------------
 Temperature   298.150 Kelvin.  Pressure   1.00000 Atm.
 Atom     1 has atomic number  6 and mass  12.00000

 Molecular mass:   348.93130 amu.
 Principal axes and moments of inertia in atomic units:
                           1         2         3
     Eigenvalues --  4440.899606095.372958147.85595
           X            0.99974  -0.02002  -0.01088
           Y            0.01981   0.99962  -0.01902
           Z            0.01126   0.01880   0.99976
 This molecule is an asymmetric top.
 Rotational symmetry number  1.
 Warning -- assumption of classical behavior for rotation
           may cause significant error
 Rotational temperatures (Kelvin)      0.01950     0.01421     0.01063
 Rotational constants (GHZ):           0.40639     0.29608     0.22150
    1 imaginary frequencies ignored.
 Zero-point vibrational energy     590768.2 (Joules/Mol)
                                  141.19699 (Kcal/Mol)
 Warning -- explicit consideration of  24 degrees of freedom as
           vibrations may cause significant error
 Vibrational temperatures:     38.14    72.79    95.12   103.43   121.72
          (Kelvin)            157.66   183.39   193.50   211.26   228.94
                              256.46   263.80   288.54   346.51   382.98
                              401.03   432.47   446.86   506.95   580.05
                              601.59   729.47   806.29   872.70   918.44
                              957.64  1025.91  1041.35  1092.68  1135.54
                             1156.64  1253.05  1303.65  1342.91  1383.80
                             1433.88  1456.65  1476.40  1487.31  1529.90
                             1537.35  1556.59  1604.47  1625.78  1699.75
                             1708.98  1734.19  1745.69  1761.48  1769.98
                             1857.05  1901.90  1934.26  1974.71  2069.25
                             2119.11  2127.06  2131.91  2141.07  2144.29
                             2150.86  2169.38  2227.82  2359.05  2380.67
                             2411.26  2482.24  4413.68  4415.90  4516.53
                             4530.27  4570.74  4577.27  4605.02  4615.74
                             4628.03  4641.53  4693.39  5067.60  5186.96

 Zero-point correction=                           0.225012 (Hartree/Particle)
 Thermal correction to Energy=                    0.242154
 Thermal correction to Enthalpy=                  0.243099
 Thermal correction to Gibbs Free Energy=         0.177825
 Sum of electronic and zero-point Energies=          -5780.389677
 Sum of electronic and thermal Energies=             -5780.372535
 Sum of electronic and thermal Enthalpies=           -5780.371591
 Sum of electronic and thermal Free Energies=        -5780.436864

                     E (Thermal)             CV                S
                      KCal/Mol        Cal/Mol-Kelvin    Cal/Mol-Kelvin
 Total                  151.954             60.222            137.379
 Electronic               0.000              0.000              0.000
 Translational            0.889              2.981             43.443
 Rotational               0.889              2.981             33.755
 Vibrational            150.177             54.260             60.181
 Vibration     1          0.593              1.984              6.075
 Vibration     2          0.595              1.977              4.794
 Vibration     3          0.598              1.970              4.266
 Vibration     4          0.598              1.967              4.101
 Vibration     5          0.601              1.960              3.781
 Vibration     6          0.606              1.942              3.276
 Vibration     7          0.611              1.926              2.984
 Vibration     8          0.613              1.919              2.881
 Vibration     9          0.617              1.906              2.713
 Vibration    10          0.621              1.892              2.560
 Vibration    11          0.629              1.869              2.347
 Vibration    12          0.631              1.862              2.294
 Vibration    13          0.638              1.839              2.128
 Vibration    14          0.658              1.778              1.797
 Vibration    15          0.672              1.735              1.621
 Vibration    16          0.679              1.713              1.541
 Vibration    17          0.693              1.673              1.414
 Vibration    18          0.699              1.654              1.359
 Vibration    19          0.729              1.570              1.156
 Vibration    20          0.769              1.463              0.951
 Vibration    21          0.781              1.431              0.898
 Vibration    22          0.862              1.234              0.641
 Vibration    23          0.916              1.117              0.523
 Vibration    24          0.965              1.018              0.439

 Optimization completed.
    -- Stationary point found.
 Normal termination of Gaussian 16 at Sun Feb  7 15:07:03 2021.
