 Gaussian 16, Revision A.03,
 Gaussian 16:  ES64L-G16RevA.03 25-Dec-2016

 ----------------------------------------------------------------------
 # wB97XD def2tzvp, opt=(ts, noeigen, calcfc, maxcycles=70, maxstep=8),
  freq=noraman, scrf=(iefpcm, solvent=water)
 ----------------------------------------------------------------------

 ------------------------
 1_iteration/TS-105-1.out
 ------------------------
 Symbolic Z-matrix:
 Charge =  0 Multiplicity = 1

 SCF Done:  E(RwB97XD) =  -3131.76680942     A.U. after   15 cycles
 SCF Done:  E(RwB97XD) =  -3131.76874032     A.U. after   12 cycles
 SCF Done:  E(RwB97XD) =  -3131.77019837     A.U. after   13 cycles
 SCF Done:  E(RwB97XD) =  -3131.77107922     A.U. after   12 cycles
 SCF Done:  E(RwB97XD) =  -3131.77138165     A.U. after   13 cycles
 SCF Done:  E(RwB97XD) =  -3131.77143900     A.U. after   12 cycles
 SCF Done:  E(RwB97XD) =  -3131.77147599     A.U. after   12 cycles
 SCF Done:  E(RwB97XD) =  -3131.77159754     A.U. after   13 cycles
 SCF Done:  E(RwB97XD) =  -3131.77192795     A.U. after   13 cycles
 SCF Done:  E(RwB97XD) =  -3131.77225585     A.U. after   12 cycles
 SCF Done:  E(RwB97XD) =  -3131.77310429     A.U. after   12 cycles
 SCF Done:  E(RwB97XD) =  -3131.77291390     A.U. after   13 cycles
 SCF Done:  E(RwB97XD) =  -3131.77307152     A.U. after   12 cycles
 SCF Done:  E(RwB97XD) =  -3131.77309748     A.U. after   12 cycles
 SCF Done:  E(RwB97XD) =  -3131.77310714     A.U. after   10 cycles
 SCF Done:  E(RwB97XD) =  -3131.77310877     A.U. after    9 cycles
 SCF Done:  E(RwB97XD) =  -3131.77310902     A.U. after    8 cycles
 SCF Done:  E(RwB97XD) =  -3131.77310902     A.U. after    7 cycles
 SCF Done:  E(RwB97XD) =  -3131.77310897     A.U. after    7 cycles
 Optimization completed.
    -- Stationary point found.
 Normal termination of Gaussian 16 at Sun Feb  7 05:49:01 2021.

 ---------------------------------------------------------------------
 #N Geom=AllCheck Guess=TCheck SCRF=Check GenChk RwB97XD/def2TZVP Freq
 ---------------------------------------------------------------------

 Structure from the checkpoint file:  "/beegfs/scratch/user/q/tla25/Gau-37207.chk"
 ------------------------
 1_iteration/TS-105-1.out
 ------------------------
 Charge =  0 Multiplicity = 1

                         Standard orientation:
 ---------------------------------------------------------------------
 Center     Atomic      Atomic             Coordinates (Angstroms)
 Number     Number       Type             X           Y           Z
 ---------------------------------------------------------------------
      1          6           0       -1.141331   -0.043646    0.544385
      2          6           0       -2.309700    0.094653    1.321205
      3          8           0       -3.319087   -0.611329    1.295286
      4          6           0       -0.050950    0.841065    0.549261
      5          6           0       -1.759180    2.314699   -1.209258
      6          1           0       -2.325524    1.388426   -1.278099
      7          1           0       -2.103542    2.872539   -0.339700
      8          1           0       -1.937785    2.909952   -2.104744
      9          7           0       -0.343388    2.002763   -1.055669
     10          1           0       -0.000290    1.472211   -1.848285
     11          1           0        0.202153    2.853455   -0.990300
     12          6           0        1.333543    0.306559    0.272403
     13          6           0        1.681127   -0.917483    0.842764
     14          6           0        2.966755   -1.419816    0.725808
     15          6           0        3.934632   -0.707180    0.034236
     16          6           0        3.607365    0.519978   -0.520301
     17          6           0        2.322774    1.026536   -0.391453
     18          1           0        0.934888   -1.477339    1.390357
     19          1           0        3.210451   -2.372743    1.177991
     20          1           0        4.938029   -1.100984   -0.064540
     21          1           0        4.354737    1.094448   -1.052313
     22          1           0        2.117565    1.999196   -0.815388
     23          6           0       -0.017095    1.944637    1.590684
     24          1           0        0.157170    1.502484    2.572497
     25          1           0        0.810896    2.620024    1.382575
     26          1           0       -0.937637    2.522079    1.628473
     27         35           0       -1.188862   -1.431376   -0.778150
     28          1           0       -2.262179    0.925701    2.045723
 ---------------------------------------------------------------------

 SCF Done:  E(RwB97XD) =  -3131.77310897     A.U. after    1 cycles

 The electronic state is 1-A.
 Alpha  occ. eigenvalues -- -483.11983 -62.66804 -56.45904 -56.45580 -56.45569
 Alpha  occ. eigenvalues --  -19.21047 -14.48356 -10.37108 -10.34967 -10.31703
 Alpha  occ. eigenvalues --  -10.31228 -10.30691 -10.29899 -10.29550 -10.29494
 Alpha  occ. eigenvalues --  -10.29411 -10.29350 -10.29268  -8.80907  -6.63000
 Alpha  occ. eigenvalues --   -6.61962  -6.61928  -2.73400  -2.73099  -2.73072
 Alpha  occ. eigenvalues --   -2.72232  -2.72232  -1.11351  -1.04012  -0.98040
 Alpha  occ. eigenvalues --   -0.93846  -0.88318  -0.85714  -0.84794  -0.79472
 Alpha  occ. eigenvalues --   -0.78701  -0.74500  -0.70992  -0.68484  -0.63330
 Alpha  occ. eigenvalues --   -0.62528  -0.60614  -0.58180  -0.57474  -0.55975
 Alpha  occ. eigenvalues --   -0.54297  -0.53750  -0.52723  -0.51256  -0.50286
 Alpha  occ. eigenvalues --   -0.49820  -0.49192  -0.47634  -0.46961  -0.46588
 Alpha  occ. eigenvalues --   -0.44922  -0.43528  -0.43325  -0.41416  -0.38622
 Alpha  occ. eigenvalues --   -0.36994  -0.34226  -0.33538  -0.32604  -0.28308
 Alpha virt. eigenvalues --    0.01823   0.04803   0.05759   0.08354   0.09959
 Alpha virt. eigenvalues --    0.13109   0.13451   0.13766   0.14430   0.15593
 Alpha virt. eigenvalues --    0.16385   0.17287   0.18133   0.18576   0.18831

 Mulliken charges:
               1
     1  C   -0.130130
     2  C    0.057578
     3  O   -0.497999
     4  C    0.154381
     5  C   -0.304959
     6  H    0.160842
     7  H    0.153943
     8  H    0.164206
     9  N   -0.371343
    10  H    0.290836
    11  H    0.286373
    12  C    0.226427
    13  C   -0.278367
    14  C   -0.122820
    15  C   -0.148128
    16  C   -0.157654
    17  C   -0.241257
    18  H    0.165328
    19  H    0.145805
    20  H    0.146856
    21  H    0.145761
    22  H    0.143778
    23  C   -0.397899
    24  H    0.170191
    25  H    0.160503
    26  H    0.148409
    27  Br  -0.160760
    28  H    0.090099
 Sum of Mulliken charges =  -0.00000

 Dipole moment (field-independent basis, Debye):
    X=              7.7312    Y=              9.0991    Z=             -3.0233  Tot=             12.3169
 Quadrupole moment (field-independent basis, Debye-Ang):
   XX=           -112.8322   YY=            -81.2629   ZZ=            -93.1933
   XY=            -11.8812   XZ=              6.6828   YZ=             -5.1745

  Exact polarizability: 267.800   8.034 229.091 -24.470 -18.071 190.994
 Approx polarizability: 206.716   7.849 191.480 -18.031 -14.848 163.012

 ******    1 imaginary frequencies (negative Signs) ******

                      1                      2                      3
                      A                      A                      A
 Frequencies --   -319.4778                43.8025                60.2788
 Red. masses --      5.0266                 4.2020                 6.4031
 Frc consts  --      0.3023                 0.0048                 0.0137
 IR Inten    --    624.1389                 2.9701                 2.5616

                      4                      5                      6
                      A                      A                      A
 Frequencies --     83.1504                86.9184               111.4396
 Red. masses --      3.5042                 2.4696                 3.0175
 Frc consts  --      0.0143                 0.0110                 0.0221
 IR Inten    --      0.5224                 1.1227                 7.7497

                      7                      8                      9
                      A                      A                      A
 Frequencies --    137.5655               184.2573               198.9322
 Red. masses --      2.7924                 2.1213                 4.6340
 Frc consts  --      0.0311                 0.0424                 0.1080
 IR Inten    --      2.2496                 0.8204                13.3909

                     10                     11                     12
                      A                      A                      A
 Frequencies --    210.2117               261.3313               271.7482
 Red. masses --      4.0090                 1.6324                 2.8341
 Frc consts  --      0.1044                 0.0657                 0.1233
 IR Inten    --      1.1177                 2.1536                 6.4140

                     13                     14                     15
                      A                      A                      A
 Frequencies --    289.6921               303.1670               324.4306
 Red. masses --      1.9360                 3.6725                 2.3563
 Frc consts  --      0.0957                 0.1989                 0.1461
 IR Inten    --      4.9000                34.6673                 9.2824

                     16                     17                     18
                      A                      A                      A
 Frequencies --    371.5294               381.5112               423.5149
 Red. masses --      3.2628                 4.6843                 2.9210
 Frc consts  --      0.2654                 0.4017                 0.3087
 IR Inten    --      2.9135                 7.8714                 1.0623

                     19                     20                     21
                      A                      A                      A
 Frequencies --    428.8331               554.7094               572.0195
 Red. masses --      3.8087                 3.0700                 3.1961
 Frc consts  --      0.4127                 0.5566                 0.6161
 IR Inten    --      5.9880                33.5869               141.0137

                     22                     23                     24
                      A                      A                      A
 Frequencies --    618.2149               631.2553               639.6967
 Red. masses --      4.1137                 2.2497                 3.8313
 Frc consts  --      0.9263                 0.5282                 0.9237
 IR Inten    --     53.7657                11.0958                11.3826

                     25                     26                     27
                      A                      A                      A
 Frequencies --    657.5564               726.9359               794.5928
 Red. masses --      4.7863                 1.5900                 2.0612
 Frc consts  --      1.2193                 0.4951                 0.7668
 IR Inten    --     74.5560                86.3072                40.2498

                     28                     29                     30
                      A                      A                      A
 Frequencies --    821.1480               876.2724               959.6922
 Red. masses --      3.7277                 1.2453                 1.4091
 Frc consts  --      1.4809                 0.5634                 0.7647
 IR Inten    --     22.7357                 0.2697                 8.6485

                     31                     32                     33
                      A                      A                      A
 Frequencies --   1004.9874              1008.8146              1010.6087
 Red. masses --      1.2372                 1.3883                 1.5458
 Frc consts  --      0.7362                 0.8324                 0.9302
 IR Inten    --    135.1915                34.2944                22.4284

                     34                     35                     36
                      A                      A                      A
 Frequencies --   1015.4415              1024.8897              1027.2465
 Red. masses --      1.4360                 3.6817                 2.0534
 Frc consts  --      0.8724                 2.2785                 1.2767
 IR Inten    --      1.8726                 1.9264                 2.0801

                     37                     38                     39
                      A                      A                      A
 Frequencies --   1033.4840              1058.2985              1065.9872
 Red. masses --      1.3376                 1.7924                 1.9587
 Frc consts  --      0.8417                 1.1828                 1.3114
 IR Inten    --      0.3306                48.2270                11.5929

                     40                     41                     42
                      A                      A                      A
 Frequencies --   1086.6212              1100.1763              1127.8674
 Red. masses --      3.9636                 1.7638                 1.5942
 Frc consts  --      2.7574                 1.2578                 1.1948
 IR Inten    --      4.2378                10.7865                 5.0193

                     43                     44                     45
                      A                      A                      A
 Frequencies --   1186.5906              1214.1783              1227.8854
 Red. masses --      1.1296                 1.3110                 1.2834
 Frc consts  --      0.9371                 1.1387                 1.1401
 IR Inten    --      0.1000                17.2928                40.9041

                     46                     47                     48
                      A                      A                      A
 Frequencies --   1234.6430              1276.3220              1322.1894
 Red. masses --      3.2100                 5.3513                 4.6587
 Frc consts  --      2.8830                 5.1361                 4.7984
 IR Inten    --     95.8264                16.3347                 5.7135

                     49                     50                     51
                      A                      A                      A
 Frequencies --   1354.9615              1371.6491              1389.8744
 Red. masses --      1.3764                 1.3908                 1.9111
 Frc consts  --      1.4889                 1.5417                 2.1751
 IR Inten    --      2.6071                44.7357               634.7793

                     52                     53                     54
                      A                      A                      A
 Frequencies --   1416.6054              1458.7932              1471.9162
 Red. masses --      1.2205                 1.2168                 1.3581
 Frc consts  --      1.4431                 1.5256                 1.7336
 IR Inten    --     27.6368                44.3792                83.8804

                     55                     56                     57
                      A                      A                      A
 Frequencies --   1489.2652              1491.7384              1502.0221
 Red. masses --      2.0085                 1.0429                 1.1094
 Frc consts  --      2.6247                 1.3674                 1.4747
 IR Inten    --     17.2538                18.4350                48.0605

                     58                     59                     60
                      A                      A                      A
 Frequencies --   1507.6529              1511.9829              1547.2648
 Red. masses --      1.0420                 1.5080                 2.2738
 Frc consts  --      1.3955                 2.0312                 3.2072
 IR Inten    --     22.9527               166.7863                10.7308

                     61                     62                     63
                      A                      A                      A
 Frequencies --   1648.6517              1658.4121              1665.6259
 Red. masses --      2.7499                 1.4041                 7.1604
 Frc consts  --      4.4038                 2.2752                11.7043
 IR Inten    --     23.4818               200.2415              1009.9178

                     64                     65                     66
                      A                      A                      A
 Frequencies --   1675.8045              2971.2132              3073.4757
 Red. masses --      5.4042                 1.0810                 1.0342
 Frc consts  --      8.9419                 5.6226                 5.7558
 IR Inten    --      7.1101               107.0717                28.7477

                     67                     68                     69
                      A                      A                      A
 Frequencies --   3075.3222              3148.5326              3150.1028
 Red. masses --      1.0368                 1.1012                 1.1044
 Frc consts  --      5.7775                 6.4317                 6.4567
 IR Inten    --     17.5117                12.4358                14.3976

                     70                     71                     72
                      A                      A                      A
 Frequencies --   3170.7302              3171.6842              3198.8988
 Red. masses --      1.1044                 1.1035                 1.0862
 Frc consts  --      6.5419                 6.5402                 6.5486
 IR Inten    --     12.2668                21.9066                 0.4706

                     73                     74                     75
                      A                      A                      A
 Frequencies --   3207.4780              3218.0052              3225.3582
 Red. masses --      1.0896                 1.0932                 1.0959
 Frc consts  --      6.6046                 6.6697                 6.7170
 IR Inten    --      6.7956                23.9154                20.2667

                     76                     77                     78
                      A                      A                      A
 Frequencies --   3234.2911              3526.3042              3611.4392
 Red. masses --      1.0941                 1.0505                 1.0958
 Frc consts  --      6.7432                 7.6967                 8.4206
 IR Inten    --     14.7708                42.9422                42.1630

 - Thermochemistry -
 -------------------
 Temperature   298.150 Kelvin.  Pressure   1.00000 Atm.
 Atom     1 has atomic number  6 and mass  12.00000

 Molecular mass:   255.02588 amu.
 Principal axes and moments of inertia in atomic units:
                           1         2         3
     Eigenvalues --  2399.515384540.184425391.19915
           X            0.99826  -0.05874  -0.00453
           Y            0.05827   0.99572  -0.07170
           Z            0.00872   0.07131   0.99742
 This molecule is an asymmetric top.
 Rotational symmetry number  1.
 Warning -- assumption of classical behavior for rotation
           may cause significant error
 Rotational temperatures (Kelvin)      0.03610     0.01908     0.01607
 Rotational constants (GHZ):           0.75213     0.39750     0.33476
    1 imaginary frequencies ignored.
 Zero-point vibrational energy     605284.7 (Joules/Mol)
                                  144.66651 (Kcal/Mol)
 Warning -- explicit consideration of  21 degrees of freedom as
           vibrations may cause significant error
 Vibrational temperatures:     63.02    86.73   119.63   125.06   160.34
          (Kelvin)            197.93   265.11   286.22   302.45   376.00
                              390.99   416.80   436.19   466.78   534.55
                              548.91   609.34   617.00   798.10   823.01
                              889.47   908.24   920.38   946.08  1045.90
                             1143.24  1181.45  1260.76  1380.78  1445.95
                             1451.46  1454.04  1460.99  1474.59  1477.98
                             1486.95  1522.66  1533.72  1563.41  1582.91
                             1622.75  1707.24  1746.93  1766.65  1776.38
                             1836.34  1902.34  1949.49  1973.50  1999.72
                             2038.18  2098.88  2117.76  2142.72  2146.28
                             2161.07  2169.18  2175.41  2226.17  2372.04
                             2386.09  2396.46  2411.11  4274.91  4422.05
                             4424.70  4530.04  4532.30  4561.97  4563.35
                             4602.50  4614.85  4629.99  4640.57  4653.42
                             5073.57  5196.06

 Zero-point correction=                           0.230541 (Hartree/Particle)
 Thermal correction to Energy=                    0.244859
 Thermal correction to Enthalpy=                  0.245804
 Thermal correction to Gibbs Free Energy=         0.188451
 Sum of electronic and zero-point Energies=          -3131.542568
 Sum of electronic and thermal Energies=             -3131.528249
 Sum of electronic and thermal Enthalpies=           -3131.527305
 Sum of electronic and thermal Free Energies=        -3131.584658

                     E (Thermal)             CV                S
                      KCal/Mol        Cal/Mol-Kelvin    Cal/Mol-Kelvin
 Total                  153.652             52.861            120.708
 Electronic               0.000              0.000              0.000
 Translational            0.889              2.981             42.509
 Rotational               0.889              2.981             32.441
 Vibrational            151.874             46.899             45.759
 Vibration     1          0.595              1.980              5.079
 Vibration     2          0.597              1.973              4.448
 Vibration     3          0.600              1.961              3.815
 Vibration     4          0.601              1.958              3.728
 Vibration     5          0.607              1.940              3.244
 Vibration     6          0.614              1.916              2.837
 Vibration     7          0.631              1.861              2.285
 Vibration     8          0.637              1.841              2.143
 Vibration     9          0.642              1.825              2.042
 Vibration    10          0.669              1.744              1.653
 Vibration    11          0.675              1.725              1.585
 Vibration    12          0.686              1.693              1.476
 Vibration    13          0.695              1.668              1.399
 Vibration    14          0.709              1.627              1.288
 Vibration    15          0.743              1.531              1.073
 Vibration    16          0.751              1.510              1.033
 Vibration    17          0.786              1.419              0.880
 Vibration    18          0.790              1.407              0.862
 Vibration    19          0.910              1.129              0.534
 Vibration    20          0.928              1.092              0.500
 Vibration    21          0.978              0.993              0.419

 Optimization completed.
    -- Stationary point found.
 Normal termination of Gaussian 16 at Sun Feb  7 06:43:13 2021.
