 Gaussian 16, Revision A.03,
 Gaussian 16:  ES64L-G16RevA.03 25-Dec-2016

 ----------------------------------------------------------------------
 # wB97XD def2tzvp, opt=(ts, noeigen, calcfc, maxcycles=70, maxstep=3),
  freq=noraman, scrf=(iefpcm, solvent=water)
 ----------------------------------------------------------------------

 -----------------------
 0_iteration/TS-14-0.out
 -----------------------
 Symbolic Z-matrix:
 Charge =  0 Multiplicity = 1

 SCF Done:  E(RwB97XD) =  -883.886390765     A.U. after   14 cycles
 Optimization completed.
    -- Stationary point found.
 Normal termination of Gaussian 16 at Sun Apr 11 21:45:52 2021.

 ---------------------------------------------------------------------
 #N Geom=AllCheck Guess=TCheck SCRF=Check GenChk RwB97XD/def2TZVP Freq
 ---------------------------------------------------------------------

 Structure from the checkpoint file:  "/beegfs/scratch/user/q/tla25/Gau-280246.chk"
 -----------------------
 0_iteration/TS-14-0.out
 -----------------------
 Charge =  0 Multiplicity = 1

                         Standard orientation:
 ---------------------------------------------------------------------
 Center     Atomic      Atomic             Coordinates (Angstroms)
 Number     Number       Type             X           Y           Z
 ---------------------------------------------------------------------
      1          6           0        0.883999   -0.798010   -0.372701
      2          6           0        2.199699   -0.417511    0.006999
      3          8           0        2.423300    0.415589    0.925699
      4          6           0       -0.252101   -0.115099    0.151699
      5          6           0        0.130899   -1.554209    2.541099
      6          1           0        0.649499   -1.505910    3.498499
      7          1           0       -0.826912   -2.051499    2.672399
      8          1           0        0.746588   -2.117710    1.837099
      9          7           0       -0.066001   -0.219309    1.995299
     10          1           0       -0.772600    0.292401    2.505699
     11          1           0        0.824400    0.290390    2.001299
     12          6           0       -1.572501   -0.791298   -0.152901
     13          6           0       -1.697912   -2.175498   -0.011601
     14          6           0       -2.887912   -2.822297   -0.299201
     15          6           0       -3.985312   -2.101397   -0.748701
     16          6           0       -3.873001   -0.730497   -0.909701
     17          6           0       -2.681401   -0.083497   -0.612301
     18          1           0       -0.852512   -2.760299    0.321299
     19          1           0       -2.955913   -3.895697   -0.174501
     20          1           0       -4.915612   -2.605886   -0.976601
     21          1           0       -4.715001   -0.154186   -1.272001
     22          1           0       -2.620500    0.985203   -0.758301
     23          6           0       -0.291900    1.403291    0.023599
     24          6           0       -1.086289    2.212802    0.835199
     25          6           0       -1.136988    3.586002    0.653499
     26          6           0       -0.401188    4.183491   -0.358501
     27          6           0        0.374512    3.389691   -1.189301
     28          6           0        0.423111    2.017091   -0.999901
     29          1           0       -1.710599    1.781302    1.607299
     30          1           0       -1.761688    4.187502    1.301599
     31          1           0       -0.439787    5.255701   -0.503101
     32          1           0        0.946512    3.838890   -1.991601
     33          1           0        1.027100    1.401290   -1.652401
     34          1           0        0.722998   -1.729410   -0.888301
     35          7           0        3.271899   -0.996421   -0.638401
     36          6           0        3.088998   -1.976211   -1.682501
     37          6           0        4.581199   -0.968322   -0.027601
     38          1           0        2.811388   -2.964011   -1.292301
     39          1           0        2.320198   -1.653011   -2.383301
     40          1           0        4.024488   -2.082722   -2.232401
     41          1           0        4.604899   -0.192622    0.731199
     42          1           0        4.825188   -1.930122    0.440899
     43          1           0        5.344699   -0.755323   -0.779501
 ---------------------------------------------------------------------

 SCF Done:  E(RwB97XD) =  -883.886390765     A.U. after    1 cycles

 The electronic state is 1-A.
 Alpha  occ. eigenvalues --  -19.18624 -14.47978 -14.43973 -10.35730 -10.35456
 Alpha  occ. eigenvalues --  -10.31199 -10.30588 -10.30200 -10.30097 -10.29606
 Alpha  occ. eigenvalues --  -10.29291 -10.29160 -10.29128 -10.29106 -10.29079
 Alpha  occ. eigenvalues --  -10.29069 -10.29043 -10.28980 -10.28890 -10.28645
 Alpha  occ. eigenvalues --  -10.23292  -1.10904  -1.03930  -1.01424  -0.97608
 Alpha  occ. eigenvalues --   -0.96417  -0.90653  -0.85672  -0.85271  -0.84855
 Alpha  occ. eigenvalues --   -0.83146  -0.80512  -0.78960  -0.77470  -0.72962
 Alpha  occ. eigenvalues --   -0.70917  -0.70266  -0.69622  -0.66225  -0.63948
 Alpha  occ. eigenvalues --   -0.62287  -0.61042  -0.59656  -0.57708  -0.56867
 Alpha  occ. eigenvalues --   -0.55936  -0.55162  -0.55076  -0.54626  -0.54129
 Alpha  occ. eigenvalues --   -0.53580  -0.52239  -0.51086  -0.50801  -0.50185
 Alpha  occ. eigenvalues --   -0.48728  -0.48196  -0.47705  -0.47304  -0.47038
 Alpha  occ. eigenvalues --   -0.46606  -0.46279  -0.45195  -0.44665  -0.43926
 Alpha  occ. eigenvalues --   -0.43683  -0.42176  -0.41898  -0.41392  -0.34241
 Alpha  occ. eigenvalues --   -0.34105  -0.33558  -0.33203  -0.32245  -0.30701
 Alpha  occ. eigenvalues --   -0.25786
 Alpha virt. eigenvalues --    0.02402   0.04514   0.05094   0.06151   0.10146
 Alpha virt. eigenvalues --    0.10354   0.11912   0.13130   0.13622   0.14536
 Alpha virt. eigenvalues --    0.15168   0.15588   0.15975   0.16796   0.17067

 Mulliken charges:
               1
     1  C   -0.700399
     2  C    0.323583
     3  O   -0.632171
     4  C    0.652039
     5  C   -0.331608
     6  H    0.159066
     7  H    0.163068
     8  H    0.153897
     9  N   -0.268859
    10  H    0.260749
    11  H    0.281455
    12  C    0.070436
    13  C   -0.342243
    14  C   -0.132590
    15  C   -0.154716
    16  C   -0.139965
    17  C   -0.235342
    18  H    0.174627
    19  H    0.141668
    20  H    0.143542
    21  H    0.141283
    22  H    0.168211
    23  C    0.073874
    24  C   -0.307715
    25  C   -0.144271
    26  C   -0.141191
    27  C   -0.164492
    28  C   -0.207399
    29  H    0.152245
    30  H    0.141924
    31  H    0.143217
    32  H    0.139682
    33  H    0.154205
    34  H    0.157127
    35  N   -0.106637
    36  C   -0.301414
    37  C   -0.275290
    38  H    0.125516
    39  H    0.142847
    40  H    0.139399
    41  H    0.140482
    42  H    0.115133
    43  H    0.127027
 Sum of Mulliken charges =   0.00000

 Dipole moment (field-independent basis, Debye):
    X=             -3.8533    Y=             -2.5721    Z=              2.2763  Tot=              5.1619
 Quadrupole moment (field-independent basis, Debye-Ang):
   XX=           -121.6177   YY=           -111.9711   ZZ=           -116.5550
   XY=             -7.4150   XZ=             -9.0141   YZ=             -2.8257

  Exact polarizability: 358.070  -3.494 345.172 -16.601  -3.081 270.086
 Approx polarizability: 270.903  -3.212 275.572 -12.563  -0.759 231.535

 ******    1 imaginary frequencies (negative Signs) ******

                      1                      2                      3
                      A                      A                      A
 Frequencies --   -383.9645                31.0460                46.4515
 Red. masses --      4.9818                 3.8756                 2.9937
 Frc consts  --      0.4327                 0.0022                 0.0038
 IR Inten    --    570.9343                 0.6266                 4.8740

                      4                      5                      6
                      A                      A                      A
 Frequencies --     55.2338                62.4478                74.4200
 Red. masses --      3.3814                 3.2860                 3.7579
 Frc consts  --      0.0061                 0.0076                 0.0123
 IR Inten    --      0.6587                 0.8768                 0.5063

                      7                      8                      9
                      A                      A                      A
 Frequencies --     83.3354               105.1643               118.6831
 Red. masses --      3.8790                 1.3709                 2.9474
 Frc consts  --      0.0159                 0.0089                 0.0245
 IR Inten    --      1.4380                 2.0547                 0.1378

                     10                     11                     12
                      A                      A                      A
 Frequencies --    137.2583               162.2392               185.0584
 Red. masses --      4.4457                 3.0620                 2.1316
 Frc consts  --      0.0493                 0.0475                 0.0430
 IR Inten    --      8.2076                29.8665                 2.2898

                     13                     14                     15
                      A                      A                      A
 Frequencies --    194.2609               218.9110               234.1274
 Red. masses --      1.7813                 2.7361                 2.4238
 Frc consts  --      0.0396                 0.0773                 0.0783
 IR Inten    --     52.8782                 0.6879                12.2434

                     16                     17                     18
                      A                      A                      A
 Frequencies --    257.8544               264.8836               282.4058
 Red. masses --      2.8525                 3.7146                 2.3318
 Frc consts  --      0.1117                 0.1536                 0.1096
 IR Inten    --      5.2650                 0.9757                 0.5945

                     19                     20                     21
                      A                      A                      A
 Frequencies --    291.9396               307.8841               325.3046
 Red. masses --      1.6623                 4.7746                 2.9829
 Frc consts  --      0.0835                 0.2667                 0.1860
 IR Inten    --      0.8664                 4.7690                10.3449

                     22                     23                     24
                      A                      A                      A
 Frequencies --    364.3108               389.1028               426.8263
 Red. masses --      5.2408                 3.6220                 2.9239
 Frc consts  --      0.4098                 0.3231                 0.3138
 IR Inten    --     23.1809                52.8428                 1.3779

                     25                     26                     27
                      A                      A                      A
 Frequencies --    433.2189               456.8417               476.7602
 Red. masses --      2.9465                 3.2767                 3.4224
 Frc consts  --      0.3258                 0.4029                 0.4583
 IR Inten    --      0.7597                13.3286                10.1555

                     28                     29                     30
                      A                      A                      A
 Frequencies --    524.6391               578.2468               618.1305
 Red. masses --      3.5501                 2.4586                 3.0850
 Frc consts  --      0.5757                 0.4844                 0.6945
 IR Inten    --      3.2400                42.9514                36.9382

                     31                     32                     33
                      A                      A                      A
 Frequencies --    635.4634               637.6621               640.9703
 Red. masses --      3.8179                 3.4791                 4.7976
 Frc consts  --      0.9084                 0.8335                 1.1613
 IR Inten    --     13.2729                51.8112                19.8339

                     34                     35                     36
                      A                      A                      A
 Frequencies --    649.1950               660.5504               720.1090
 Red. masses --      3.1471                 2.9228                 2.2297
 Frc consts  --      0.7815                 0.7514                 0.6812
 IR Inten    --    120.4744               107.2047                94.7960

                     37                     38                     39
                      A                      A                      A
 Frequencies --    727.1541               732.1479               781.8336
 Red. masses --      1.6055                 1.6109                 2.9562
 Frc consts  --      0.5002                 0.5088                 1.0647
 IR Inten    --    119.2798                63.2972               112.0335

                     40                     41                     42
                      A                      A                      A
 Frequencies --    792.0295               803.3740               821.3515
 Red. masses --      4.1779                 2.1479                 2.8920
 Frc consts  --      1.5442                 0.8168                 1.1495
 IR Inten    --     30.5162                14.6383                12.3475

                     43                     44                     45
                      A                      A                      A
 Frequencies --    868.7055               879.9829               883.9413
 Red. masses --      5.1457                 1.2440                 1.2562
 Frc consts  --      2.2879                 0.5676                 0.5783
 IR Inten    --     13.7744                 0.1736                 1.0363

                     46                     47                     48
                      A                      A                      A
 Frequencies --    956.2235               968.0166               979.8895
 Red. masses --      1.8857                 1.4385                 2.2609
 Frc consts  --      1.0159                 0.7942                 1.2790
 IR Inten    --     30.8373                 4.0948                 8.6404

                     49                     50                     51
                      A                      A                      A
 Frequencies --   1018.8933              1019.8705              1024.9314
 Red. masses --      1.3897                 1.3780                 3.8338
 Frc consts  --      0.8500                 0.8445                 2.3728
 IR Inten    --      8.2065                 5.5891                20.4464

                     52                     53                     54
                      A                      A                      A
 Frequencies --   1026.6818              1029.0965              1033.1205
 Red. masses --      5.2531                 2.2869                 1.3146
 Frc consts  --      3.2624                 1.4269                 0.8267
 IR Inten    --      3.5522                53.9914                 8.5433

                     55                     56                     57
                      A                      A                      A
 Frequencies --   1033.8647              1037.8998              1066.9639
 Red. masses --      1.4806                 1.2747                 2.4017
 Frc consts  --      0.9324                 0.8091                 1.6109
 IR Inten    --     21.9088                67.2459                 9.0425

                     58                     59                     60
                      A                      A                      A
 Frequencies --   1071.1346              1082.9579              1092.2559
 Red. masses --      1.9926                 1.4317                 3.6614
 Frc consts  --      1.3470                 0.9893                 2.5737
 IR Inten    --     11.3608                15.6706                28.2470

                     61                     62                     63
                      A                      A                      A
 Frequencies --   1121.3837              1121.8536              1126.7339
 Red. masses --      1.5274                 1.6433                 1.3640
 Frc consts  --      1.1317                 1.2185                 1.0202
 IR Inten    --     23.8230                 8.0055                68.4349

                     64                     65                     66
                      A                      A                      A
 Frequencies --   1131.3003              1155.7905              1166.8766
 Red. masses --      1.2404                 2.5323                 1.4974
 Frc consts  --      0.9353                 1.9931                 1.2012
 IR Inten    --      9.3278                18.7516               181.5736

                     67                     68                     69
                      A                      A                      A
 Frequencies --   1184.6652              1186.2497              1203.8943
 Red. masses --      1.1249                 1.1257                 1.8387
 Frc consts  --      0.9301                 0.9333                 1.5701
 IR Inten    --      0.1367                 0.1577               254.0411

                     70                     71                     72
                      A                      A                      A
 Frequencies --   1218.7767              1224.6113              1248.1416
 Red. masses --      1.1544                 1.1377                 1.6670
 Frc consts  --      1.0103                 1.0053                 1.5301
 IR Inten    --      7.3279                14.3523                59.3865

                     73                     74                     75
                      A                      A                      A
 Frequencies --   1273.7945              1298.8006              1309.8586
 Red. masses --      2.2760                 3.1191                 5.5455
 Frc consts  --      2.1758                 3.1001                 5.6058
 IR Inten    --     38.8207               211.6550                 7.8299

                     76                     77                     78
                      A                      A                      A
 Frequencies --   1320.7981              1338.9672              1362.4238
 Red. masses --      4.5811                 4.6109                 1.4425
 Frc consts  --      4.7086                 4.8705                 1.5776
 IR Inten    --      2.0261               112.0081                19.6995

                     79                     80                     81
                      A                      A                      A
 Frequencies --   1373.1716              1389.5621              1408.8837
 Red. masses --      1.3938                 1.3804                 2.2301
 Frc consts  --      1.5484                 1.5704                 2.6081
 IR Inten    --     21.9791                29.2257                62.9203

                     82                     83                     84
                      A                      A                      A
 Frequencies --   1423.1938              1449.9343              1462.9989
 Red. masses --      1.1989                 1.1975                 1.3497
 Frc consts  --      1.4307                 1.4833                 1.7020
 IR Inten    --     31.3129                30.0767               259.3248

                     85                     86                     87
                      A                      A                      A
 Frequencies --   1478.6160              1488.6009              1490.1802
 Red. masses --      1.3436                 1.8693                 1.1308
 Frc consts  --      1.7307                 2.4406                 1.4794
 IR Inten    --    436.0658                31.2799                28.9856

                     88                     89                     90
                      A                      A                      A
 Frequencies --   1494.1478              1496.2827              1497.8005
 Red. masses --      1.2835                 1.6563                 1.0537
 Frc consts  --      1.6882                 2.1848                 1.3928
 IR Inten    --      5.8600               139.1052                 9.8783

                     91                     92                     93
                      A                      A                      A
 Frequencies --   1507.2776              1512.5772              1530.1537
 Red. masses --      1.2374                 1.0490                 1.5000
 Frc consts  --      1.6564                 1.4141                 2.0692
 IR Inten    --    145.2223                10.7488               398.9934

                     94                     95                     96
                      A                      A                      A
 Frequencies --   1544.2450              1547.7229              1565.6111
 Red. masses --      2.2206                 2.1938                 3.1206
 Frc consts  --      3.1200                 3.0963                 4.5067
 IR Inten    --      9.9090                11.2332               616.0243

                     97                     98                     99
                      A                      A                      A
 Frequencies --   1633.7878              1650.1859              1653.8037
 Red. masses --      1.2188                 5.5539                 5.7919
 Frc consts  --      1.9168                 8.9108                 9.3334
 IR Inten    --     35.9047                 0.9594                 3.4060

                    100                    101                    102
                      A                      A                      A
 Frequencies --   1674.5154              1676.7687              3002.1111
 Red. masses --      5.8406                 5.8726                 1.0506
 Frc consts  --      9.6491                 9.7280                 5.5790
 IR Inten    --      3.4694                 0.6065                72.0527

                    103                    104                    105
                      A                      A                      A
 Frequencies --   3006.6514              3059.5155              3080.1365
 Red. masses --      1.0531                 1.0349                 1.0901
 Frc consts  --      5.6092                 5.7075                 6.0932
 IR Inten    --    197.4098                51.5038                81.8354

                    106                    107                    108
                      A                      A                      A
 Frequencies --   3097.0037              3132.1906              3140.8547
 Red. masses --      1.0828                 1.1027                 1.1035
 Frc consts  --      6.1192                 6.3736                 6.4138
 IR Inten    --     45.1906                12.3318                24.8030

                    109                    110                    111
                      A                      A                      A
 Frequencies --   3170.6287              3182.7461              3193.3129
 Red. masses --      1.1047                 1.0959                 1.0857
 Frc consts  --      6.5432                 6.5406                 6.5227
 IR Inten    --     19.3304                 5.5866                 5.5160

                    112                    113                    114
                      A                      A                      A
 Frequencies --   3196.1300              3199.5237              3204.8621
 Red. masses --      1.0862                 1.0884                 1.0905
 Frc consts  --      6.5374                 6.5647                 6.5994
 IR Inten    --      0.2434                 5.3211                16.3965

                    115                    116                    117
                      A                      A                      A
 Frequencies --   3208.9578              3218.3444              3218.8520
 Red. masses --      1.0925                 1.0955                 1.0947
 Frc consts  --      6.6280                 6.6857                 6.6829
 IR Inten    --     32.4194                29.8058                21.3691

                    118                    119                    120
                      A                      A                      A
 Frequencies --   3224.8320              3233.4716              3236.2010
 Red. masses --      1.0969                 1.0928                 1.0929
 Frc consts  --      6.7208                 6.7320                 6.7438
 IR Inten    --     14.5549                11.3154                 5.6119

                    121                    122                    123
                      A                      A                      A
 Frequencies --   3257.2651              3339.6959              3608.3515
 Red. masses --      1.0882                 1.0687                 1.0812
 Frc consts  --      6.8026                 7.0230                 8.2940
 IR Inten    --      7.3095               205.3128                68.5905

 - Thermochemistry -
 -------------------
 Temperature   298.150 Kelvin.  Pressure   1.00000 Atm.
 Atom     1 has atomic number  6 and mass  12.00000

 Molecular mass:   282.17321 amu.
 Principal axes and moments of inertia in atomic units:
                           1         2         3
     Eigenvalues --  5050.746426545.569159328.96895
           X            0.99883  -0.04736  -0.00959
           Y            0.04733   0.99888  -0.00273
           Z            0.00971   0.00228   0.99995
 This molecule is an asymmetric top.
 Rotational symmetry number  1.
 Warning -- assumption of classical behavior for rotation
           may cause significant error
 Rotational temperatures (Kelvin)      0.01715     0.01323     0.00928
 Rotational constants (GHZ):           0.35732     0.27572     0.19346
    1 imaginary frequencies ignored.
 Zero-point vibrational energy     966222.8 (Joules/Mol)
                                  230.93279 (Kcal/Mol)
 Warning -- explicit consideration of  29 degrees of freedom as
           vibrations may cause significant error
 Vibrational temperatures:     44.67    66.83    79.47    89.85   107.07
          (Kelvin)            119.90   151.31   170.76   197.48   233.43
                              266.26   279.50   314.96   336.86   370.99
                              381.11   406.32   420.04   442.98   468.04
                              524.16   559.83   614.11   623.31   657.29
                              685.95   754.84   831.97   889.35   914.29
                              917.45   922.21   934.05   950.38  1036.08
                             1046.21  1053.40  1124.88  1139.55  1155.88
                             1181.74  1249.87  1266.10  1271.79  1375.79
                             1392.76  1409.84  1465.96  1467.37  1474.65
                             1477.17  1480.64  1486.43  1487.50  1493.31
                             1535.12  1541.12  1558.13  1571.51  1613.42
                             1614.10  1621.12  1627.69  1662.92  1678.88
                             1704.47  1706.75  1732.14  1753.55  1761.94
                             1795.80  1832.71  1868.68  1884.59  1900.33
                             1926.48  1960.22  1975.69  1999.27  2027.07
                             2047.66  2086.13  2104.93  2127.40  2141.76
                             2144.04  2149.75  2152.82  2155.00  2168.64
                             2176.26  2201.55  2221.82  2226.83  2252.57
                             2350.66  2374.25  2379.45  2409.25  2412.50
                             4319.37  4325.90  4401.96  4431.63  4455.90
                             4506.52  4518.99  4561.83  4579.26  4594.47
                             4598.52  4603.40  4611.08  4616.97  4630.48
                             4631.21  4639.81  4652.24  4656.17  4686.48
                             4805.08  5191.61

 Zero-point correction=                           0.368015 (Hartree/Particle)
 Thermal correction to Energy=                    0.387910
 Thermal correction to Enthalpy=                  0.388854
 Thermal correction to Gibbs Free Energy=         0.319195
 Sum of electronic and zero-point Energies=           -883.518376
 Sum of electronic and thermal Energies=              -883.498481
 Sum of electronic and thermal Enthalpies=            -883.497537
 Sum of electronic and thermal Free Energies=         -883.567196

                     E (Thermal)             CV                S
                      KCal/Mol        Cal/Mol-Kelvin    Cal/Mol-Kelvin
 Total                  243.417             76.380            146.611
 Electronic               0.000              0.000              0.000
 Translational            0.889              2.981             42.810
 Rotational               0.889              2.981             34.088
 Vibrational            241.640             70.418             69.712
 Vibration     1          0.594              1.983              5.761
 Vibration     2          0.595              1.979              4.963
 Vibration     3          0.596              1.975              4.621
 Vibration     4          0.597              1.972              4.378
 Vibration     5          0.599              1.966              4.033
 Vibration     6          0.600              1.961              3.811
 Vibration     7          0.605              1.945              3.356
 Vibration     8          0.609              1.934              3.122
 Vibration     9          0.614              1.916              2.842
 Vibration    10          0.622              1.889              2.524
 Vibration    11          0.631              1.860              2.277
 Vibration    12          0.635              1.848              2.187
 Vibration    13          0.647              1.812              1.968
 Vibration    14          0.654              1.789              1.847
 Vibration    15          0.667              1.749              1.676
 Vibration    16          0.671              1.737              1.629
 Vibration    17          0.681              1.706              1.519
 Vibration    18          0.687              1.689              1.463
 Vibration    19          0.698              1.659              1.374
 Vibration    20          0.709              1.625              1.283
 Vibration    21          0.738              1.546              1.104
 Vibration    22          0.757              1.493              1.004
 Vibration    23          0.788              1.412              0.869
 Vibration    24          0.794              1.398              0.848
 Vibration    25          0.815              1.346              0.775
 Vibration    26          0.833              1.302              0.719
 Vibration    27          0.880              1.195              0.599
 Vibration    28          0.935              1.078              0.489
 Vibration    29          0.978              0.994              0.420

 Optimization completed.
    -- Stationary point found.
 Normal termination of Gaussian 16 at Sun Apr 11 23:11:04 2021.
