 Gaussian 16, Revision A.03,
 Gaussian 16:  ES64L-G16RevA.03 25-Dec-2016

 ----------------------------------------------------------------------
 # wB97XD def2tzvp, opt=(ts, noeigen, calcfc, maxcycles=70, maxstep=1),
  freq=noraman, scrf=(iefpcm, solvent=water)
 ----------------------------------------------------------------------

 ------------------------
 4_iteration/TS-200-4.out
 ------------------------
 Symbolic Z-matrix:
 Charge =  0 Multiplicity = 1

 SCF Done:  E(RwB97XD) =  -1669.10269206     A.U. after   15 cycles
 Optimization completed.
    -- Stationary point found.
 Normal termination of Gaussian 16 at Mon Feb  8 04:01:47 2021.

 ---------------------------------------------------------------------
 #N Geom=AllCheck Guess=TCheck SCRF=Check GenChk RwB97XD/def2TZVP Freq
 ---------------------------------------------------------------------

 Structure from the checkpoint file:  "/beegfs/scratch/user/q/tla25/Gau-107222.chk"
 ------------------------
 4_iteration/TS-200-4.out
 ------------------------
 Charge =  0 Multiplicity = 1

                         Standard orientation:
 ---------------------------------------------------------------------
 Center     Atomic      Atomic             Coordinates (Angstroms)
 Number     Number       Type             X           Y           Z
 ---------------------------------------------------------------------
      1          6           0       -0.167439    0.025240    0.065061
      2          6           0       -1.409209    0.728840    0.244071
      3          8           0       -1.429439    1.936530    0.496241
      4          6           0        1.065461    0.573690    0.416211
      5          6           0        0.709221    2.223320   -1.992189
      6          1           0        0.192321    3.151210   -2.235519
      7          1           0        1.497241    2.056660   -2.722109
      8          1           0       -0.012849    1.404000   -2.050379
      9          7           0        1.258471    2.265980   -0.644789
     10          1           0        2.218021    2.585929   -0.606619
     11          1           0        0.682221    2.843660   -0.045489
     12          6           0        2.340671   -0.165591    0.145611
     13          6           0        3.004981   -0.820431    1.178031
     14          6           0        4.154690   -1.552091    0.922401
     15          6           0        4.661250   -1.630751   -0.365109
     16          6           0        4.002091   -0.982861   -1.399699
     17          6           0        2.847031   -0.262761   -1.146969
     18          1           0        2.622711   -0.764741    2.187721
     19          1           0        4.656060   -2.058101    1.737281
     20          1           0        5.563660   -2.194841   -0.562729
     21          1           0        4.384501   -1.039911   -2.410559
     22          1           0        2.333431    0.211459   -1.969779
     23         17           0        1.132421    1.431630    1.986311
     24         17           0       -0.182649   -1.471970   -0.857889
     25          6           0       -2.716219    0.006390    0.114191
     26          6           0       -2.958059   -1.183590    0.793161
     27          6           0       -4.206470   -1.782200    0.728891
     28          6           0       -5.215029   -1.207750   -0.032959
     29          6           0       -4.976939   -0.023360   -0.716499
     30          6           0       -3.735699    0.588140   -0.631719
     31          1           0       -2.170150   -1.636230    1.382341
     32          1           0       -4.392190   -2.700080    1.272071
     33          1           0       -6.186760   -1.681650   -0.091379
     34          1           0       -5.761149    0.427380   -1.311419
     35          1           0       -3.548949    1.521540   -1.147929
 ---------------------------------------------------------------------

 SCF Done:  E(RwB97XD) =  -1669.10269206     A.U. after    1 cycles

 The electronic state is 1-A.
 Alpha  occ. eigenvalues -- -101.70166-101.69425 -19.22754 -14.48116 -10.41426
 Alpha  occ. eigenvalues --  -10.37417 -10.32589 -10.31830 -10.31749 -10.30059
 Alpha  occ. eigenvalues --  -10.30055 -10.29987 -10.29696 -10.29625 -10.29591
 Alpha  occ. eigenvalues --  -10.29548 -10.29464 -10.29384 -10.29251 -10.29234
 Alpha  occ. eigenvalues --   -9.58765  -9.57953  -7.33420  -7.32611  -7.32546
 Alpha  occ. eigenvalues --   -7.32497  -7.31727  -7.31714  -1.13668  -1.04112
 Alpha  occ. eigenvalues --   -0.99869  -0.97207  -0.96559  -0.95202  -0.87463
 Alpha  occ. eigenvalues --   -0.86702  -0.85963  -0.85477  -0.82706  -0.78971
 Alpha  occ. eigenvalues --   -0.76239  -0.72094  -0.71397  -0.70732  -0.67900
 Alpha  occ. eigenvalues --   -0.64814  -0.62926  -0.61312  -0.59638  -0.57763
 Alpha  occ. eigenvalues --   -0.57475  -0.56475  -0.55873  -0.55199  -0.54764
 Alpha  occ. eigenvalues --   -0.53251  -0.52722  -0.51962  -0.51424  -0.51320
 Alpha  occ. eigenvalues --   -0.49337  -0.48722  -0.47986  -0.47603  -0.46470
 Alpha  occ. eigenvalues --   -0.45484  -0.44463  -0.44044  -0.43551  -0.43150
 Alpha  occ. eigenvalues --   -0.42375  -0.40987  -0.40555  -0.38654  -0.34926
 Alpha  occ. eigenvalues --   -0.34444  -0.34153  -0.33699  -0.32876  -0.28662
 Alpha virt. eigenvalues --   -0.00390   0.03258   0.04590   0.05136   0.06270
 Alpha virt. eigenvalues --    0.07533   0.11089   0.11687   0.13073   0.13603
 Alpha virt. eigenvalues --    0.14284   0.14807   0.15310   0.16044   0.16771

 Mulliken charges:
               1
     1  C   -0.305471
     2  C    0.338864
     3  O   -0.482876
     4  C    0.353773
     5  C   -0.296889
     6  H    0.160488
     7  H    0.160601
     8  H    0.148040
     9  N   -0.363684
    10  H    0.290415
    11  H    0.279612
    12  C    0.121149
    13  C   -0.267018
    14  C   -0.137873
    15  C   -0.138433
    16  C   -0.143771
    17  C   -0.215444
    18  H    0.148939
    19  H    0.147410
    20  H    0.148408
    21  H    0.146756
    22  H    0.155067
    23  Cl  -0.097313
    24  Cl  -0.129602
    25  C    0.145785
    26  C   -0.254539
    27  C   -0.138879
    28  C   -0.131390
    29  C   -0.146403
    30  C   -0.236322
    31  H    0.160510
    32  H    0.144872
    33  H    0.147064
    34  H    0.144305
    35  H    0.143851
 Sum of Mulliken charges =  -0.00000

 Dipole moment (field-independent basis, Debye):
    X=              4.6759    Y=              1.2800    Z=             -3.4712  Tot=              5.9626
 Quadrupole moment (field-independent basis, Debye-Ang):
   XX=           -110.2947   YY=           -123.4339   ZZ=           -124.2648
   XY=              7.4103   XZ=             -1.1648   YZ=            -13.7949

  Exact polarizability: 378.963  -6.665 292.929   4.405 -19.952 275.653
 Approx polarizability: 277.293  -8.090 252.222   4.713 -14.097 241.686

 ******    1 imaginary frequencies (negative Signs) ******

                      1                      2                      3
                      A                      A                      A
 Frequencies --   -344.5993                23.1041                33.8363
 Red. masses --      5.9624                 5.1816                 4.6656
 Frc consts  --      0.4172                 0.0016                 0.0031
 IR Inten    --    640.8245                 0.4531                 1.8493

                      4                      5                      6
                      A                      A                      A
 Frequencies --     42.2065                58.6470                79.4315
 Red. masses --      4.2594                 4.7663                 7.6795
 Frc consts  --      0.0045                 0.0097                 0.0285
 IR Inten    --      1.7196                 1.4030                 5.1848

                      7                      8                      9
                      A                      A                      A
 Frequencies --    105.9263               111.5587               146.9898
 Red. masses --      4.6634                 3.5384                 2.8382
 Frc consts  --      0.0308                 0.0259                 0.0361
 IR Inten    --      0.6499                 1.6417                 7.5826

                     10                     11                     12
                      A                      A                      A
 Frequencies --    164.3013               171.1893               195.7553
 Red. masses --      5.1933                 4.6990                 6.0633
 Frc consts  --      0.0826                 0.0811                 0.1369
 IR Inten    --      7.3950                10.7853                 2.9751

                     13                     14                     15
                      A                      A                      A
 Frequencies --    207.8101               221.9152               230.8320
 Red. masses --      1.2897                 5.4329                 7.1486
 Frc consts  --      0.0328                 0.1576                 0.2244
 IR Inten    --      0.1950                 0.5283                 9.0270

                     16                     17                     18
                      A                      A                      A
 Frequencies --    251.6837               269.9548               304.4622
 Red. masses --      5.5940                 6.2527                 3.2249
 Frc consts  --      0.2088                 0.2685                 0.1761
 IR Inten    --      1.1173                 1.2068                32.3781

                     19                     20                     21
                      A                      A                      A
 Frequencies --    339.8718               364.3846               379.8020
 Red. masses --      6.7146                 8.2568                 8.9731
 Frc consts  --      0.4570                 0.6459                 0.7626
 IR Inten    --     25.9510                22.0708                 8.5372

                     22                     23                     24
                      A                      A                      A
 Frequencies --    418.5700               419.5240               439.0789
 Red. masses --      2.8770                 2.8801                 5.5729
 Frc consts  --      0.2970                 0.2987                 0.6330
 IR Inten    --      0.9477                 1.4396                15.5925

                     25                     26                     27
                      A                      A                      A
 Frequencies --    497.6423               543.2053               572.2754
 Red. masses --      4.9365                 3.7773                 3.3290
 Frc consts  --      0.7203                 0.6567                 0.6424
 IR Inten    --     30.8550                28.6363                48.9443

                     28                     29                     30
                      A                      A                      A
 Frequencies --    595.8854               635.1644               637.7213
 Red. masses --      4.0069                 6.4208                 6.0891
 Frc consts  --      0.8383                 1.5262                 1.4590
 IR Inten    --    144.6425                 0.6101                17.5577

                     31                     32                     33
                      A                      A                      A
 Frequencies --    642.3061               687.8198               722.3341
 Red. masses --      2.2332                 5.7906                 1.6454
 Frc consts  --      0.5428                 1.6141                 0.5058
 IR Inten    --    109.1630                 8.8656                86.6617

                     34                     35                     36
                      A                      A                      A
 Frequencies --    723.3576               746.9318               761.7428
 Red. masses --      1.6583                 3.7255                 3.5934
 Frc consts  --      0.5112                 1.2246                 1.2285
 IR Inten    --     71.9974                69.2176               129.6082

                     37                     38                     39
                      A                      A                      A
 Frequencies --    805.3314               825.8816               849.1941
 Red. masses --      2.6522                 2.8975                 7.3573
 Frc consts  --      1.0135                 1.1644                 3.1259
 IR Inten    --     13.7139                54.7165               104.5712

                     40                     41                     42
                      A                      A                      A
 Frequencies --    875.7687               878.5818               964.1038
 Red. masses --      1.2478                 1.2496                 1.4350
 Frc consts  --      0.5639                 0.5683                 0.7859
 IR Inten    --      0.5675                 0.9367                 3.3165

                     43                     44                     45
                      A                      A                      A
 Frequencies --    965.4869               977.3593              1004.1457
 Red. masses --      1.5866                 4.3523                 1.1329
 Frc consts  --      0.8714                 2.4495                 0.6730
 IR Inten    --      8.1318                20.9080                78.6440

                     46                     47                     48
                      A                      A                      A
 Frequencies --   1012.9613              1015.8678              1026.4248
 Red. masses --      1.3835                 1.4020                 5.9487
 Frc consts  --      0.8364                 0.8525                 3.6926
 IR Inten    --      1.2775                 0.5222                 2.5972

                     49                     50                     51
                      A                      A                      A
 Frequencies --   1028.1462              1031.7734              1035.7260
 Red. masses --      5.1213                 1.3228                 1.3337
 Frc consts  --      3.1896                 0.8297                 0.8429
 IR Inten    --      3.3106                 0.2085                 0.3718

                     52                     53                     54
                      A                      A                      A
 Frequencies --   1058.1270              1060.1974              1067.2291
 Red. masses --      1.7885                 2.2172                 2.0068
 Frc consts  --      1.1798                 1.4683                 1.3467
 IR Inten    --     68.1530                35.9054                33.9048

                     55                     56                     57
                      A                      A                      A
 Frequencies --   1095.6000              1111.6002              1122.1307
 Red. masses --      1.9835                 1.5541                 1.5741
 Frc consts  --      1.4028                 1.1314                 1.1678
 IR Inten    --     13.4408                13.4109                 5.5488

                     58                     59                     60
                      A                      A                      A
 Frequencies --   1158.0829              1184.3991              1187.1199
 Red. masses --      4.3515                 1.1380                 1.1474
 Frc consts  --      3.4385                 0.9406                 0.9527
 IR Inten    --     12.1803                 0.2981                 2.4844

                     61                     62                     63
                      A                      A                      A
 Frequencies --   1189.0371              1206.2201              1209.4368
 Red. masses --      1.4092                 1.1613                 3.3684
 Frc consts  --      1.1738                 0.9955                 2.9030
 IR Inten    --     23.2998                25.5923                73.7885

                     64                     65                     66
                      A                      A                      A
 Frequencies --   1216.7406              1316.1462              1323.0397
 Red. masses --      1.1626                 4.3806                 4.2985
 Frc consts  --      1.0141                 4.4708                 4.4332
 IR Inten    --     19.1310               219.9294                16.6056

                     67                     68                     69
                      A                      A                      A
 Frequencies --   1336.0454              1341.1054              1359.2234
 Red. masses --      3.9958                 1.4979                 1.4567
 Frc consts  --      4.2024                 1.5873                 1.5857
 IR Inten    --     90.8166               107.7082                 3.2470

                     70                     71                     72
                      A                      A                      A
 Frequencies --   1362.7772              1404.0612              1461.7794
 Red. masses --      1.4435                 5.5704                 1.2120
 Frc consts  --      1.5795                 6.4701                 1.5259
 IR Inten    --     13.5746              1318.9044                34.2454

                     73                     74                     75
                      A                      A                      A
 Frequencies --   1491.0516              1491.8312              1497.8345
 Red. masses --      2.2511                 2.2430                 1.0443
 Frc consts  --      2.9487                 2.9412                 1.3804
 IR Inten    --     37.5033                20.0389                11.9205

                     76                     77                     78
                      A                      A                      A
 Frequencies --   1503.3450              1541.3927              1545.8355
 Red. masses --      1.0345                 2.3221                 2.3200
 Frc consts  --      1.3775                 3.2505                 3.2663
 IR Inten    --     13.7100                 3.7786                 0.6341

                     79                     80                     81
                      A                      A                      A
 Frequencies --   1620.7271              1645.5450              1652.8907
 Red. masses --      1.3090                 4.2194                 5.7672
 Frc consts  --      2.0259                 6.7317                 9.2833
 IR Inten    --    231.1196                87.1233                 1.5230

                     82                     83                     84
                      A                      A                      A
 Frequencies --   1662.3386              1674.3390              1675.2803
 Red. masses --      6.1600                 5.8531                 5.9003
 Frc consts  --     10.0293                 9.6676                 9.7567
 IR Inten    --    154.8079                10.6643                 0.6647

                     85                     86                     87
                      A                      A                      A
 Frequencies --   3050.5959              3123.9572              3170.8047
 Red. masses --      1.0397                 1.0976                 1.1042
 Frc consts  --      5.7009                 6.3109                 6.5409
 IR Inten    --     27.4187                15.7587                17.0354

                     88                     89                     90
                      A                      A                      A
 Frequencies --   3195.5554              3201.6280              3201.6524
 Red. masses --      1.0859                 1.0866                 1.0881
 Frc consts  --      6.5331                 6.5621                 6.5717
 IR Inten    --      0.8557                 0.1176                 0.6793

                     91                     92                     93
                      A                      A                      A
 Frequencies --   3208.3130              3211.1652              3216.0495
 Red. masses --      1.0918                 1.0904                 1.0954
 Frc consts  --      6.6214                 6.6249                 6.6750
 IR Inten    --     11.4430                11.2846                32.8502

                     94                     95                     96
                      A                      A                      A
 Frequencies --   3222.0365              3223.8213              3231.2649
 Red. masses --      1.0948                 1.0990                 1.0954
 Frc consts  --      6.6967                 6.7293                 6.7388
 IR Inten    --     20.5519                18.0666                 9.1828

                     97                     98                     99
                      A                      A                      A
 Frequencies --   3250.2601              3533.7790              3626.1797
 Red. masses --      1.0921                 1.0503                 1.0978
 Frc consts  --      6.7978                 7.7272                 8.5047
 IR Inten    --      5.3134                50.0444                82.1243

 - Thermochemistry -
 -------------------
 Temperature   298.150 Kelvin.  Pressure   1.00000 Atm.
 Atom     1 has atomic number  6 and mass  12.00000

 Molecular mass:   307.05307 amu.
 Principal axes and moments of inertia in atomic units:
                           1         2         3
     Eigenvalues --  3295.88896********************
           X            0.99999  -0.00091  -0.00419
           Y            0.00029   0.98948  -0.14468
           Z            0.00427   0.14467   0.98947
 This molecule is an asymmetric top.
 Rotational symmetry number  1.
 Warning -- assumption of classical behavior for rotation
           may cause significant error
 Rotational temperatures (Kelvin)      0.02628     0.00858     0.00797
 Rotational constants (GHZ):           0.54757     0.17868     0.16604
    1 imaginary frequencies ignored.
 Zero-point vibrational energy     720651.7 (Joules/Mol)
                                  172.23988 (Kcal/Mol)
 Warning -- explicit consideration of  27 degrees of freedom as
           vibrations may cause significant error
 Vibrational temperatures:     33.24    48.68    60.73    84.38   114.28
          (Kelvin)            152.40   160.51   211.49   236.39   246.30
                              281.65   298.99   319.29   332.12   362.12
                              388.40   438.05   489.00   524.27   546.45
                              602.23   603.60   631.74   716.00   781.55
                              823.38   857.35   913.86   917.54   924.14
                              989.62  1039.28  1040.75  1074.67  1095.98
                             1158.69  1188.26  1221.80  1260.04  1264.08
                             1387.13  1389.12  1406.20  1444.74  1457.43
                             1461.61  1476.80  1479.27  1484.49  1490.18
                             1522.41  1525.39  1535.50  1576.32  1599.34
                             1614.50  1666.22  1704.09  1708.00  1710.76
                             1735.48  1740.11  1750.62  1893.64  1903.56
                             1922.27  1929.55  1955.62  1960.73  2020.13
                             2103.17  2145.29  2146.41  2155.05  2162.98
                             2217.72  2224.11  2331.86  2367.57  2378.14
                             2391.73  2409.00  2410.35  4389.13  4494.68
                             4562.08  4597.69  4606.43  4606.46  4616.05
                             4620.15  4627.18  4635.79  4638.36  4649.07
                             4676.40  5084.32  5217.26

 Zero-point correction=                           0.274482 (Hartree/Particle)
 Thermal correction to Energy=                    0.293023
 Thermal correction to Enthalpy=                  0.293968
 Thermal correction to Gibbs Free Energy=         0.225912
 Sum of electronic and zero-point Energies=          -1668.828210
 Sum of electronic and thermal Energies=             -1668.809669
 Sum of electronic and thermal Enthalpies=           -1668.808724
 Sum of electronic and thermal Free Energies=        -1668.876780

                     E (Thermal)             CV                S
                      KCal/Mol        Cal/Mol-Kelvin    Cal/Mol-Kelvin
 Total                  183.875             69.498            143.236
 Electronic               0.000              0.000              0.000
 Translational            0.889              2.981             43.062
 Rotational               0.889              2.981             34.247
 Vibrational            182.098             63.537             65.927
 Vibration     1          0.593              1.985              6.348
 Vibration     2          0.594              1.983              5.591
 Vibration     3          0.595              1.980              5.153
 Vibration     4          0.596              1.974              4.502
 Vibration     5          0.600              1.963              3.905
 Vibration     6          0.605              1.944              3.342
 Vibration     7          0.607              1.940              3.242
 Vibration     8          0.617              1.906              2.711
 Vibration     9          0.623              1.886              2.500
 Vibration    10          0.626              1.878              2.422
 Vibration    11          0.636              1.846              2.173
 Vibration    12          0.641              1.829              2.063
 Vibration    13          0.648              1.808              1.943
 Vibration    14          0.653              1.794              1.872
 Vibration    15          0.664              1.760              1.719
 Vibration    16          0.674              1.729              1.596
 Vibration    17          0.695              1.665              1.392
 Vibration    18          0.720              1.596              1.213
 Vibration    19          0.738              1.546              1.103
 Vibration    20          0.750              1.513              1.040
 Vibration    21          0.781              1.430              0.897
 Vibration    22          0.782              1.428              0.894
 Vibration    23          0.799              1.385              0.830
 Vibration    24          0.853              1.255              0.664
 Vibration    25          0.898              1.155              0.558
 Vibration    26          0.928              1.091              0.500
 Vibration    27          0.954              1.041              0.457

 Optimization completed.
    -- Stationary point found.
 Normal termination of Gaussian 16 at Mon Feb  8 06:12:20 2021.
