 Gaussian 16, Revision A.03,
 Gaussian 16:  ES64L-G16RevA.03 25-Dec-2016

 ----------------------------------------------------------------------
 # wB97XD def2tzvp, opt=(ts, noeigen, calcfc, maxcycles=70, maxstep=1),
  freq=noraman, scrf=(iefpcm, solvent=water)
 ----------------------------------------------------------------------

 ------------------------
 0_iteration/TS-290-0.out
 ------------------------
 Symbolic Z-matrix:
 Charge =  0 Multiplicity = 1

 SCF Done:  E(RwB97XD) =  -366.427681490     A.U. after   14 cycles
 SCF Done:  E(RwB97XD) =  -366.427546260     A.U. after   10 cycles
 SCF Done:  E(RwB97XD) =  -366.427422361     A.U. after   10 cycles
 SCF Done:  E(RwB97XD) =  -366.427319720     A.U. after   10 cycles
 SCF Done:  E(RwB97XD) =  -366.427220688     A.U. after   10 cycles
 SCF Done:  E(RwB97XD) =  -366.427125164     A.U. after   10 cycles
 SCF Done:  E(RwB97XD) =  -366.427017602     A.U. after   10 cycles
 SCF Done:  E(RwB97XD) =  -366.426915582     A.U. after   10 cycles
 SCF Done:  E(RwB97XD) =  -366.426827952     A.U. after   10 cycles
 SCF Done:  E(RwB97XD) =  -366.426808389     A.U. after   11 cycles
 SCF Done:  E(RwB97XD) =  -366.427229637     A.U. after   10 cycles
 SCF Done:  E(RwB97XD) =  -366.427244874     A.U. after   10 cycles
 SCF Done:  E(RwB97XD) =  -366.427257295     A.U. after   10 cycles
 SCF Done:  E(RwB97XD) =  -366.427267721     A.U. after   10 cycles
 SCF Done:  E(RwB97XD) =  -366.427275411     A.U. after   10 cycles
 SCF Done:  E(RwB97XD) =  -366.427279990     A.U. after   10 cycles
 SCF Done:  E(RwB97XD) =  -366.427280108     A.U. after   10 cycles
 SCF Done:  E(RwB97XD) =  -366.427280758     A.U. after    8 cycles
 SCF Done:  E(RwB97XD) =  -366.427280757     A.U. after    8 cycles
 Optimization completed.
    -- Stationary point found.
 Normal termination of Gaussian 16 at Tue Feb  9 08:00:32 2021.

 ---------------------------------------------------------------------
 #N Geom=AllCheck Guess=TCheck SCRF=Check GenChk RwB97XD/def2TZVP Freq
 ---------------------------------------------------------------------

 Structure from the checkpoint file:  "/beegfs/scratch/user/q/tla25/Gau-28405.chk"
 ------------------------
 0_iteration/TS-290-0.out
 ------------------------
 Charge =  0 Multiplicity = 1

                         Standard orientation:
 ---------------------------------------------------------------------
 Center     Atomic      Atomic             Coordinates (Angstroms)
 Number     Number       Type             X           Y           Z
 ---------------------------------------------------------------------
      1          6           0        0.447803   -0.055488   -0.859464
      2          6           0        1.506506   -0.027045    0.085577
      3          8           0        1.512192    0.623027    1.146299
      4          6           0       -0.745904    0.664995   -0.763942
      5          6           0       -1.978926   -1.735475    0.159066
      6          1           0       -2.461410   -2.317190    0.945220
      7          1           0       -2.493692   -1.911413   -0.784339
      8          1           0       -0.942363   -2.060851    0.056013
      9          7           0       -1.981147   -0.309375    0.446382
     10          1           0       -2.910686    0.088911    0.395516
     11          1           0       -1.604530   -0.116511    1.366498
     12          1           0       -1.405808    0.545630   -1.618199
     13          6           0       -0.861956    2.015528   -0.112786
     14          1           0       -0.347440    2.743716   -0.744521
     15          1           0       -1.902928    2.328101   -0.028449
     16          1           0       -0.386380    2.029247    0.863824
     17          1           0        0.525563   -0.778331   -1.661693
     18          6           0        2.727164   -0.880649   -0.219443
     19          1           0        2.659132   -1.403541   -1.172699
     20          1           0        3.614024   -0.243754   -0.225529
     21          1           0        2.858896   -1.613807    0.579241
 ---------------------------------------------------------------------

 SCF Done:  E(RwB97XD) =  -366.427280757     A.U. after    1 cycles

 The electronic state is 1-A.
 Alpha  occ. eigenvalues --  -19.19172 -14.46925 -10.33968 -10.33044 -10.30959
 Alpha  occ. eigenvalues --  -10.27146 -10.26463 -10.23869  -1.09592  -1.02516
 Alpha  occ. eigenvalues --   -0.88845  -0.83232  -0.78551  -0.77192  -0.68944
 Alpha  occ. eigenvalues --   -0.62365  -0.58189  -0.56012  -0.55529  -0.54016
 Alpha  occ. eigenvalues --   -0.51727  -0.50691  -0.48841  -0.48608  -0.47129
 Alpha  occ. eigenvalues --   -0.46094  -0.44088  -0.43367  -0.41947  -0.39387
 Alpha  occ. eigenvalues --   -0.30786  -0.27532
 Alpha virt. eigenvalues --    0.05047   0.10173   0.13012   0.13970   0.14699
 Alpha virt. eigenvalues --    0.16534   0.16928   0.17832   0.18310   0.19631
 Alpha virt. eigenvalues --    0.20189   0.21112   0.21566   0.22793   0.23110

 Mulliken charges:
               1
     1  C   -0.471158
     2  C    0.316633
     3  O   -0.563851
     4  C    0.028943
     5  C   -0.263759
     6  H    0.144710
     7  H    0.146243
     8  H    0.140251
     9  N   -0.370873
    10  H    0.279439
    11  H    0.275123
    12  H    0.139359
    13  C   -0.333058
    14  H    0.131691
    15  H    0.127797
    16  H    0.137555
    17  H    0.132871
    18  C   -0.368402
    19  H    0.118532
    20  H    0.126214
    21  H    0.125742
 Sum of Mulliken charges =  -0.00000

 Dipole moment (field-independent basis, Debye):
    X=             -7.6321    Y=             -2.3904    Z=             -1.4955  Tot=              8.1363
 Quadrupole moment (field-independent basis, Debye-Ang):
   XX=            -42.8025   YY=            -49.2343   ZZ=            -53.6437
   XY=             -2.3066   XZ=             -5.8636   YZ=             -2.3252

  Exact polarizability: 155.706  -1.665 110.267   2.719   1.553 108.167
 Approx polarizability: 112.341  -0.744  88.306   2.688   2.675  93.865

 ******    1 imaginary frequencies (negative Signs) ******

                      1                      2                      3
                      A                      A                      A
 Frequencies --   -345.8778                45.9103                67.4498
 Red. masses --      5.4491                 3.5226                 2.0122
 Frc consts  --      0.3841                 0.0044                 0.0054
 IR Inten    --    766.1689                14.7226                15.7710

                      4                      5                      6
                      A                      A                      A
 Frequencies --     78.3769                95.8211               164.2844
 Red. masses --      1.4864                 1.6582                 1.1618
 Frc consts  --      0.0054                 0.0090                 0.0185
 IR Inten    --      9.4597                 9.3417                 0.6784

                      7                      8                      9
                      A                      A                      A
 Frequencies --    181.1747               214.3076               238.9916
 Red. masses --      1.5411                 2.4959                 1.8790
 Frc consts  --      0.0298                 0.0675                 0.0632
 IR Inten    --      8.9771                10.1177                 4.3230

                     10                     11                     12
                      A                      A                      A
 Frequencies --    306.4652               384.4164               419.9511
 Red. masses --      2.8427                 2.8288                 2.6314
 Frc consts  --      0.1573                 0.2463                 0.2734
 IR Inten    --     13.6981                32.9258                30.3307

                     13                     14                     15
                      A                      A                      A
 Frequencies --    466.4515               604.7031               655.1515
 Red. masses --      2.8041                 1.6863                 2.6555
 Frc consts  --      0.3595                 0.3633                 0.6716
 IR Inten    --      6.1929                28.0850                16.4994

                     16                     17                     18
                      A                      A                      A
 Frequencies --    695.1322               753.3607               881.0025
 Red. masses --      1.8802                 1.3305                 3.8671
 Frc consts  --      0.5353                 0.4449                 1.7684
 IR Inten    --      8.6000               100.9479                27.5268

                     19                     20                     21
                      A                      A                      A
 Frequencies --    932.6667               976.6916               995.8982
 Red. masses --      1.7684                 1.1515                 1.3435
 Frc consts  --      0.9063                 0.6472                 0.7851
 IR Inten    --     17.9024               134.9546                11.5830

                     22                     23                     24
                      A                      A                      A
 Frequencies --   1006.1556              1041.5317              1052.8212
 Red. masses --      1.2513                 1.5336                 1.5177
 Frc consts  --      0.7463                 0.9802                 0.9911
 IR Inten    --     26.1088                37.5368                 3.0863

                     25                     26                     27
                      A                      A                      A
 Frequencies --   1088.7932              1115.6364              1166.2198
 Red. masses --      3.7108                 1.7806                 1.3018
 Frc consts  --      2.5918                 1.3058                 1.0432
 IR Inten    --     66.0489                39.5533                99.8989

                     28                     29                     30
                      A                      A                      A
 Frequencies --   1201.0865              1212.7225              1260.3648
 Red. masses --      1.4324                 2.3485                 1.3132
 Frc consts  --      1.2174                 2.0350                 1.2291
 IR Inten    --     13.2264                17.0744               147.9755

                     31                     32                     33
                      A                      A                      A
 Frequencies --   1348.2537              1382.9253              1398.2421
 Red. masses --      1.3261                 1.2601                 1.2591
 Frc consts  --      1.4202                 1.4199                 1.4504
 IR Inten    --      1.2910                22.2443                76.9492

                     34                     35                     36
                      A                      A                      A
 Frequencies --   1442.6185              1454.6800              1462.3277
 Red. masses --      1.3426                 1.3357                 1.2237
 Frc consts  --      1.6463                 1.6653                 1.5417
 IR Inten    --    171.9141                84.9232               118.9794

                     37                     38                     39
                      A                      A                      A
 Frequencies --   1470.0942              1479.1703              1492.3373
 Red. masses --      1.0485                 1.2093                 1.0451
 Frc consts  --      1.3351                 1.5589                 1.3713
 IR Inten    --      9.6919                45.0560                38.4456

                     40                     41                     42
                      A                      A                      A
 Frequencies --   1493.6906              1500.5692              1516.7280
 Red. masses --      1.0906                 1.0464                 2.1392
 Frc consts  --      1.4336                 1.3882                 2.8995
 IR Inten    --     41.5843                19.1509               650.2515

                     43                     44                     45
                      A                      A                      A
 Frequencies --   1638.1300              1647.4743              3051.9273
 Red. masses --      7.1045                 1.0933                 1.0360
 Frc consts  --     11.2327                 1.7483                 5.6852
 IR Inten    --    470.0758                38.3725                24.2046

                     46                     47                     48
                      A                      A                      A
 Frequencies --   3055.9794              3061.1156              3122.4609
 Red. masses --      1.0334                 1.0399                 1.1007
 Frc consts  --      5.6860                 5.7412                 6.3228
 IR Inten    --     52.7464                26.8926                22.0640

                     49                     50                     51
                      A                      A                      A
 Frequencies --   3125.2320              3129.9420              3145.4220
 Red. masses --      1.0995                 1.1044                 1.1029
 Frc consts  --      6.3269                 6.3745                 6.4291
 IR Inten    --     36.7787                14.1534                35.8171

                     52                     53                     54
                      A                      A                      A
 Frequencies --   3152.1748              3154.6118              3181.9429
 Red. masses --      1.1046                 1.0897                 1.0989
 Frc consts  --      6.4663                 6.3894                 6.5552
 IR Inten    --     27.9095                14.5129                 9.5244

                     55                     56                     57
                      A                      A                      A
 Frequencies --   3195.2714              3534.2022              3619.5485
 Red. masses --      1.0905                 1.0501                 1.0963
 Frc consts  --      6.5599                 7.7280                 8.4621
 IR Inten    --     33.6222                29.9314                40.2965

 - Thermochemistry -
 -------------------
 Temperature   298.150 Kelvin.  Pressure   1.00000 Atm.
 Atom     1 has atomic number  6 and mass  12.00000

 Molecular mass:   115.09971 amu.
 Principal axes and moments of inertia in atomic units:
                           1         2         3
     Eigenvalues --   699.511851374.358041697.04928
           X            0.99963  -0.02161  -0.01624
           Y            0.02162   0.99977   0.00009
           Z            0.01623  -0.00044   0.99987
 This molecule is an asymmetric top.
 Rotational symmetry number  1.
 Warning -- assumption of classical behavior for rotation
           may cause significant error
 Rotational temperatures (Kelvin)      0.12382     0.06302     0.05104
 Rotational constants (GHZ):           2.58000     1.31315     1.06346
    1 imaginary frequencies ignored.
 Zero-point vibrational energy     487840.8 (Joules/Mol)
                                  116.59675 (Kcal/Mol)
 Warning -- explicit consideration of  13 degrees of freedom as
           vibrations may cause significant error
 Vibrational temperatures:     66.05    97.05   112.77   137.87   236.37
          (Kelvin)            260.67   308.34   343.86   440.94   553.09
                              604.22   671.12   870.03   942.62  1000.14
                             1083.92  1267.57  1341.90  1405.24  1432.88
                             1447.63  1498.53  1514.77  1566.53  1605.15
                             1677.93  1728.10  1744.84  1813.38  1939.84
                             1989.72  2011.76  2075.61  2092.96  2103.96
                             2115.14  2128.20  2147.14  2149.09  2158.98
                             2182.23  2356.90  2370.35  4391.04  4396.87
                             4404.26  4492.52  4496.51  4503.29  4525.56
                             4535.28  4538.78  4578.11  4597.28  5084.93
                             5207.72

 Zero-point correction=                           0.185809 (Hartree/Particle)
 Thermal correction to Energy=                    0.196302
 Thermal correction to Enthalpy=                  0.197246
 Thermal correction to Gibbs Free Energy=         0.149291
 Sum of electronic and zero-point Energies=           -366.241472
 Sum of electronic and thermal Energies=              -366.230979
 Sum of electronic and thermal Enthalpies=            -366.230035
 Sum of electronic and thermal Free Energies=         -366.277990

                     E (Thermal)             CV                S
                      KCal/Mol        Cal/Mol-Kelvin    Cal/Mol-Kelvin
 Total                  123.181             35.916            100.930
 Electronic               0.000              0.000              0.000
 Translational            0.889              2.981             40.137
 Rotational               0.889              2.981             28.880
 Vibrational            121.404             29.954             31.913
 Vibration     1          0.595              1.979              4.986
 Vibration     2          0.598              1.970              4.226
 Vibration     3          0.600              1.964              3.931
 Vibration     4          0.603              1.952              3.538
 Vibration     5          0.623              1.886              2.500
 Vibration     6          0.630              1.865              2.316
 Vibration     7          0.644              1.819              2.007
 Vibration     8          0.657              1.781              1.810
 Vibration     9          0.697              1.661              1.381
 Vibration    10          0.753              1.503              1.022
 Vibration    11          0.783              1.427              0.892
 Vibration    12          0.824              1.324              0.748
 Vibration    13          0.963              1.022              0.442

 Optimization completed.
    -- Stationary point found.
 Normal termination of Gaussian 16 at Tue Feb  9 08:09:18 2021.
