 Gaussian 16, Revision A.03,
 Gaussian 16:  ES64L-G16RevA.03 25-Dec-2016

 ----------------------------------------------------------------------
 # wB97XD def2tzvp, opt=(ts, noeigen, calcfc, maxcycles=70, maxstep=1),
  freq=noraman, scrf=(iefpcm, solvent=water)
 ----------------------------------------------------------------------

 ------------------------
 0_iteration/TS-289-0.out
 ------------------------
 Symbolic Z-matrix:
 Charge =  0 Multiplicity = 1

 SCF Done:  E(RwB97XD) =  -327.099897180     A.U. after   14 cycles
 SCF Done:  E(RwB97XD) =  -327.099833390     A.U. after   10 cycles
 SCF Done:  E(RwB97XD) =  -327.099773361     A.U. after   10 cycles
 SCF Done:  E(RwB97XD) =  -327.099717137     A.U. after   10 cycles
 SCF Done:  E(RwB97XD) =  -327.099664784     A.U. after   10 cycles
 SCF Done:  E(RwB97XD) =  -327.099616376     A.U. after   10 cycles
 SCF Done:  E(RwB97XD) =  -327.099572006     A.U. after   10 cycles
 SCF Done:  E(RwB97XD) =  -327.099531791     A.U. after   10 cycles
 SCF Done:  E(RwB97XD) =  -327.099495901     A.U. after   10 cycles
 SCF Done:  E(RwB97XD) =  -327.099464602     A.U. after   10 cycles
 SCF Done:  E(RwB97XD) =  -327.103480523     A.U. after   10 cycles
 SCF Done:  E(RwB97XD) =  -327.103498678     A.U. after   10 cycles
 SCF Done:  E(RwB97XD) =  -327.103506522     A.U. after   10 cycles
 SCF Done:  E(RwB97XD) =  -327.103513601     A.U. after   10 cycles
 SCF Done:  E(RwB97XD) =  -327.103523002     A.U. after   10 cycles
 SCF Done:  E(RwB97XD) =  -327.103531390     A.U. after   10 cycles
 SCF Done:  E(RwB97XD) =  -327.103535729     A.U. after   10 cycles
 SCF Done:  E(RwB97XD) =  -327.103536232     A.U. after    9 cycles
 SCF Done:  E(RwB97XD) =  -327.103536158     A.U. after    8 cycles
 Optimization completed.
    -- Stationary point found.
 Normal termination of Gaussian 16 at Tue Feb  9 07:19:12 2021.

 ---------------------------------------------------------------------
 #N Geom=AllCheck Guess=TCheck SCRF=Check GenChk RwB97XD/def2TZVP Freq
 ---------------------------------------------------------------------

 Structure from the checkpoint file:  "/beegfs/scratch/user/q/tla25/Gau-34346.chk"
 ------------------------
 0_iteration/TS-289-0.out
 ------------------------
 Charge =  0 Multiplicity = 1

                         Standard orientation:
 ---------------------------------------------------------------------
 Center     Atomic      Atomic             Coordinates (Angstroms)
 Number     Number       Type             X           Y           Z
 ---------------------------------------------------------------------
      1          6           0       -1.032644   -0.200602    0.688734
      2          6           0       -2.045631   -0.039312   -0.273555
      3          8           0       -3.153620   -0.596510   -0.277105
      4          6           0        0.212448    0.434352    0.634341
      5          6           0        2.919114   -0.528067   -0.140548
      6          1           0        3.161132    0.361577   -0.718301
      7          1           0        3.172644   -0.347742    0.903900
      8          1           0        3.519994   -1.360380   -0.510515
      9          7           0        1.486357   -0.796291   -0.241157
     10          1           0        1.175664   -0.846328   -1.204530
     11          1           0        1.239749   -1.672590    0.202288
     12          1           0        0.787977    0.397795    1.554242
     13          6           0        0.476854    1.673985   -0.176521
     14          1           0       -0.064768    2.509017    0.271353
     15          1           0        1.535658    1.927324   -0.172047
     16          1           0        0.148124    1.577613   -1.210164
     17          1           0       -1.212920   -0.909503    1.490707
     18          1           0       -1.819647    0.667201   -1.096696
 ---------------------------------------------------------------------

 SCF Done:  E(RwB97XD) =  -327.103536158     A.U. after    1 cycles

 The electronic state is 1-A.
 Alpha  occ. eigenvalues --  -19.19735 -14.47275 -10.33914 -10.33456 -10.31568
 Alpha  occ. eigenvalues --  -10.28137 -10.24416  -1.09650  -1.02839  -0.89912
 Alpha  occ. eigenvalues --   -0.80254  -0.78458  -0.71166  -0.62245  -0.61978
 Alpha  occ. eigenvalues --   -0.57596  -0.54628  -0.54029  -0.52576  -0.49508
 Alpha  occ. eigenvalues --   -0.48799  -0.47671  -0.45482  -0.45065  -0.43929
 Alpha  occ. eigenvalues --   -0.40570  -0.31386  -0.27648
 Alpha virt. eigenvalues --    0.04836   0.10198   0.13103   0.14078   0.15262
 Alpha virt. eigenvalues --    0.15687   0.17676   0.18149   0.18725   0.20050
 Alpha virt. eigenvalues --    0.20221   0.20930   0.22712   0.23974   0.25061

 Mulliken charges:
               1
     1  C   -0.307667
     2  C    0.129404
     3  O   -0.543103
     4  C   -0.013607
     5  C   -0.280424
     6  H    0.151585
     7  H    0.147735
     8  H    0.150499
     9  N   -0.356430
    10  H    0.274239
    11  H    0.276342
    12  H    0.141287
    13  C   -0.361925
    14  H    0.149859
    15  H    0.139427
    16  H    0.137136
    17  H    0.116266
    18  H    0.049378
 Sum of Mulliken charges =  -0.00000

 Dipole moment (field-independent basis, Debye):
    X=             11.9449    Y=              0.4616    Z=             -0.6249  Tot=             11.9702
 Quadrupole moment (field-independent basis, Debye-Ang):
   XX=            -62.8185   YY=            -41.4101   ZZ=            -42.1847
   XY=             -8.4890   XZ=             -1.5081   YZ=             -0.7692

  Exact polarizability: 162.049   3.705  90.009   3.832  -1.411  86.330
 Approx polarizability: 115.330   4.050  74.042   3.230  -0.473  73.391

 ******    1 imaginary frequencies (negative Signs) ******

                      1                      2                      3
                      A                      A                      A
 Frequencies --   -335.7728                59.2021                81.1042
 Red. masses --      5.9964                 2.0327                 3.5996
 Frc consts  --      0.3983                 0.0042                 0.0140
 IR Inten    --    944.3238                 6.2949                 5.8787

                      4                      5                      6
                      A                      A                      A
 Frequencies --    158.9882               196.9370               205.8185
 Red. masses --      1.2283                 1.8492                 2.3061
 Frc consts  --      0.0183                 0.0423                 0.0576
 IR Inten    --      1.8244                 7.9672                 9.6355

                      7                      8                      9
                      A                      A                      A
 Frequencies --    234.4275               252.0856               318.2837
 Red. masses --      1.7382                 1.8257                 2.4004
 Frc consts  --      0.0563                 0.0684                 0.1433
 IR Inten    --      1.6495                 4.1953                10.0049

                     10                     11                     12
                      A                      A                      A
 Frequencies --    434.9577               454.9599               615.8710
 Red. masses --      3.2612                 3.5201                 1.4732
 Frc consts  --      0.3635                 0.4293                 0.3292
 IR Inten    --    152.9078                31.6509                32.2809

                     13                     14                     15
                      A                      A                      A
 Frequencies --    669.5433               784.8238               922.5705
 Red. masses --      2.3129                 1.2781                 2.2944
 Frc consts  --      0.6109                 0.4638                 1.1506
 IR Inten    --      7.7443               144.2895                39.9725

                     16                     17                     18
                      A                      A                      A
 Frequencies --    987.7771              1020.9091              1025.4988
 Red. masses --      1.1448                 1.1197                 1.4421
 Frc consts  --      0.6581                 0.6876                 0.8936
 IR Inten    --      6.1302               140.0907                 2.1853

                     19                     20                     21
                      A                      A                      A
 Frequencies --   1046.9190              1067.5944              1070.4560
 Red. masses --      1.6187                 1.7270                 2.4477
 Frc consts  --      1.0453                 1.1597                 1.6525
 IR Inten    --     18.8833                16.9121               206.9496

                     22                     23                     24
                      A                      A                      A
 Frequencies --   1169.4062              1207.5647              1212.8073
 Red. masses --      1.2793                 1.8812                 1.4320
 Frc consts  --      1.0308                 1.6162                 1.2410
 IR Inten    --    264.0904                31.1049                23.1828

                     25                     26                     27
                      A                      A                      A
 Frequencies --   1252.4574              1341.6838              1376.4562
 Red. masses --      1.3767                 1.3227                 1.3086
 Frc consts  --      1.2724                 1.4029                 1.4607
 IR Inten    --    156.9847                 1.5799               216.7465

                     28                     29                     30
                      A                      A                      A
 Frequencies --   1410.2074              1447.3191              1461.3482
 Red. masses --      1.2567                 1.7618                 1.2351
 Frc consts  --      1.4725                 2.1744                 1.5540
 IR Inten    --     73.3061               119.2687                10.6677

                     31                     32                     33
                      A                      A                      A
 Frequencies --   1476.6024              1492.7354              1495.5878
 Red. masses --      1.1775                 1.0502                 1.0767
 Frc consts  --      1.5126                 1.3788                 1.4190
 IR Inten    --     25.7047                14.2756                39.6055

                     34                     35                     36
                      A                      A                      A
 Frequencies --   1509.4794              1534.0047              1644.4217
 Red. masses --      1.0592                 2.2386                 1.1852
 Frc consts  --      1.4219                 3.1037                 1.8883
 IR Inten    --     22.9857               151.4458               327.2027

                     37                     38                     39
                      A                      A                      A
 Frequencies --   1653.6135              2913.3302              3061.1091
 Red. masses --      3.6849                 1.0799                 1.0353
 Frc consts  --      5.9367                 5.4004                 5.7159
 IR Inten    --   1057.3416               163.7813                62.4130

                     40                     41                     42
                      A                      A                      A
 Frequencies --   3070.9496              3134.0131              3140.2562
 Red. masses --      1.0377                 1.1035                 1.0994
 Frc consts  --      5.7658                 6.3861                 6.3874
 IR Inten    --     17.4987                22.6909                21.6795

                     43                     44                     45
                      A                      A                      A
 Frequencies --   3148.6846              3161.3192              3164.5614
 Red. masses --      1.0931                 1.0998                 1.1003
 Frc consts  --      6.3852                 6.4757                 6.4921
 IR Inten    --      1.0622                34.4211                32.9104

                     46                     47                     48
                      A                      A                      A
 Frequencies --   3174.5717              3528.2940              3612.0079
 Red. masses --      1.0931                 1.0508                 1.0963
 Frc consts  --      6.4906                 7.7075                 8.4270
 IR Inten    --     36.9496                15.0026                34.6740

 - Thermochemistry -
 -------------------
 Temperature   298.150 Kelvin.  Pressure   1.00000 Atm.
 Atom     1 has atomic number  6 and mass  12.00000

 Molecular mass:   101.08406 amu.
 Principal axes and moments of inertia in atomic units:
                           1         2         3
     Eigenvalues --   351.891551518.876291695.48618
           X            0.99991  -0.01327  -0.00335
           Y            0.01310   0.99892  -0.04461
           Z            0.00394   0.04456   0.99900
 This molecule is an asymmetric top.
 Rotational symmetry number  1.
 Rotational temperatures (Kelvin)      0.24614     0.05703     0.05109
 Rotational constants (GHZ):           5.12869     1.18821     1.06444
    1 imaginary frequencies ignored.
 Zero-point vibrational energy     415125.2 (Joules/Mol)
                                   99.21731 (Kcal/Mol)
 Warning -- explicit consideration of  11 degrees of freedom as
           vibrations may cause significant error
 Vibrational temperatures:     85.18   116.69   228.75   283.35   296.13
          (Kelvin)            337.29   362.69   457.94   625.81   654.59
                              886.10   963.32  1129.19  1327.37  1421.19
                             1468.86  1475.46  1506.28  1536.03  1540.15
                             1682.51  1737.42  1744.96  1802.01  1930.38
                             1980.41  2028.97  2082.37  2102.55  2124.50
                             2147.71  2151.82  2171.80  2207.09  2365.96
                             2379.18  4191.63  4404.25  4418.41  4509.15
                             4518.13  4530.25  4548.43  4553.10  4567.50
                             5076.43  5196.87

 Zero-point correction=                           0.158113 (Hartree/Particle)
 Thermal correction to Energy=                    0.166938
 Thermal correction to Enthalpy=                  0.167882
 Thermal correction to Gibbs Free Energy=         0.124349
 Sum of electronic and zero-point Energies=           -326.945423
 Sum of electronic and thermal Energies=              -326.936598
 Sum of electronic and thermal Enthalpies=            -326.935654
 Sum of electronic and thermal Free Energies=         -326.979187

                     E (Thermal)             CV                S
                      KCal/Mol        Cal/Mol-Kelvin    Cal/Mol-Kelvin
 Total                  104.755             30.247             91.622
 Electronic               0.000              0.000              0.000
 Translational            0.889              2.981             39.750
 Rotational               0.889              2.981             28.296
 Vibrational            102.978             24.286             23.576
 Vibration     1          0.597              1.974              4.484
 Vibration     2          0.600              1.962              3.864
 Vibration     3          0.621              1.893              2.562
 Vibration     4          0.636              1.844              2.162
 Vibration     5          0.640              1.832              2.080
 Vibration     6          0.654              1.788              1.845
 Vibration     7          0.664              1.759              1.716
 Vibration     8          0.705              1.639              1.319
 Vibration     9          0.796              1.394              0.843
 Vibration    10          0.813              1.350              0.781
 Vibration    11          0.975              0.998              0.423

 Optimization completed.
    -- Stationary point found.
 Normal termination of Gaussian 16 at Tue Feb  9 07:24:44 2021.
