 Gaussian 16, Revision A.03,
 Gaussian 16:  ES64L-G16RevA.03 25-Dec-2016

 ----------------------------------------------------------------------
 # wB97XD def2tzvp, opt=(ts, noeigen, calcfc, maxcycles=70, maxstep=8),
  freq=noraman, scrf=(iefpcm, solvent=water)
 ----------------------------------------------------------------------

 ------------------------
 1_iteration/TS-244-1.out
 ------------------------
 Symbolic Z-matrix:
 Charge =  0 Multiplicity = 1

 SCF Done:  E(RwB97XD) =  -633.403041189     A.U. after   14 cycles
 Optimization completed.
    -- Stationary point found.
 Normal termination of Gaussian 16 at Wed Feb 10 10:05:51 2021.

 ---------------------------------------------------------------------
 #N Geom=AllCheck Guess=TCheck SCRF=Check GenChk RwB97XD/def2TZVP Freq
 ---------------------------------------------------------------------

 Structure from the checkpoint file:  "/beegfs/scratch/user/q/tla25/Gau-21478.chk"
 ------------------------
 1_iteration/TS-244-1.out
 ------------------------
 Charge =  0 Multiplicity = 1

                         Standard orientation:
 ---------------------------------------------------------------------
 Center     Atomic      Atomic             Coordinates (Angstroms)
 Number     Number       Type             X           Y           Z
 ---------------------------------------------------------------------
      1          6           0       -0.499110    0.038060   -0.482710
      2          6           0       -1.155391    1.302539   -0.274720
      3          8           0       -2.368411    1.481288   -0.264120
      4          6           0       -1.323470   -1.025381   -0.822650
      5          6           0       -2.993428   -2.990782    0.476950
      6          1           0       -3.432678   -3.412802    1.382270
      7          1           0       -3.794259   -2.641252   -0.173620
      8          1           0       -2.438948   -3.770542   -0.043460
      9          7           0       -2.094919   -1.877791    0.761300
     10          1           0       -2.567060   -1.110582    1.223040
     11          1           0       -1.307849   -2.155111    1.334060
     12          1           0       -0.876939   -1.945081   -1.179680
     13          1           0       -2.299540   -0.807241   -1.236160
     14          6           0        0.940810   -0.184700   -0.223750
     15          6           0        1.589760    0.343681    0.897900
     16          6           0        2.928540    0.085112    1.146860
     17          6           0        3.662120   -0.721898    0.287560
     18          6           0        3.036721   -1.260438   -0.827650
     19          6           0        1.700380   -0.988809   -1.080320
     20          1           0        1.032749    0.964691    1.587270
     21          1           0        3.399710    0.509242    2.025560
     22          1           0        4.707040   -0.926487    0.483990
     23          1           0        3.594461   -1.886438   -1.513850
     24          1           0        1.237431   -1.399829   -1.969990
     25          8           0       -0.306792    2.345480   -0.113060
     26          6           0       -0.900392    3.615209    0.111980
     27          1           0       -0.074683    4.309800    0.247490
     28          1           0       -1.506843    3.922869   -0.740630
     29          1           0       -1.525772    3.603599    1.005370
 ---------------------------------------------------------------------

 SCF Done:  E(RwB97XD) =  -633.403041189     A.U. after    1 cycles

 The electronic state is 1-A.
 Alpha  occ. eigenvalues --  -19.27852 -19.20894 -14.47096 -10.39159 -10.32448
 Alpha  occ. eigenvalues --  -10.32104 -10.31476 -10.29520 -10.28373 -10.28332
 Alpha  occ. eigenvalues --  -10.28063 -10.27983 -10.27857 -10.25905  -1.19187
 Alpha  occ. eigenvalues --   -1.09438  -1.02624  -0.96042  -0.89731  -0.84318
 Alpha  occ. eigenvalues --   -0.82913  -0.81704  -0.78228  -0.72550  -0.69641
 Alpha  occ. eigenvalues --   -0.68405  -0.63529  -0.62821  -0.61274  -0.57929
 Alpha  occ. eigenvalues --   -0.56471  -0.55901  -0.55328  -0.53718  -0.52615
 Alpha  occ. eigenvalues --   -0.52332  -0.51798  -0.50057  -0.48834  -0.47714
 Alpha  occ. eigenvalues --   -0.47377  -0.46528  -0.45806  -0.43771  -0.42375
 Alpha  occ. eigenvalues --   -0.41874  -0.41445  -0.37705  -0.35784  -0.33541
 Alpha  occ. eigenvalues --   -0.33042  -0.25988
 Alpha virt. eigenvalues --    0.05206   0.05971   0.06674   0.10382   0.12948
 Alpha virt. eigenvalues --    0.13868   0.14652   0.15450   0.16147   0.16962
 Alpha virt. eigenvalues --    0.17842   0.17931   0.18107   0.18977   0.19409

 Mulliken charges:
               1
     1  C   -0.185454
     2  C    0.420751
     3  O   -0.520433
     4  C   -0.187495
     5  C   -0.268611
     6  H    0.146875
     7  H    0.146301
     8  H    0.147041
     9  N   -0.349961
    10  H    0.276413
    11  H    0.276900
    12  H    0.160232
    13  H    0.157028
    14  C    0.180874
    15  C   -0.260759
    16  C   -0.136754
    17  C   -0.166824
    18  C   -0.146401
    19  C   -0.265666
    20  H    0.134456
    21  H    0.135935
    22  H    0.138617
    23  H    0.136331
    24  H    0.143487
    25  O   -0.305484
    26  C   -0.192002
    27  H    0.135577
    28  H    0.124842
    29  H    0.124185
 Sum of Mulliken charges =  -0.00000

 Dipole moment (field-independent basis, Debye):
    X=             -2.0400    Y=             -5.6741    Z=              2.8179  Tot=              6.6556
 Quadrupole moment (field-independent basis, Debye-Ang):
   XX=            -82.1210   YY=            -68.9495   ZZ=            -79.2777
   XY=             13.1279   XZ=             -3.9173   YZ=              1.9667

  Exact polarizability: 246.785   3.189 212.673   4.961  16.502 170.265
 Approx polarizability: 188.490  -1.702 162.239   4.372  15.195 147.305

 ******    1 imaginary frequencies (negative Signs) ******

                      1                      2                      3
                      A                      A                      A
 Frequencies --   -350.6288                43.2571                53.6262
 Red. masses --      6.2829                 3.4917                 3.8398
 Frc consts  --      0.4551                 0.0038                 0.0065
 IR Inten    --    994.2676                 2.4863                 4.4012

                      4                      5                      6
                      A                      A                      A
 Frequencies --     63.4237                75.9013                88.4935
 Red. masses --      3.8973                 3.2378                 2.2991
 Frc consts  --      0.0092                 0.0110                 0.0106
 IR Inten    --      4.6444                 3.5876                 6.9685

                      7                      8                      9
                      A                      A                      A
 Frequencies --    102.3937               146.0868               171.2254
 Red. masses --      3.2568                 2.6572                 1.2610
 Frc consts  --      0.0201                 0.0334                 0.0218
 IR Inten    --      3.6577                15.2985                 2.4695

                     10                     11                     12
                      A                      A                      A
 Frequencies --    177.6978               202.7815               224.1162
 Red. masses --      1.2473                 3.3349                 3.6267
 Frc consts  --      0.0232                 0.0808                 0.1073
 IR Inten    --      1.9989                 4.7672                 4.1325

                     13                     14                     15
                      A                      A                      A
 Frequencies --    274.5246               331.8778               360.8427
 Red. masses --      4.2112                 4.3856                 2.7064
 Frc consts  --      0.1870                 0.2846                 0.2076
 IR Inten    --    102.9644                 6.5451                14.6394

                     16                     17                     18
                      A                      A                      A
 Frequencies --    408.9373               427.7907               487.1259
 Red. masses --      6.4588                 3.0031                 4.8148
 Frc consts  --      0.6364                 0.3238                 0.6731
 IR Inten    --     14.4444                 1.4148                93.2432

                     19                     20                     21
                      A                      A                      A
 Frequencies --    515.7713               604.7931               626.4254
 Red. masses --      4.0197                 1.1455                 4.2669
 Frc consts  --      0.6300                 0.2469                 0.9865
 IR Inten    --      6.7532                27.9227                 8.4406

                     22                     23                     24
                      A                      A                      A
 Frequencies --    639.0278               666.2646               730.3508
 Red. masses --      5.9533                 4.7765                 1.5808
 Frc consts  --      1.4323                 1.2493                 0.4968
 IR Inten    --      0.9066                11.5516                83.9268

                     25                     26                     27
                      A                      A                      A
 Frequencies --    783.4551               794.7456               811.3530
 Red. masses --      3.6697                 3.3542                 4.5513
 Frc consts  --      1.3271                 1.2482                 1.7652
 IR Inten    --      4.0945                 2.6779               119.3817

                     28                     29                     30
                      A                      A                      A
 Frequencies --    879.2804               885.3679               951.7176
 Red. masses --      1.2503                 2.2337                 1.4600
 Frc consts  --      0.5695                 1.0316                 0.7791
 IR Inten    --      2.2195                16.2400                 8.6880

                     31                     32                     33
                      A                      A                      A
 Frequencies --    987.0000               997.7620              1010.5492
 Red. masses --      1.2096                 1.1307                 1.3649
 Frc consts  --      0.6942                 0.6632                 0.8212
 IR Inten    --      2.0043               138.7057                 0.4373

                     34                     35                     36
                      A                      A                      A
 Frequencies --   1021.6106              1023.1606              1048.4072
 Red. masses --      1.2921                 5.7517                 2.1984
 Frc consts  --      0.7946                 3.5476                 1.4237
 IR Inten    --      0.1245                 2.1159                11.7197

                     37                     38                     39
                      A                      A                      A
 Frequencies --   1064.4373              1074.7137              1087.1228
 Red. masses --      2.6073                 4.5087                 2.3734
 Frc consts  --      1.7405                 3.0682                 1.6527
 IR Inten    --     29.5297               233.5130                80.6229

                     40                     41                     42
                      A                      A                      A
 Frequencies --   1114.3387              1154.0105              1180.7627
 Red. masses --      1.6036                 1.3856                 1.1914
 Frc consts  --      1.1732                 1.0872                 0.9787
 IR Inten    --     24.9396               103.4409               140.4631

                     43                     44                     45
                      A                      A                      A
 Frequencies --   1182.1482              1183.3438              1206.0989
 Red. masses --      1.2528                 1.1622                 1.4432
 Frc consts  --      1.0315                 0.9589                 1.2369
 IR Inten    --      3.2743               161.8422                54.2708

                     46                     47                     48
                      A                      A                      A
 Frequencies --   1210.4295              1218.8407              1238.8466
 Red. masses --      1.6301                 1.1516                 3.2510
 Frc consts  --      1.4072                 1.0079                 2.9397
 IR Inten    --     13.6374                16.4006               335.4511

                     49                     50                     51
                      A                      A                      A
 Frequencies --   1305.0575              1341.3122              1358.4402
 Red. masses --      4.0931                 1.3356                 2.2029
 Frc consts  --      4.1074                 1.4158                 2.3951
 IR Inten    --     82.0976                 3.3274               238.7987

                     52                     53                     54
                      A                      A                      A
 Frequencies --   1381.0251              1389.4838              1463.1433
 Red. masses --      2.0312                 2.0098                 1.1844
 Frc consts  --      2.2825                 2.2862                 1.4939
 IR Inten    --    226.1883               162.0781                11.1052

                     55                     56                     57
                      A                      A                      A
 Frequencies --   1478.5661              1482.6564              1487.6729
 Red. masses --      1.3021                 1.0489                 1.8111
 Frc consts  --      1.6772                 1.3585                 2.3617
 IR Inten    --     73.0599                11.2534                 3.2403

                     58                     59                     60
                      A                      A                      A
 Frequencies --   1491.2909              1497.5004              1507.8224
 Red. masses --      1.0423                 1.0750                 1.0330
 Frc consts  --      1.3657                 1.4204                 1.3838
 IR Inten    --     12.5642                13.6046                25.7683

                     61                     62                     63
                      A                      A                      A
 Frequencies --   1516.8909              1547.7417              1640.9637
 Red. masses --      2.0960                 2.3961                 5.5222
 Frc consts  --      2.8415                 3.3818                 8.7611
 IR Inten    --    202.9158                73.8508                27.6353

                     64                     65                     66
                      A                      A                      A
 Frequencies --   1649.0467              1667.4201              1688.5023
 Red. masses --      1.0980                 6.0261                 8.5852
 Frc consts  --      1.7592                 9.8713                14.4213
 IR Inten    --     41.9488               310.7620               578.5514

                     67                     68                     69
                      A                      A                      A
 Frequencies --   3058.4590              3060.0685              3131.9438
 Red. masses --      1.0310                 1.0343                 1.1064
 Frc consts  --      5.6824                 5.7065                 6.3944
 IR Inten    --     78.6174                62.0363                42.3420

                     70                     71                     72
                      A                      A                      A
 Frequencies --   3135.1195              3155.3550              3160.3187
 Red. masses --      1.1035                 1.1054                 1.0595
 Frc consts  --      6.3906                 6.4846                 6.2346
 IR Inten    --     23.8486                22.1097                33.5761

                     73                     74                     75
                      A                      A                      A
 Frequencies --   3166.7655              3184.0836              3190.5625
 Red. masses --      1.1050                 1.0858                 1.0878
 Frc consts  --      6.5292                 6.4856                 6.5242
 IR Inten    --     28.2610                12.6284                 0.7950

                     76                     77                     78
                      A                      A                      A
 Frequencies --   3200.6103              3212.9705              3221.1862
 Red. masses --      1.0927                 1.0952                 1.0956
 Frc consts  --      6.5950                 6.6610                 6.6980
 IR Inten    --     38.7526                43.2457                12.2788

                     79                     80                     81
                      A                      A                      A
 Frequencies --   3247.2438              3538.7586              3623.5730
 Red. masses --      1.1167                 1.0502                 1.0969
 Frc consts  --      6.9379                 7.7490                 8.4857
 IR Inten    --      4.5695                17.9989                41.3427

 - Thermochemistry -
 -------------------
 Temperature   298.150 Kelvin.  Pressure   1.00000 Atm.
 Atom     1 has atomic number  6 and mass  12.00000

 Molecular mass:   193.11028 amu.
 Principal axes and moments of inertia in atomic units:
                           1         2         3
     Eigenvalues --  2506.278483423.511375241.95396
           X            0.99743   0.07155  -0.00312
           Y           -0.07152   0.99740   0.00843
           Z            0.00372  -0.00818   0.99996
 This molecule is an asymmetric top.
 Rotational symmetry number  1.
 Warning -- assumption of classical behavior for rotation
           may cause significant error
 Rotational temperatures (Kelvin)      0.03456     0.02530     0.01652
 Rotational constants (GHZ):           0.72009     0.52716     0.34429
    1 imaginary frequencies ignored.
 Zero-point vibrational energy     644271.6 (Joules/Mol)
                                  153.98460 (Kcal/Mol)
 Warning -- explicit consideration of  19 degrees of freedom as
           vibrations may cause significant error
 Vibrational temperatures:     62.24    77.16    91.25   109.21   127.32
          (Kelvin)            147.32   210.19   246.36   255.67   291.76
                              322.45   394.98   477.50   519.17   588.37
                              615.50   700.87   742.08   870.16   901.29
                              919.42   958.61  1050.81  1127.22  1143.46
                             1167.36  1265.09  1273.85  1369.31  1420.07
                             1435.56  1453.95  1469.87  1472.10  1508.42
                             1531.49  1546.27  1564.13  1603.28  1660.36
                             1698.85  1700.85  1702.57  1735.31  1741.54
                             1753.64  1782.42  1877.69  1929.85  1954.49
                             1986.99  1999.16  2105.14  2127.33  2133.21
                             2140.43  2145.64  2154.57  2169.42  2182.47
                             2226.86  2360.98  2372.61  2399.05  2429.38
                             4400.44  4402.76  4506.17  4510.74  4539.85
                             4546.99  4556.27  4581.19  4590.51  4604.96
                             4622.75  4634.57  4672.06  5091.48  5213.51

 Zero-point correction=                           0.245390 (Hartree/Particle)
 Thermal correction to Energy=                    0.259745
 Thermal correction to Enthalpy=                  0.260689
 Thermal correction to Gibbs Free Energy=         0.202756
 Sum of electronic and zero-point Energies=           -633.157651
 Sum of electronic and thermal Energies=              -633.143296
 Sum of electronic and thermal Enthalpies=            -633.142352
 Sum of electronic and thermal Free Energies=         -633.200285

                     E (Thermal)             CV                S
                      KCal/Mol        Cal/Mol-Kelvin    Cal/Mol-Kelvin
 Total                  162.992             51.839            121.930
 Electronic               0.000              0.000              0.000
 Translational            0.889              2.981             41.680
 Rotational               0.889              2.981             32.175
 Vibrational            161.215             45.877             48.075
 Vibration     1          0.595              1.980              5.104
 Vibration     2          0.596              1.976              4.679
 Vibration     3          0.597              1.972              4.348
 Vibration     4          0.599              1.965              3.994
 Vibration     5          0.601              1.957              3.693
 Vibration     6          0.604              1.947              3.408
 Vibration     7          0.617              1.907              2.723
 Vibration     8          0.626              1.878              2.422
 Vibration     9          0.628              1.870              2.352
 Vibration    10          0.639              1.836              2.108
 Vibration    11          0.649              1.804              1.926
 Vibration    12          0.677              1.720              1.568
 Vibration    13          0.714              1.612              1.251
 Vibration    14          0.735              1.553              1.118
 Vibration    15          0.773              1.451              0.930
 Vibration    16          0.789              1.410              0.866
 Vibration    17          0.843              1.279              0.691
 Vibration    18          0.871              1.215              0.620
 Vibration    19          0.963              1.022              0.441

 Optimization completed.
    -- Stationary point found.
 Normal termination of Gaussian 16 at Wed Feb 10 10:45:54 2021.
