 Gaussian 16, Revision A.03,
 Gaussian 16:  ES64L-G16RevA.03 25-Dec-2016

 ----------------------------------------------------------------------
 # wB97XD def2tzvp, opt=(ts, noeigen, calcfc, maxcycles=70, maxstep=8),
  freq=noraman, scrf=(iefpcm, solvent=water)
 ----------------------------------------------------------------------

 ------------------------
 1_iteration/TS-270-1.out
 ------------------------
 Symbolic Z-matrix:
 Charge =  0 Multiplicity = 1

 SCF Done:  E(RwB97XD) =  -2995.39793613     A.U. after   15 cycles
 SCF Done:  E(RwB97XD) =  -2995.39793829     A.U. after   10 cycles
 Optimization completed.
    -- Stationary point found.
 Normal termination of Gaussian 16 at Wed Feb 10 06:30:25 2021.

 ---------------------------------------------------------------------
 #N Geom=AllCheck Guess=TCheck SCRF=Check GenChk RwB97XD/def2TZVP Freq
 ---------------------------------------------------------------------

 Structure from the checkpoint file:  "/beegfs/scratch/user/q/tla25/Gau-78624.chk"
 ------------------------
 1_iteration/TS-270-1.out
 ------------------------
 Charge =  0 Multiplicity = 1

                         Standard orientation:
 ---------------------------------------------------------------------
 Center     Atomic      Atomic             Coordinates (Angstroms)
 Number     Number       Type             X           Y           Z
 ---------------------------------------------------------------------
      1          6           0       -0.192400    0.111676    0.539584
      2          6           0        0.589834   -1.050024    0.134956
      3          8           0        0.011436   -2.128775   -0.084952
      4          6           0       -1.483289   -0.074667    0.987156
      5          6           0       -4.003708   -1.042514   -0.018343
      6          1           0       -4.595049   -1.443444   -0.843294
      7          1           0       -3.910624   -1.808957    0.750631
      8          1           0       -4.525351   -0.186141    0.407099
      9          7           0       -2.671114   -0.630933   -0.439576
     10          1           0       -2.114077   -1.399405   -0.798167
     11          1           0       -2.693106    0.109503   -1.128758
     12          1           0       -2.066773    0.781753    1.299272
     13          1           0       -1.670033   -0.981118    1.551228
     14         35           0        0.203359    1.830427   -0.238176
     15          7           0        1.940515   -0.954968   -0.009760
     16          6           0        2.760062    0.004170    0.701879
     17          6           0        2.659922   -2.064699   -0.596371
     18          1           0        2.155612    0.578033    1.398239
     19          1           0        3.522387   -0.532060    1.273878
     20          1           0        3.263189    0.692043    0.017756
     21          1           0        2.035593   -2.565410   -1.331437
     22          1           0        3.556843   -1.683810   -1.086971
     23          1           0        2.964016   -2.798090    0.158470
 ---------------------------------------------------------------------

 SCF Done:  E(RwB97XD) =  -2995.39793829     A.U. after    1 cycles

 The electronic state is 1-A.
 Alpha  occ. eigenvalues -- -483.11668 -62.66506 -56.45603 -56.45279 -56.45271
 Alpha  occ. eigenvalues --  -19.20305 -14.46754 -14.45416 -10.37775 -10.32454
 Alpha  occ. eigenvalues --  -10.31387 -10.30601 -10.30304 -10.29654  -8.80621
 Alpha  occ. eigenvalues --   -6.62710  -6.61674  -6.61650  -2.73108  -2.72809
 Alpha  occ. eigenvalues --   -2.72789  -2.71951  -2.71950  -1.12930  -1.02891
 Alpha  occ. eigenvalues --   -1.02337  -0.91464  -0.82867  -0.81579  -0.79501
 Alpha  occ. eigenvalues --   -0.77938  -0.70127  -0.62626  -0.62080  -0.57936
 Alpha  occ. eigenvalues --   -0.56348  -0.55740  -0.55121  -0.52871  -0.51915
 Alpha  occ. eigenvalues --   -0.49601  -0.48378  -0.47739  -0.47607  -0.46902
 Alpha  occ. eigenvalues --   -0.45647  -0.44323  -0.42645  -0.38139  -0.37009
 Alpha  occ. eigenvalues --   -0.34178  -0.31650  -0.26346
 Alpha virt. eigenvalues --    0.05948   0.08380   0.10673   0.12291   0.14409
 Alpha virt. eigenvalues --    0.15601   0.15887   0.16879   0.17316   0.17629
 Alpha virt. eigenvalues --    0.19080   0.19305   0.19572   0.20047   0.21038

 Mulliken charges:
               1
     1  C   -0.235124
     2  C    0.341963
     3  O   -0.562184
     4  C   -0.186983
     5  C   -0.266887
     6  H    0.145206
     7  H    0.143170
     8  H    0.146692
     9  N   -0.344699
    10  H    0.269431
    11  H    0.273857
    12  H    0.173087
    13  H    0.159384
    14  Br  -0.185707
    15  N   -0.124030
    16  C   -0.296180
    17  C   -0.290933
    18  H    0.155115
    19  H    0.136106
    20  H    0.140165
    21  H    0.137665
    22  H    0.138953
    23  H    0.131933
 Sum of Mulliken charges =  -0.00000

 Dipole moment (field-independent basis, Debye):
    X=             -3.9258    Y=             -0.1347    Z=             -0.4844  Tot=              3.9579
 Quadrupole moment (field-independent basis, Debye-Ang):
   XX=            -46.5836   YY=            -84.1256   ZZ=            -72.8499
   XY=              0.4772   XZ=              1.9979   YZ=              0.4301

  Exact polarizability: 207.181   8.430 161.530   1.167  -1.138 122.434
 Approx polarizability: 149.014   7.920 132.912   0.838  -1.078 107.713

 ******    1 imaginary frequencies (negative Signs) ******

                      1                      2                      3
                      A                      A                      A
 Frequencies --   -370.7910                52.8295                61.0765
 Red. masses --      6.5459                 3.2413                 3.9874
 Frc consts  --      0.5302                 0.0053                 0.0088
 IR Inten    --   1032.9467                 2.5639                11.2180

                      4                      5                      6
                      A                      A                      A
 Frequencies --     95.0397               104.7910               116.7407
 Red. masses --      3.2489                 2.9988                 1.7897
 Frc consts  --      0.0173                 0.0194                 0.0144
 IR Inten    --      1.8690                 6.3464                10.4881

                      7                      8                      9
                      A                      A                      A
 Frequencies --    127.5753               158.8431               179.2027
 Red. masses --      1.7851                 1.2644                 1.5973
 Frc consts  --      0.0171                 0.0188                 0.0302
 IR Inten    --     18.4566                 0.6007                15.1316

                     10                     11                     12
                      A                      A                      A
 Frequencies --    185.1024               202.7956               238.5781
 Red. masses --      2.1300                 2.3207                 3.2243
 Frc consts  --      0.0430                 0.0562                 0.1081
 IR Inten    --      7.5371                 5.2319                22.2114

                     13                     14                     15
                      A                      A                      A
 Frequencies --    270.0614               338.4837               388.7930
 Red. masses --      2.7366                 2.2532                 3.2557
 Frc consts  --      0.1176                 0.1521                 0.2900
 IR Inten    --     37.2177                 1.3839                22.1598

                     16                     17                     18
                      A                      A                      A
 Frequencies --    424.3074               449.2859               591.3380
 Red. masses --      8.6163                 3.4435                 4.9281
 Frc consts  --      0.9140                 0.4095                 1.0153
 IR Inten    --     59.7511                64.1742                 8.8550

                     19                     20                     21
                      A                      A                      A
 Frequencies --    635.7557               650.3784               780.1881
 Red. masses --      1.2301                 3.7271                 9.4075
 Frc consts  --      0.2929                 0.9289                 3.3738
 IR Inten    --     19.5354                36.0561                54.6284

                     22                     23                     24
                      A                      A                      A
 Frequencies --    807.1342               965.4418               995.5627
 Red. masses --      2.7697                 1.6197                 1.2129
 Frc consts  --      1.0631                 0.8895                 0.7083
 IR Inten    --      8.3882                14.8154                64.2339

                     25                     26                     27
                      A                      A                      A
 Frequencies --   1016.4155              1057.5211              1079.7598
 Red. masses --      1.3668                 1.4221                 3.0502
 Frc consts  --      0.8320                 0.9371                 2.0952
 IR Inten    --    123.5951                25.0824               263.7279

                     28                     29                     30
                      A                      A                      A
 Frequencies --   1086.4530              1132.8903              1146.3677
 Red. masses --      1.5567                 1.2358                 1.4564
 Frc consts  --      1.0826                 0.9345                 1.1277
 IR Inten    --     30.4733                 7.2355               196.3034

                     31                     32                     33
                      A                      A                      A
 Frequencies --   1169.2378              1182.2036              1201.2284
 Red. masses --      1.3935                 1.1307                 1.4322
 Frc consts  --      1.1225                 0.9311                 1.2176
 IR Inten    --     21.6241               112.3041                18.0911

                     34                     35                     36
                      A                      A                      A
 Frequencies --   1221.8122              1313.1710              1344.9824
 Red. masses --      2.3144                 4.9279                 1.3456
 Frc consts  --      2.0356                 5.0067                 1.4342
 IR Inten    --     48.1438                19.8863                10.3592

                     37                     38                     39
                      A                      A                      A
 Frequencies --   1358.7358              1429.4840              1443.9522
 Red. masses --      1.9253                 2.0049                 1.1713
 Frc consts  --      2.0942                 2.4138                 1.4388
 IR Inten    --    313.1560               420.3929                20.7433

                     40                     41                     42
                      A                      A                      A
 Frequencies --   1463.4847              1473.4786              1482.8461
 Red. masses --      1.1956                 1.2043                 1.0676
 Frc consts  --      1.5087                 1.5406                 1.3831
 IR Inten    --     19.1199                85.5919                10.8514

                     43                     44                     45
                      A                      A                      A
 Frequencies --   1485.2502              1491.0916              1500.4705
 Red. masses --      1.0953                 1.0416                 1.3604
 Frc consts  --      1.4236                 1.3644                 1.8045
 IR Inten    --     47.9964                14.2229                67.0088

                     46                     47                     48
                      A                      A                      A
 Frequencies --   1503.5762              1508.3647              1533.9501
 Red. masses --      1.2905                 1.0710                 1.5742
 Frc consts  --      1.7189                 1.4357                 2.1824
 IR Inten    --    112.0839                 8.9390               223.5501

                     49                     50                     51
                      A                      A                      A
 Frequencies --   1619.3486              1656.3695              3025.8699
 Red. masses --      6.1153                 1.0949                 1.0470
 Frc consts  --      9.4482                 1.7698                 5.6483
 IR Inten    --    649.0118                49.3364                91.2857

                     52                     53                     54
                      A                      A                      A
 Frequencies --   3036.1833              3057.6742              3090.2890
 Red. masses --      1.0392                 1.0344                 1.1028
 Frc consts  --      5.6443                 5.6981                 6.2049
 IR Inten    --    113.7037                71.9445                65.9027

                     55                     56                     57
                      A                      A                      A
 Frequencies --   3104.1830              3131.6236              3152.5479
 Red. masses --      1.0928                 1.1035                 1.1027
 Frc consts  --      6.2040                 6.3761                 6.4573
 IR Inten    --     29.6213                25.8467                22.1426

                     58                     59                     60
                      A                      A                      A
 Frequencies --   3153.6313              3171.5849              3174.9063
 Red. masses --      1.0624                 1.1000                 1.0982
 Frc consts  --      6.2252                 6.5193                 6.5220
 IR Inten    --     25.5766                13.1295                12.0945

                     61                     62                     63
                      A                      A                      A
 Frequencies --   3243.6970              3520.8731              3614.8995
 Red. masses --      1.1167                 1.0521                 1.0954
 Frc consts  --      6.9228                 7.6844                 8.4333
 IR Inten    --      2.9962                27.3750                61.0564

 - Thermochemistry -
 -------------------
 Temperature   298.150 Kelvin.  Pressure   1.00000 Atm.
 Atom     1 has atomic number  6 and mass  12.00000

 Molecular mass:   208.02112 amu.
 Principal axes and moments of inertia in atomic units:
                           1         2         3
     Eigenvalues --  1798.514862614.713954079.30339
           X            0.99990  -0.01394   0.00040
           Y            0.01393   0.99968   0.02088
           Z           -0.00069  -0.02087   0.99978
 This molecule is an asymmetric top.
 Rotational symmetry number  1.
 Warning -- assumption of classical behavior for rotation
           may cause significant error
 Rotational temperatures (Kelvin)      0.04816     0.03313     0.02123
 Rotational constants (GHZ):           1.00346     0.69023     0.44241
    1 imaginary frequencies ignored.
 Zero-point vibrational energy     509607.5 (Joules/Mol)
                                  121.79910 (Kcal/Mol)
 Warning -- explicit consideration of  17 degrees of freedom as
           vibrations may cause significant error
 Vibrational temperatures:     76.01    87.88   136.74   150.77   167.96
          (Kelvin)            183.55   228.54   257.83   266.32   291.78
                              343.26   388.56   487.00   559.39   610.48
                              646.42   850.80   914.71   935.75  1122.52
                             1161.29  1389.06  1432.39  1462.40  1521.54
                             1553.53  1563.16  1629.98  1649.37  1682.27
                             1700.93  1728.30  1757.92  1889.36  1935.13
                             1954.92  2056.71  2077.53  2105.63  2120.01
                             2133.48  2136.94  2145.35  2158.84  2163.31
                             2170.20  2207.01  2329.88  2383.15  4353.55
                             4368.39  4399.31  4446.24  4466.23  4505.71
                             4535.81  4537.37  4563.20  4567.98  4666.96
                             5065.75  5201.03

 Zero-point correction=                           0.194099 (Hartree/Particle)
 Thermal correction to Energy=                    0.207001
 Thermal correction to Enthalpy=                  0.207945
 Thermal correction to Gibbs Free Energy=         0.153468
 Sum of electronic and zero-point Energies=          -2995.203839
 Sum of electronic and thermal Energies=             -2995.190937
 Sum of electronic and thermal Enthalpies=           -2995.189993
 Sum of electronic and thermal Free Energies=        -2995.244470

                     E (Thermal)             CV                S
                      KCal/Mol        Cal/Mol-Kelvin    Cal/Mol-Kelvin
 Total                  129.895             43.528            114.657
 Electronic               0.000              0.000              0.000
 Translational            0.889              2.981             41.901
 Rotational               0.889              2.981             31.329
 Vibrational            128.118             37.566             41.427
 Vibration     1          0.596              1.976              4.709
 Vibration     2          0.597              1.973              4.422
 Vibration     3          0.603              1.953              3.554
 Vibration     4          0.605              1.945              3.363
 Vibration     5          0.608              1.935              3.154
 Vibration     6          0.611              1.926              2.982
 Vibration     7          0.621              1.893              2.564
 Vibration     8          0.629              1.868              2.337
 Vibration     9          0.631              1.860              2.276
 Vibration    10          0.639              1.836              2.108
 Vibration    11          0.657              1.782              1.813
 Vibration    12          0.674              1.728              1.596
 Vibration    13          0.719              1.599              1.219
 Vibration    14          0.757              1.494              1.005
 Vibration    15          0.786              1.417              0.877
 Vibration    16          0.808              1.362              0.798
 Vibration    17          0.949              1.050              0.465

 Optimization completed.
    -- Stationary point found.
 Normal termination of Gaussian 16 at Wed Feb 10 06:49:54 2021.
