 Gaussian 16, Revision A.03,
 Gaussian 16:  ES64L-G16RevA.03 25-Dec-2016

 ----------------------------------------------------------------------
 # wB97XD def2tzvp, opt=(ts, noeigen, calcfc, maxcycles=70, maxstep=8),
  freq=noraman, scrf=(iefpcm, solvent=water)
 ----------------------------------------------------------------------

 ------------------------
 1_iteration/TS-213-1.out
 ------------------------
 Symbolic Z-matrix:
 Charge =  0 Multiplicity = 1

 SCF Done:  E(RwB97XD) =  -613.524066641     A.U. after   14 cycles
 SCF Done:  E(RwB97XD) =  -613.525107158     A.U. after   12 cycles
 SCF Done:  E(RwB97XD) =  -613.525364196     A.U. after   11 cycles
 SCF Done:  E(RwB97XD) =  -613.525412943     A.U. after   11 cycles
 SCF Done:  E(RwB97XD) =  -613.525423632     A.U. after   11 cycles
 SCF Done:  E(RwB97XD) =  -613.525423702     A.U. after   11 cycles
 SCF Done:  E(RwB97XD) =  -613.525425164     A.U. after   10 cycles
 SCF Done:  E(RwB97XD) =  -613.525425758     A.U. after    8 cycles
 SCF Done:  E(RwB97XD) =  -613.525426655     A.U. after    7 cycles
 SCF Done:  E(RwB97XD) =  -613.525426264     A.U. after    7 cycles
 SCF Done:  E(RwB97XD) =  -613.525401920     A.U. after   10 cycles
 SCF Done:  E(RwB97XD) =  -613.525426211     A.U. after   10 cycles
 SCF Done:  E(RwB97XD) =  -613.525426274     A.U. after    6 cycles
 SCF Done:  E(RwB97XD) =  -613.525426240     A.U. after    6 cycles
 Optimization completed.
    -- Stationary point found.
 Normal termination of Gaussian 16 at Thu Feb 11 04:29:31 2021.

 ---------------------------------------------------------------------
 #N Geom=AllCheck Guess=TCheck SCRF=Check GenChk RwB97XD/def2TZVP Freq
 ---------------------------------------------------------------------

 Structure from the checkpoint file:  "/beegfs/scratch/user/q/tla25/Gau-6577.chk"
 ------------------------
 1_iteration/TS-213-1.out
 ------------------------
 Charge =  0 Multiplicity = 1

                         Standard orientation:
 ---------------------------------------------------------------------
 Center     Atomic      Atomic             Coordinates (Angstroms)
 Number     Number       Type             X           Y           Z
 ---------------------------------------------------------------------
      1          6           0        1.497890    0.284866    0.977115
      2          6           0        1.882912   -0.978740    0.424382
      3          8           0        2.921160   -1.568788    0.784987
      4          6           0        0.407166    1.116253    0.639142
      5          6           0        1.940250    3.050644   -0.422565
      6          1           0        2.299607    3.590857   -1.296365
      7          1           0        1.639844    3.759748    0.346437
      8          1           0        2.732937    2.411703   -0.035094
      9          7           0        0.798347    2.201451   -0.761287
     10          1           0       -0.005521    2.758264   -1.034090
     11          1           0        1.038265    1.589896   -1.533975
     12          1           0        0.291955    1.932729    1.349687
     13          6           0       -0.954317    0.556939    0.297482
     14          6           0       -1.477314    0.419599   -0.984218
     15          6           0       -2.737781   -0.132898   -1.184683
     16          6           0       -3.498837   -0.549038   -0.107005
     17          6           0       -2.990779   -0.409683    1.178818
     18          6           0       -1.734911    0.135789    1.375269
     19          1           0       -0.912208    0.718705   -1.856971
     20          1           0       -3.117894   -0.235904   -2.193008
     21          1           0       -4.479842   -0.978571   -0.263729
     22          1           0       -3.576004   -0.728407    2.032109
     23          1           0       -1.341593    0.235455    2.379773
     24          1           0        2.226589    0.694265    1.664530
     25          7           0        1.109740   -1.562758   -0.555563
     26          6           0        1.346978   -2.925078   -0.972091
     27          1           0        0.169903   -1.226239   -0.665870
     28          1           0        0.644209   -3.170884   -1.767313
     29          1           0        2.358999   -3.038344   -1.360183
     30          1           0        1.217320   -3.645723   -0.157747
 ---------------------------------------------------------------------

 SCF Done:  E(RwB97XD) =  -613.525426240     A.U. after    1 cycles

 The electronic state is 1-A.
 Alpha  occ. eigenvalues --  -19.17976 -14.49896 -14.42805 -10.35584 -10.34186
 Alpha  occ. eigenvalues --  -10.31964 -10.31109 -10.29846 -10.29824 -10.29545
 Alpha  occ. eigenvalues --  -10.29469 -10.29370 -10.29250 -10.23294  -1.10370
 Alpha  occ. eigenvalues --   -1.05340  -0.99398  -0.97398  -0.89582  -0.85739
 Alpha  occ. eigenvalues --   -0.83565  -0.79565  -0.78651  -0.72861  -0.70943
 Alpha  occ. eigenvalues --   -0.68336  -0.64965  -0.64089  -0.62320  -0.57652
 Alpha  occ. eigenvalues --   -0.57347  -0.56080  -0.54744  -0.54522  -0.52537
 Alpha  occ. eigenvalues --   -0.52074  -0.51283  -0.51035  -0.48937  -0.48241
 Alpha  occ. eigenvalues --   -0.47566  -0.46393  -0.45426  -0.44977  -0.43975
 Alpha  occ. eigenvalues --   -0.42323  -0.41956  -0.34428  -0.33843  -0.32756
 Alpha  occ. eigenvalues --   -0.31632  -0.25735
 Alpha virt. eigenvalues --    0.04483   0.04637   0.08248   0.10425   0.12626
 Alpha virt. eigenvalues --    0.13296   0.13530   0.14570   0.15680   0.16390
 Alpha virt. eigenvalues --    0.17116   0.17806   0.18241   0.18502   0.19050

 Mulliken charges:
               1
     1  C   -0.543066
     2  C    0.349969
     3  O   -0.596875
     4  C   -0.011916
     5  C   -0.292929
     6  H    0.159257
     7  H    0.156180
     8  H    0.153394
     9  N   -0.254140
    10  H    0.293751
    11  H    0.283289
    12  H    0.157748
    13  C    0.211586
    14  C   -0.276405
    15  C   -0.138606
    16  C   -0.151896
    17  C   -0.132026
    18  C   -0.251466
    19  H    0.152511
    20  H    0.146962
    21  H    0.146620
    22  H    0.145653
    23  H    0.141494
    24  H    0.116449
    25  N   -0.306158
    26  C   -0.258798
    27  H    0.234178
    28  H    0.131054
    29  H    0.121806
    30  H    0.112380
 Sum of Mulliken charges =  -0.00000

 Dipole moment (field-independent basis, Debye):
    X=             -7.1452    Y=              8.7227    Z=             -5.6463  Tot=             12.6103
 Quadrupole moment (field-independent basis, Debye-Ang):
   XX=           -101.1751   YY=            -72.2777   ZZ=            -79.3955
   XY=             20.4936   XZ=             -9.4871   YZ=              0.3648

  Exact polarizability: 225.645   5.126 202.815  11.589  -7.004 199.206
 Approx polarizability: 177.292   3.989 156.938   9.030  -5.542 171.134

 ******    1 imaginary frequencies (negative Signs) ******

                      1                      2                      3
                      A                      A                      A
 Frequencies --   -350.9476                31.9841                41.6819
 Red. masses --      5.5251                 3.7844                 3.6957
 Frc consts  --      0.4009                 0.0023                 0.0038
 IR Inten    --    826.6086                 2.2774                 8.6066

                      4                      5                      6
                      A                      A                      A
 Frequencies --     66.3291                80.4700                99.5386
 Red. masses --      3.3431                 3.6183                 1.6109
 Frc consts  --      0.0087                 0.0138                 0.0094
 IR Inten    --      7.1146                 0.9181                 7.6121

                      7                      8                      9
                      A                      A                      A
 Frequencies --    120.9966               140.4536               160.5874
 Red. masses --      1.6154                 2.6557                 2.9428
 Frc consts  --      0.0139                 0.0309                 0.0447
 IR Inten    --     12.5070                 9.0374                17.3528

                     10                     11                     12
                      A                      A                      A
 Frequencies --    194.4597               229.8405               261.6632
 Red. masses --      2.3042                 1.4837                 4.0738
 Frc consts  --      0.0513                 0.0462                 0.1643
 IR Inten    --      2.9521                10.0225                15.7417

                     13                     14                     15
                      A                      A                      A
 Frequencies --    290.2981               325.1628               339.8469
 Red. masses --      3.3937                 4.0370                 4.4542
 Frc consts  --      0.1685                 0.2515                 0.3031
 IR Inten    --      9.3061                34.5340                24.2045

                     16                     17                     18
                      A                      A                      A
 Frequencies --    417.1665               456.6798               483.7861
 Red. masses --      2.7886                 1.5242                 2.9019
 Frc consts  --      0.2859                 0.1873                 0.4002
 IR Inten    --      3.0695                46.4261               107.0924

                     19                     20                     21
                      A                      A                      A
 Frequencies --    529.9210               571.4604               607.3684
 Red. masses --      2.7708                 5.1588                 3.0106
 Frc consts  --      0.4584                 0.9926                 0.6544
 IR Inten    --    232.8965                16.9193                13.4371

                     22                     23                     24
                      A                      A                      A
 Frequencies --    639.2144               669.2610               701.3621
 Red. masses --      6.0746                 1.1650                 2.8027
 Frc consts  --      1.4624                 0.3074                 0.8123
 IR Inten    --      5.0752                24.1437                24.1726

                     25                     26                     27
                      A                      A                      A
 Frequencies --    728.2353               772.0635               787.1627
 Red. masses --      1.5916                 2.0811                 5.2124
 Frc consts  --      0.4973                 0.7309                 1.9029
 IR Inten    --     85.9387                58.4815                23.3244

                     28                     29                     30
                      A                      A                      A
 Frequencies --    805.5459               863.0039               876.9773
 Red. masses --      3.2548                 2.6080                 1.2589
 Frc consts  --      1.2444                 1.1444                 0.5704
 IR Inten    --     87.8065                12.5800                 0.1321

                     31                     32                     33
                      A                      A                      A
 Frequencies --    890.5114               959.9236              1013.1962
 Red. masses --      2.7701                 1.5116                 1.3669
 Frc consts  --      1.2943                 0.8207                 0.8268
 IR Inten    --      8.6035                 3.6227                 1.2983

                     34                     35                     36
                      A                      A                      A
 Frequencies --   1025.3829              1030.7100              1033.2640
 Red. masses --      5.5419                 1.2496                 1.1834
 Frc consts  --      3.4331                 0.7821                 0.7444
 IR Inten    --      3.2734                10.0465                19.1795

                     37                     38                     39
                      A                      A                      A
 Frequencies --   1054.7901              1066.3804              1080.7221
 Red. masses --      1.3724                 1.8902                 4.1445
 Frc consts  --      0.8996                 1.2664                 2.8520
 IR Inten    --     29.7096                21.6116                73.1880

                     40                     41                     42
                      A                      A                      A
 Frequencies --   1113.6269              1129.0084              1147.8483
 Red. masses --      2.2353                 1.6420                 1.3272
 Frc consts  --      1.6333                 1.2332                 1.0303
 IR Inten    --     54.1695                18.3493                 8.9398

                     43                     44                     45
                      A                      A                      A
 Frequencies --   1170.9579              1183.6292              1187.6679
 Red. masses --      1.5811                 1.6389                 1.5543
 Frc consts  --      1.2773                 1.3528                 1.2918
 IR Inten    --     28.1683                37.8878                49.8928

                     46                     47                     48
                      A                      A                      A
 Frequencies --   1220.2444              1225.8470              1248.8074
 Red. masses --      1.3238                 1.1554                 1.3444
 Frc consts  --      1.1614                 1.0230                 1.2353
 IR Inten    --     52.5284                 1.9421               180.6184

                     49                     50                     51
                      A                      A                      A
 Frequencies --   1258.4101              1321.5683              1333.5321
 Red. masses --      1.4723                 1.8111                 4.1409
 Frc consts  --      1.3737                 1.8637                 4.3386
 IR Inten    --     78.8864               283.0571                14.7791

                     52                     53                     54
                      A                      A                      A
 Frequencies --   1358.1585              1378.1942              1407.7340
 Red. masses --      1.3121                 1.3453                 1.7109
 Frc consts  --      1.4260                 1.5055                 1.9976
 IR Inten    --      0.5463                10.1242                96.9255

                     55                     56                     57
                      A                      A                      A
 Frequencies --   1434.0594              1453.7790              1460.1314
 Red. masses --      2.6300                 1.2156                 1.3530
 Frc consts  --      3.1867                 1.5137                 1.6995
 IR Inten    --    166.2574                34.2571                42.3515

                     58                     59                     60
                      A                      A                      A
 Frequencies --   1475.5276              1492.0543              1496.3382
 Red. masses --      1.0822                 2.1557                 1.0521
 Frc consts  --      1.3882                 2.8276                 1.3879
 IR Inten    --     23.9821                11.0500                20.1106

                     61                     62                     63
                      A                      A                      A
 Frequencies --   1504.5545              1506.2628              1547.8972
 Red. masses --      1.1030                 1.0390                 1.8254
 Frc consts  --      1.4711                 1.3889                 2.5768
 IR Inten    --     10.2986                 9.7159               331.3004

                     64                     65                     66
                      A                      A                      A
 Frequencies --   1548.6491              1624.0281              1645.9961
 Red. masses --      2.2683                 4.3077                 1.6372
 Frc consts  --      3.2052                 6.6939                 2.6135
 IR Inten    --     18.7998              1149.3134                40.6628

                     67                     68                     69
                      A                      A                      A
 Frequencies --   1657.6697              1678.0394              3026.3140
 Red. masses --      2.0922                 5.2724                 1.0470
 Frc consts  --      3.3873                 8.7470                 5.6496
 IR Inten    --      9.4106                 3.9112               112.6152

                     70                     71                     72
                      A                      A                      A
 Frequencies --   3074.6754              3103.0607              3121.6624
 Red. masses --      1.0323                 1.0889                 1.0871
 Frc consts  --      5.7496                 6.1776                 6.2415
 IR Inten    --     40.1229                52.2996                20.0331

                     73                     74                     75
                      A                      A                      A
 Frequencies --   3145.0449              3161.3624              3168.6818
 Red. masses --      1.1035                 1.1051                 1.1068
 Frc consts  --      6.4310                 6.5072                 6.5477
 IR Inten    --     30.5480                 2.8396                14.8820

                     76                     77                     78
                      A                      A                      A
 Frequencies --   3194.8386              3196.6502              3201.7691
 Red. masses --      1.0867                 1.0880                 1.0878
 Frc consts  --      6.5354                 6.5503                 6.5701
 IR Inten    --      2.4412                31.8593                 0.2637

                     79                     80                     81
                      A                      A                      A
 Frequencies --   3210.0086              3218.2024              3226.5055
 Red. masses --      1.0921                 1.0940                 1.0982
 Frc consts  --      6.6299                 6.6757                 6.7360
 IR Inten    --     17.6136                38.2774                 9.8828

                     82                     83                     84
                      A                      A                      A
 Frequencies --   3506.2472              3592.8237              3659.1402
 Red. masses --      1.0505                 1.0967                 1.0767
 Frc consts  --      7.6088                 8.3407                 8.4937
 IR Inten    --     28.9463                47.4145               150.4233

 - Thermochemistry -
 -------------------
 Temperature   298.150 Kelvin.  Pressure   1.00000 Atm.
 Atom     1 has atomic number  6 and mass  12.00000

 Molecular mass:   192.12626 amu.
 Principal axes and moments of inertia in atomic units:
                           1         2         3
     Eigenvalues --  2267.224353396.505274544.06392
           X            0.99841   0.05572  -0.00805
           Y           -0.05561   0.99836   0.01365
           Z            0.00880  -0.01318   0.99987
 This molecule is an asymmetric top.
 Rotational symmetry number  1.
 Warning -- assumption of classical behavior for rotation
           may cause significant error
 Rotational temperatures (Kelvin)      0.03820     0.02550     0.01906
 Rotational constants (GHZ):           0.79601     0.53135     0.39716
    1 imaginary frequencies ignored.
 Zero-point vibrational energy     678669.1 (Joules/Mol)
                                  162.20580 (Kcal/Mol)
 Warning -- explicit consideration of  20 degrees of freedom as
           vibrations may cause significant error
 Vibrational temperatures:     46.02    59.97    95.43   115.78   143.21
          (Kelvin)            174.09   202.08   231.05   279.78   330.69
                              376.48   417.67   467.84   488.96   600.21
                              657.06   696.06   762.44   822.20   873.87
                              919.69   962.92  1009.10  1047.77  1110.83
                             1132.55  1159.00  1241.67  1261.77  1281.25
                             1381.12  1457.76  1475.30  1482.96  1486.64
                             1517.61  1534.28  1554.92  1602.26  1624.39
                             1651.50  1684.75  1702.98  1708.79  1755.66
                             1763.72  1796.76  1810.57  1901.44  1918.66
                             1954.09  1982.91  2025.42  2063.29  2091.66
                             2100.80  2122.96  2146.73  2152.90  2164.72
                             2167.18  2227.08  2228.16  2336.61  2368.22
                             2385.02  2414.32  4354.19  4423.77  4464.61
                             4491.38  4525.02  4548.50  4559.03  4596.66
                             4599.27  4606.63  4618.49  4630.28  4642.22
                             5044.71  5169.27  5264.69

 Zero-point correction=                           0.258491 (Hartree/Particle)
 Thermal correction to Energy=                    0.272860
 Thermal correction to Enthalpy=                  0.273804
 Thermal correction to Gibbs Free Energy=         0.215902
 Sum of electronic and zero-point Energies=           -613.266935
 Sum of electronic and thermal Energies=              -613.252566
 Sum of electronic and thermal Enthalpies=            -613.251622
 Sum of electronic and thermal Free Energies=         -613.309524

                     E (Thermal)             CV                S
                      KCal/Mol        Cal/Mol-Kelvin    Cal/Mol-Kelvin
 Total                  171.222             52.709            121.866
 Electronic               0.000              0.000              0.000
 Translational            0.889              2.981             41.664
 Rotational               0.889              2.981             31.926
 Vibrational            169.445             46.748             48.275
 Vibration     1          0.594              1.983              5.702
 Vibration     2          0.594              1.981              5.178
 Vibration     3          0.598              1.970              4.259
 Vibration     4          0.600              1.962              3.879
 Vibration     5          0.604              1.949              3.463
 Vibration     6          0.609              1.932              3.084
 Vibration     7          0.615              1.913              2.798
 Vibration     8          0.622              1.891              2.543
 Vibration     9          0.635              1.848              2.185
 Vibration    10          0.652              1.795              1.880
 Vibration    11          0.669              1.743              1.651
 Vibration    12          0.686              1.692              1.472
 Vibration    13          0.709              1.625              1.284
 Vibration    14          0.720              1.596              1.213
 Vibration    15          0.780              1.433              0.902
 Vibration    16          0.815              1.346              0.776
 Vibration    17          0.840              1.286              0.700
 Vibration    18          0.885              1.184              0.587
 Vibration    19          0.928              1.093              0.501
 Vibration    20          0.966              1.016              0.437

 Optimization completed.
    -- Stationary point found.
 Normal termination of Gaussian 16 at Thu Feb 11 05:21:36 2021.
