 Gaussian 16, Revision C.01,
 Gaussian 16:  ES64L-G16RevC.01  3-Jul-2019

 ----------------------------------------------------------------------
 # wb97xd def2tzvp opt=(ts, noeigen, calcfc, maxcycles=100, maxstep=10)
  freq=noraman scrf=(iefpcm, solvent=water)
 ----------------------------------------------------------------------

 --------
 TS-2.out
 --------
 Symbolic Z-matrix:
 Charge =  0 Multiplicity = 1

 SCF Done:  E(RwB97XD) =  -1020.22945339     A.U. after   15 cycles
 SCF Done:  E(RwB97XD) =  -1020.22743000     A.U. after   14 cycles
 SCF Done:  E(RwB97XD) =  -1020.22677168     A.U. after   15 cycles
 SCF Done:  E(RwB97XD) =  -1020.22997619     A.U. after   14 cycles
 SCF Done:  E(RwB97XD) =  -1020.23403528     A.U. after   14 cycles
 SCF Done:  E(RwB97XD) =  -1020.23880910     A.U. after   15 cycles
 SCF Done:  E(RwB97XD) =  -1020.24398112     A.U. after   14 cycles
 SCF Done:  E(RwB97XD) =  -1020.24832555     A.U. after   13 cycles
 SCF Done:  E(RwB97XD) =  -1020.24928022     A.U. after   13 cycles
 SCF Done:  E(RwB97XD) =  -1020.24999522     A.U. after   13 cycles
 SCF Done:  E(RwB97XD) =  -1020.25194338     A.U. after   11 cycles
 SCF Done:  E(RwB97XD) =  -1020.25194141     A.U. after   10 cycles
 SCF Done:  E(RwB97XD) =  -1020.25189846     A.U. after   11 cycles
 SCF Done:  E(RwB97XD) =  -1020.25194350     A.U. after   11 cycles
 SCF Done:  E(RwB97XD) =  -1020.25194365     A.U. after   10 cycles
 SCF Done:  E(RwB97XD) =  -1020.25194478     A.U. after   10 cycles
 SCF Done:  E(RwB97XD) =  -1020.25194487     A.U. after    7 cycles
 SCF Done:  E(RwB97XD) =  -1020.25194476     A.U. after    8 cycles
 SCF Done:  E(RwB97XD) =  -1020.25194490     A.U. after    8 cycles
 Optimization completed.
    -- Stationary point found.
 Normal termination of Gaussian 16 at Thu Jun  2 03:49:46 2022.

 ---------------------------------------------------------------------
 #N Geom=AllCheck Guess=TCheck SCRF=Check GenChk RwB97XD/def2TZVP Freq
 ---------------------------------------------------------------------

 Structure from the checkpoint file:  "/local/jobs/107268/Gau-409707.chk"
 --------
 TS-2.out
 --------
 Charge =  0 Multiplicity = 1

                         Standard orientation:
 ---------------------------------------------------------------------
 Center     Atomic      Atomic             Coordinates (Angstroms)
 Number     Number       Type             X           Y           Z
 ---------------------------------------------------------------------
      1          6           0       -0.292388   -1.206737    0.214606
      2          6           0        0.173617   -2.541810    0.330560
      3          8           0       -0.543027   -3.525952    0.046545
      4          6           0        0.528419   -0.029045    0.414688
      5          6           0        0.969999    1.380899    2.942636
      6          1           0        1.602111    1.233080    3.816603
      7          1           0        1.427386    2.111594    2.280155
      8          1           0        0.005332    1.765805    3.257382
      9          7           0        0.782537    0.102134    2.226576
     10          1           0        1.556858   -0.527073    2.407730
     11          1           0       -0.047459   -0.382257    2.551296
     12          6           0       -0.142267    1.304219    0.128803
     13          6           0       -1.286202    1.688504    0.829920
     14          6           0       -1.926966    2.881703    0.556976
     15          6           0       -1.441634    3.722540   -0.436899
     16          6           0       -0.305678    3.357787   -1.137378
     17          6           0        0.342957    2.162763   -0.850424
     18          1           0       -1.696705    1.041064    1.593017
     19          1           0       -2.811276    3.154515    1.118544
     20          1           0       -1.945390    4.655006   -0.657288
     21          1           0        0.087750    4.003652   -1.911987
     22          1           0        1.228453    1.901304   -1.412367
     23          6           0        1.943850   -0.077428   -0.144655
     24          6           0        3.057489    0.482157    0.474167
     25          6           0        4.303020    0.454717   -0.135823
     26          6           0        4.457269   -0.113500   -1.390107
     27          6           0        3.351634   -0.655519   -2.027423
     28          6           0        2.112179   -0.638641   -1.408918
     29          1           0        2.987061    0.945338    1.447217
     30          1           0        5.154507    0.884336    0.376225
     31          1           0        5.429119   -0.132821   -1.866212
     32          1           0        3.452012   -1.100040   -3.009449
     33          1           0        1.255167   -1.070035   -1.908196
     34          6           0       -1.729520   -1.064340   -0.164190
     35          6           0       -2.750995   -1.423373    0.715424
     36          6           0       -4.085898   -1.276330    0.371903
     37          6           0       -4.433881   -0.767401   -0.872932
     38          6           0       -3.432785   -0.420497   -1.768602
     39          6           0       -2.099344   -0.575286   -1.416360
     40          1           0       -2.487831   -1.814027    1.691870
     41          1           0       -4.858418   -1.553677    1.079182
     42          1           0       -5.475740   -0.645673   -1.142242
     43          1           0       -3.690039   -0.028734   -2.745431
     44          1           0       -1.324571   -0.294407   -2.120540
     45          6           0        1.566233   -2.902994    0.832674
     46          1           0        2.176671   -2.089553    1.213307
     47          1           0        1.446368   -3.651850    1.616584
     48          1           0        2.120454   -3.367203    0.014328
 ---------------------------------------------------------------------

 SCF Done:  E(RwB97XD) =  -1020.25194490     A.U. after    1 cycles

 The electronic state is 1-A.
 Alpha  occ. eigenvalues --  -19.18238 -14.50697 -10.37095 -10.33703 -10.32668
 Alpha  occ. eigenvalues --  -10.31000 -10.30876 -10.29733 -10.29517 -10.29449
 Alpha  occ. eigenvalues --  -10.29410 -10.29356 -10.29336 -10.29310 -10.29240
 Alpha  occ. eigenvalues --  -10.29218 -10.29200 -10.28776 -10.28216 -10.28197
 Alpha  occ. eigenvalues --  -10.28108 -10.27697 -10.27690 -10.26728 -10.25174
 Alpha  occ. eigenvalues --   -1.08853  -1.06010  -0.98350  -0.96887  -0.95630
 Alpha  occ. eigenvalues --   -0.91658  -0.86524  -0.85813  -0.85567  -0.85239
 Alpha  occ. eigenvalues --   -0.84075  -0.82924  -0.81001  -0.79241  -0.74888
 Alpha  occ. eigenvalues --   -0.71600  -0.71114  -0.70227  -0.69319  -0.68341
 Alpha  occ. eigenvalues --   -0.66820  -0.65251  -0.61998  -0.61350  -0.60738
 Alpha  occ. eigenvalues --   -0.59137  -0.57316  -0.57003  -0.55782  -0.55280
 Alpha  occ. eigenvalues --   -0.54358  -0.54084  -0.53632  -0.53186  -0.52009
 Alpha  occ. eigenvalues --   -0.51939  -0.51203  -0.51142  -0.50519  -0.49920
 Alpha  occ. eigenvalues --   -0.49685  -0.49086  -0.47806  -0.47571  -0.46769
 Alpha  occ. eigenvalues --   -0.45863  -0.45445  -0.44984  -0.44261  -0.43250
 Alpha  occ. eigenvalues --   -0.42885  -0.42369  -0.41734  -0.40926  -0.40744
 Alpha  occ. eigenvalues --   -0.34803  -0.34410  -0.33874  -0.33543  -0.32807
 Alpha  occ. eigenvalues --   -0.31993  -0.30425  -0.25964
 Alpha virt. eigenvalues --    0.01916   0.03771   0.04322   0.05631   0.06195
 Alpha virt. eigenvalues --    0.06482   0.08615   0.09667   0.12307   0.12507
 Alpha virt. eigenvalues --    0.12810   0.13521   0.14077   0.14903   0.15605

 Mulliken charges:
               1
     1  C   -0.333770
     2  C    0.174621
     3  O   -0.560541
     4  C    0.490895
     5  C   -0.309252
     6  H    0.174767
     7  H    0.167720
     8  H    0.170875
     9  N   -0.297237
    10  H    0.284878
    11  H    0.292653
    12  C    0.043152
    13  C   -0.389153
    14  C   -0.142506
    15  C   -0.135949
    16  C   -0.156089
    17  C   -0.183149
    18  H    0.188072
    19  H    0.142304
    20  H    0.144096
    21  H    0.140985
    22  H    0.163794
    23  C    0.048029
    24  C   -0.174802
    25  C   -0.173519
    26  C   -0.118861
    27  C   -0.157596
    28  C   -0.244555
    29  H    0.151461
    30  H    0.142953
    31  H    0.145431
    32  H    0.142889
    33  H    0.167707
    34  C    0.340993
    35  C   -0.326478
    36  C   -0.137389
    37  C   -0.145701
    38  C   -0.172015
    39  C   -0.227727
    40  H    0.129694
    41  H    0.133740
    42  H    0.137330
    43  H    0.132628
    44  H    0.141115
    45  C   -0.368927
    46  H    0.092923
    47  H    0.137341
    48  H    0.132173
 Sum of Mulliken charges =  -0.00000

 Dipole moment (field-independent basis, Debye):
    X=              5.8613    Y=              9.9106    Z=              6.3931  Tot=             13.1699
 Quadrupole moment (field-independent basis, Debye-Ang):
   XX=           -133.3398   YY=           -175.2323   ZZ=           -121.0218
   XY=             -9.9452   XZ=             -0.3158   YZ=             -1.3120

  Exact polarizability:     432.068      -4.185     380.160     -12.417      -3.398     357.470
 Approx polarizability:     335.698       0.739     297.866     -12.268      -3.715     309.496

 ******    1 imaginary frequencies (negative Signs) ******

                      1                      2                      3
                      A                      A                      A
 Frequencies --   -310.1185                24.9676                36.8212
 Red. masses --      6.2450                 4.5861                 4.0763
 Frc consts  --      0.3539                 0.0017                 0.0033
 IR Inten    --    735.5878                 2.0662                 0.3336

                      4                      5                      6
                      A                      A                      A
 Frequencies --     53.3131                61.1629                68.5196
 Red. masses --      3.5319                 4.0557                 4.6003
 Frc consts  --      0.0059                 0.0089                 0.0127
 IR Inten    --      1.3937                 0.9224                 3.4725

                      7                      8                      9
                      A                      A                      A
 Frequencies --     77.1022                83.3397                87.4145
 Red. masses --      3.8321                 3.2042                 2.2577
 Frc consts  --      0.0134                 0.0131                 0.0102
 IR Inten    --      2.5192                 8.8460                 0.6795

                     10                     11                     12
                      A                      A                      A
 Frequencies --     97.5115               112.1768               144.8879
 Red. masses --      2.5425                 3.6961                 1.8887
 Frc consts  --      0.0142                 0.0274                 0.0234
 IR Inten    --      5.6756                 4.7657                 7.8102

                     13                     14                     15
                      A                      A                      A
 Frequencies --    176.6024               188.5421               203.1657
 Red. masses --      2.0725                 2.1646                 3.0316
 Frc consts  --      0.0381                 0.0453                 0.0737
 IR Inten    --      2.2130                 0.2620                 3.4976

                     16                     17                     18
                      A                      A                      A
 Frequencies --    228.9651               240.2149               271.2548
 Red. masses --      2.8463                 3.0225                 4.5007
 Frc consts  --      0.0879                 0.1028                 0.1951
 IR Inten    --      3.5774                 8.3800                 2.2358

                     19                     20                     21
                      A                      A                      A
 Frequencies --    277.4287               290.7611               296.0137
 Red. masses --      4.2695                 3.6667                 4.6621
 Frc consts  --      0.1936                 0.1826                 0.2407
 IR Inten    --      1.9178                 2.8806                 4.3683

                     22                     23                     24
                      A                      A                      A
 Frequencies --    324.6654               356.4026               394.1712
 Red. masses --      4.8185                 3.4956                 4.1288
 Frc consts  --      0.2993                 0.2616                 0.3780
 IR Inten    --      3.6556                50.8571                30.7725

                     25                     26                     27
                      A                      A                      A
 Frequencies --    423.7347               424.8960               428.5706
 Red. masses --      2.8680                 2.8646                 2.9133
 Frc consts  --      0.3034                 0.3047                 0.3153
 IR Inten    --      0.3847                 0.1885                 0.1906

                     28                     29                     30
                      A                      A                      A
 Frequencies --    446.5343               509.3207               523.9835
 Red. masses --      4.5043                 4.0450                 3.7491
 Frc consts  --      0.5292                 0.6182                 0.6065
 IR Inten    --     38.9390                10.1340                35.9888

                     31                     32                     33
                      A                      A                      A
 Frequencies --    538.5445               558.3913               610.2136
 Red. masses --      3.4193                 3.6611                 3.3932
 Frc consts  --      0.5843                 0.6726                 0.7444
 IR Inten    --      8.0470                29.0886               129.6738

                     34                     35                     36
                      A                      A                      A
 Frequencies --    624.9104               636.2012               638.6126
 Red. masses --      3.3393                 5.8597                 6.0478
 Frc consts  --      0.7683                 1.3974                 1.4532
 IR Inten    --     76.5851                 1.8856                 0.6638

                     37                     38                     39
                      A                      A                      A
 Frequencies --    640.9707               665.3481               684.9612
 Red. masses --      6.1752                 5.4851                 2.8340
 Frc consts  --      1.4948                 1.4307                 0.7834
 IR Inten    --     19.0560                47.2285                39.2847

                     40                     41                     42
                      A                      A                      A
 Frequencies --    708.5778               711.0526               726.2056
 Red. masses --      4.9373                 2.2181                 1.5891
 Frc consts  --      1.4606                 0.6607                 0.4938
 IR Inten    --     86.9104                40.1467                67.6652

                     43                     44                     45
                      A                      A                      A
 Frequencies --    727.8936               731.2033               782.2830
 Red. masses --      1.5443                 1.4526                 2.4745
 Frc consts  --      0.4821                 0.4576                 0.8922
 IR Inten    --     86.1304               154.1712                40.0014

                     46                     47                     48
                      A                      A                      A
 Frequencies --    791.4071               804.1622               874.8991
 Red. masses --      2.2632                 2.3173                 1.3209
 Frc consts  --      0.8352                 0.8829                 0.5957
 IR Inten    --     34.9494                19.7390                 2.0981

                     49                     50                     51
                      A                      A                      A
 Frequencies --    875.4971               878.8139               880.5230
 Red. masses --      1.2605                 1.5160                 2.2669
 Frc consts  --      0.5693                 0.6898                 1.0355
 IR Inten    --      0.1721                10.3525                34.7187

                     52                     53                     54
                      A                      A                      A
 Frequencies --    905.2090               942.0659               962.6207
 Red. masses --      3.2105                 1.6827                 1.5619
 Frc consts  --      1.5500                 0.8799                 0.8527
 IR Inten    --     13.9497                 1.4808                 9.8344

                     55                     56                     57
                      A                      A                      A
 Frequencies --    968.5674               974.4284              1008.4458
 Red. masses --      1.7010                 2.1027                 1.3859
 Frc consts  --      0.9402                 1.1763                 0.8304
 IR Inten    --     13.0213                43.6539                 0.6431

                     58                     59                     60
                      A                      A                      A
 Frequencies --   1016.7864              1017.8643              1020.7713
 Red. masses --      1.3791                 1.3808                 1.3084
 Frc consts  --      0.8401                 0.8429                 0.8032
 IR Inten    --      0.7341                 0.6054                 1.6080

                     61                     62                     63
                      A                      A                      A
 Frequencies --   1025.8042              1026.2029              1027.7567
 Red. masses --      5.5602                 5.3352                 5.2602
 Frc consts  --      3.4472                 3.3103                 3.2736
 IR Inten    --      2.7687                 0.2499                 4.1091

                     64                     65                     66
                      A                      A                      A
 Frequencies --   1032.1442              1033.8344              1035.6620
 Red. masses --      1.4361                 1.5807                 1.4796
 Frc consts  --      0.9014                 0.9954                 0.9351
 IR Inten    --      2.0646                 3.2632                 0.9171

                     67                     68                     69
                      A                      A                      A
 Frequencies --   1038.9206              1044.6969              1062.5911
 Red. masses --      4.0779                 1.7872                 2.0548
 Frc consts  --      2.5933                 1.1492                 1.3670
 IR Inten    --     89.8580                17.5053                13.1951

                     70                     71                     72
                      A                      A                      A
 Frequencies --   1066.2274              1066.7433              1078.5100
 Red. masses --      1.7771                 1.9699                 1.4878
 Frc consts  --      1.1903                 1.3207                 1.0196
 IR Inten    --      7.8799                 8.2154                 8.4533

                     73                     74                     75
                      A                      A                      A
 Frequencies --   1106.9411              1111.4412              1124.4418
 Red. masses --      1.5485                 1.2910                 1.5689
 Frc consts  --      1.1179                 0.9396                 1.1687
 IR Inten    --     12.0903                84.2588                25.6422

                     76                     77                     78
                      A                      A                      A
 Frequencies --   1129.0919              1161.7590              1178.5308
 Red. masses --      1.5982                 3.4202                 1.1307
 Frc consts  --      1.2004                 2.7198                 0.9253
 IR Inten    --     15.8476                46.2207                 0.2819

                     79                     80                     81
                      A                      A                      A
 Frequencies --   1185.4725              1187.4115              1204.3342
 Red. masses --      1.1253                 1.1265                 1.1250
 Frc consts  --      0.9318                 0.9358                 0.9614
 IR Inten    --      0.2219                 0.5987                 0.3150

                     82                     83                     84
                      A                      A                      A
 Frequencies --   1219.1639              1225.4423              1228.9865
 Red. masses --      1.1343                 1.7690                 1.4443
 Frc consts  --      0.9934                 1.5652                 1.2853
 IR Inten    --      3.4013                18.8901                14.6337

                     85                     86                     87
                      A                      A                      A
 Frequencies --   1256.3059              1265.9370              1307.4265
 Red. masses --      2.4385                 1.9720                 4.4048
 Frc consts  --      2.2676                 1.8620                 4.4362
 IR Inten    --     21.4663                69.3976                 7.7738

                     88                     89                     90
                      A                      A                      A
 Frequencies --   1318.4220              1319.1224              1324.8451
 Red. masses --      3.5308                 4.2515                 1.5237
 Frc consts  --      3.6160                 4.3587                 1.5757
 IR Inten    --     11.2123               106.7078                 3.9194

                     91                     92                     93
                      A                      A                      A
 Frequencies --   1349.9557              1356.8288              1362.3745
 Red. masses --      3.3982                 1.7099                 1.5016
 Frc consts  --      3.6487                 1.8546                 1.6421
 IR Inten    --    353.1928                99.4837                47.7328

                     94                     95                     96
                      A                      A                      A
 Frequencies --   1375.4852              1387.2951              1407.4873
 Red. masses --      1.4445                 1.2550                 3.3649
 Frc consts  --      1.6102                 1.4230                 3.9275
 IR Inten    --    102.4004                 2.8716               402.4242

                     97                     98                     99
                      A                      A                      A
 Frequencies --   1467.1176              1475.0505              1485.6475
 Red. masses --      1.1529                 1.0683                 1.6129
 Frc consts  --      1.4621                 1.3695                 2.0974
 IR Inten    --      1.0210                26.2079                12.6964

                    100                    101                    102
                      A                      A                      A
 Frequencies --   1486.7632              1490.0302              1494.8062
 Red. masses --      1.5568                 2.1868                 2.2731
 Frc consts  --      2.0275                 2.8605                 2.9925
 IR Inten    --     20.4796                46.0651                29.8800

                    103                    104                    105
                      A                      A                      A
 Frequencies --   1497.2689              1510.1789              1540.5414
 Red. masses --      1.0446                 1.0598                 2.4482
 Frc consts  --      1.3798                 1.4241                 3.4233
 IR Inten    --     30.7777                25.1718                81.3034

                    106                    107                    108
                      A                      A                      A
 Frequencies --   1544.0770              1547.0501              1570.9103
 Red. masses --      2.2108                 2.1895                 7.2307
 Frc consts  --      3.1055                 3.0874                10.5131
 IR Inten    --     20.7387                16.7240              1037.6804

                    109                    110                    111
                      A                      A                      A
 Frequencies --   1642.7706              1648.2887              1652.9214
 Red. masses --      5.7322                 1.3242                 4.0710
 Frc consts  --      9.1144                 2.1197                 6.5532
 IR Inten    --      4.7281                52.4901                 5.4451

                    112                    113                    114
                      A                      A                      A
 Frequencies --   1654.7805              1670.1505              1674.2365
 Red. masses --      3.7081                 5.9580                 5.9066
 Frc consts  --      5.9825                 9.7918                 9.7549
 IR Inten    --     12.8539                46.0303                 5.3989

                    115                    116                    117
                      A                      A                      A
 Frequencies --   1677.9037              3065.1984              3088.5007
 Red. masses --      5.6528                 1.0403                 1.0354
 Frc consts  --      9.3767                 5.7586                 5.8189
 IR Inten    --      0.7056                30.3817                28.3053

                    118                    119                    120
                      A                      A                      A
 Frequencies --   3130.0881              3171.0805              3177.2753
 Red. masses --      1.1006                 1.1053                 1.0972
 Frc consts  --      6.3534                 6.5486                 6.5260
 IR Inten    --     22.7770                11.2964                50.6023

                    121                    122                    123
                      A                      A                      A
 Frequencies --   3181.3475              3184.0230              3195.2672
 Red. masses --      1.0858                 1.0878                 1.0911
 Frc consts  --      6.4747                 6.4976                 6.5634
 IR Inten    --     12.4474                 3.8863                14.3901

                    124                    125                    126
                      A                      A                      A
 Frequencies --   3195.7662              3197.5191              3199.2450
 Red. masses --      1.1040                 1.0864                 1.0863
 Frc consts  --      6.6434                 6.5444                 6.5507
 IR Inten    --      8.2692                 0.7656                 0.0626

                    127                    128                    129
                      A                      A                      A
 Frequencies --   3201.7676              3205.7052              3208.0843
 Red. masses --      1.0949                 1.0893                 1.0899
 Frc consts  --      6.6131                 6.5957                 6.6089
 IR Inten    --     61.9058                 6.8167                 9.8802

                    130                    131                    132
                      A                      A                      A
 Frequencies --   3214.9674              3215.7135              3218.7341
 Red. masses --      1.0984                 1.0932                 1.0934
 Frc consts  --      6.6889                 6.6604                 6.6743
 IR Inten    --     24.1490                29.1133                21.2399

                    133                    134                    135
                      A                      A                      A
 Frequencies --   3223.8329              3226.1522              3230.2866
 Red. masses --      1.0959                 1.0966                 1.0950
 Frc consts  --      6.7106                 6.7249                 6.7320
 IR Inten    --     19.6364                17.2047                 8.3348

                    136                    137                    138
                      A                      A                      A
 Frequencies --   3243.1288              3521.5854              3592.8321
 Red. masses --      1.0918                 1.0529                 1.0946
 Frc consts  --      6.7659                 7.6935                 8.3249
 IR Inten    --      9.4238                26.2285                53.2423

 - Thermochemistry -
 -------------------
 Temperature   298.150 Kelvin.  Pressure   1.00000 Atm.
 Atom     1 has atomic number  6 and mass  12.00000

 Molecular mass:   329.17796 amu.
 Principal axes and moments of inertia in atomic units:
                           1         2         3
     Eigenvalues --  5761.941258570.00026**********
           X            0.99988  -0.01523   0.00335
           Y            0.01523   0.99988   0.00064
           Z           -0.00336  -0.00058   0.99999
 This molecule is an asymmetric top.
 Rotational symmetry number  1.
 Warning -- assumption of classical behavior for rotation
           may cause significant error
 Rotational temperatures (Kelvin)      0.01503     0.01011     0.00803
 Rotational constants (GHZ):           0.31322     0.21059     0.16723
    1 imaginary frequencies ignored.
 Zero-point vibrational energy    1059963.5 (Joules/Mol)
                                  253.33737 (Kcal/Mol)
 Warning -- explicit consideration of  32 degrees of freedom as
           vibrations may cause significant error
 Vibrational temperatures:     35.92    52.98    76.71    88.00    98.58
          (Kelvin)            110.93   119.91   125.77   140.30   161.40
                              208.46   254.09   271.27   292.31   329.43
                              345.62   390.28   399.16   418.34   425.90
                              467.12   512.78   567.12   609.66   611.33
                              616.62   642.46   732.80   753.90   774.85
                              803.40   877.96   899.11   915.35   918.82
                              922.21   957.29   985.51  1019.49  1023.05
                             1044.85  1047.28  1052.04  1125.53  1138.66
                             1157.01  1258.78  1259.64  1264.42  1266.88
                             1302.39  1355.42  1385.00  1393.55  1401.99
                             1450.93  1462.93  1464.48  1468.66  1475.90
                             1476.48  1478.71  1485.03  1487.46  1490.09
                             1494.77  1503.09  1528.83  1534.06  1534.81
                             1551.74  1592.64  1599.12  1617.82  1624.51
                             1671.51  1695.64  1705.63  1708.42  1732.77
                             1754.10  1763.14  1768.24  1807.54  1821.40
                             1881.10  1896.92  1897.92  1906.16  1942.29
                             1952.17  1960.15  1979.02  1996.01  2025.06
                             2110.86  2122.27  2137.52  2139.12  2143.82
                             2150.69  2154.24  2172.81  2216.50  2221.58
                             2225.86  2260.19  2363.58  2371.52  2378.19
                             2380.86  2402.97  2408.85  2414.13  4410.14
                             4443.66  4503.50  4562.48  4571.39  4577.25
                             4581.10  4597.28  4597.99  4600.52  4603.00
                             4606.63  4612.29  4615.72  4625.62  4626.69
                             4631.04  4638.38  4641.71  4647.66  4666.14
                             5066.78  5169.28

 Zero-point correction=                           0.403719 (Hartree/Particle)
 Thermal correction to Energy=                    0.425771
 Thermal correction to Enthalpy=                  0.426715
 Thermal correction to Gibbs Free Energy=         0.351819
 Sum of electronic and zero-point Energies=          -1019.848226
 Sum of electronic and thermal Energies=             -1019.826174
 Sum of electronic and thermal Enthalpies=           -1019.825230
 Sum of electronic and thermal Free Energies=        -1019.900126

                     E (Thermal)             CV                S
                      KCal/Mol        Cal/Mol-Kelvin    Cal/Mol-Kelvin
 Total                  267.175             86.200            157.633
 Electronic               0.000              0.000              0.000
 Translational            0.889              2.981             43.269
 Rotational               0.889              2.981             34.632
 Vibrational            265.398             80.239             79.732
 Vibration     1          0.593              1.985              6.194
 Vibration     2          0.594              1.982              5.423
 Vibration     3          0.596              1.976              4.691
 Vibration     4          0.597              1.973              4.419
 Vibration     5          0.598              1.969              4.195
 Vibration     6          0.599              1.964              3.963
 Vibration     7          0.600              1.961              3.811
 Vibration     8          0.601              1.958              3.717
 Vibration     9          0.603              1.951              3.503
 Vibration    10          0.607              1.939              3.231
 Vibration    11          0.616              1.908              2.738
 Vibration    12          0.628              1.871              2.364
 Vibration    13          0.633              1.856              2.242
 Vibration    14          0.639              1.835              2.104
 Vibration    15          0.652              1.797              1.887
 Vibration    16          0.657              1.779              1.801
 Vibration    17          0.675              1.726              1.588
 Vibration    18          0.678              1.715              1.549
 Vibration    19          0.687              1.691              1.470
 Vibration    20          0.690              1.681              1.439
 Vibration    21          0.709              1.626              1.286
 Vibration    22          0.732              1.562              1.138
 Vibration    23          0.761              1.483              0.984
 Vibration    24          0.786              1.419              0.879
 Vibration    25          0.787              1.416              0.875
 Vibration    26          0.790              1.408              0.863
 Vibration    27          0.806              1.369              0.806
 Vibration    28          0.864              1.229              0.635
 Vibration    29          0.879              1.197              0.601
 Vibration    30          0.894              1.165              0.568
 Vibration    31          0.914              1.121              0.527
 Vibration    32          0.969              1.010              0.432

 Optimization completed.
    -- Stationary point found.
 Normal termination of Gaussian 16 at Thu Jun  2 07:24:23 2022.
