 Gaussian 16, Revision A.03,
 Gaussian 16:  ES64L-G16RevA.03 25-Dec-2016

 ----------------------------------------------------------------------
 # wB97XD def2tzvp, opt=(ts, noeigen, calcfc, maxcycles=70, maxstep=3),
  freq=noraman, scrf=(iefpcm, solvent=water)
 ----------------------------------------------------------------------

 -----------------------
 3_iteration/TS-27-3.out
 -----------------------
 Symbolic Z-matrix:
 Charge =  0 Multiplicity = 1

 SCF Done:  E(RwB97XD) =  -3378.88607997     A.U. after   15 cycles
 Optimization completed.
    -- Stationary point found.
 Normal termination of Gaussian 16 at Mon Feb  1 00:04:47 2021.

 ---------------------------------------------------------------------
 #N Geom=AllCheck Guess=TCheck SCRF=Check GenChk RwB97XD/def2TZVP Freq
 ---------------------------------------------------------------------

 Structure from the checkpoint file:  "/beegfs/scratch/user/q/tla25/Gau-65374.chk"
 -----------------------
 3_iteration/TS-27-3.out
 -----------------------
 Charge =  0 Multiplicity = 1

                         Standard orientation:
 ---------------------------------------------------------------------
 Center     Atomic      Atomic             Coordinates (Angstroms)
 Number     Number       Type             X           Y           Z
 ---------------------------------------------------------------------
      1          6           0       -0.616953   -1.091094   -0.187021
      2          6           0       -0.267554   -2.468912    0.022379
      3          8           0        0.714568   -2.787205    0.723189
      4          6           0        0.202110   -0.048069    0.307869
      5          6           0       -0.950206   -0.717357    2.830089
      6          1           0       -0.771251   -1.348035    3.700529
      7          1           0       -1.484132    0.177260    3.139299
      8          1           0       -1.563992   -1.268901    2.118269
      9          7           0        0.308472   -0.368978    2.177029
     10          1           0        0.839067    0.311075    2.707109
     11          1           0        0.866168   -1.215564    2.062659
     12          6           0       -0.286930    1.372308    0.121739
     13          6           0       -0.705965    2.206985    1.146099
     14          6           0       -1.108174    3.510972    0.878549
     15          6           0       -1.092678    3.997702   -0.416021
     16          6           0       -0.664012    3.171615   -1.448011
     17          6           0       -0.261943    1.876758   -1.179711
     18          1           0       -0.729833    1.865645    2.169179
     19          1           0       -1.433069    4.143200    1.695029
     20          1           0       -1.406274    5.012860   -0.622741
     21          1           0       -0.640284    3.539315   -2.465991
     22          1           0        0.075001    1.240380   -1.988601
     23          6           0        1.694630   -0.093319   -0.003371
     24          6           0        2.169035   -0.817396   -1.091271
     25          6           0        3.511185   -0.784706   -1.436281
     26          6           0        4.404540   -0.018130   -0.703431
     27          6           0        3.938435    0.729976    0.367409
     28          6           0        2.594705    0.700297    0.704439
     29          1           0        1.476809   -1.406920   -1.676381
     30          1           0        3.857649   -1.359944   -2.285631
     31          1           0        5.452809    0.007437   -0.972401
     32          1           0        4.618780    1.350201    0.936979
     33          1           0        2.251920    1.330515    1.515539
     34         35           0       -2.423426   -0.710297   -0.725711
     35          7           0       -1.010197   -3.452867   -0.559951
     36          1           0       -0.865311   -4.387786   -0.222541
     37          1           0       -1.889969   -3.245593   -0.996281
 ---------------------------------------------------------------------

 SCF Done:  E(RwB97XD) =  -3378.88607997     A.U. after    1 cycles

 The electronic state is 1-A.
 Alpha  occ. eigenvalues -- -483.12184 -62.66996 -56.46101 -56.45771 -56.45760
 Alpha  occ. eigenvalues --  -19.20277 -14.48581 -14.43740 -10.38182 -10.36884
 Alpha  occ. eigenvalues --  -10.31646 -10.31200 -10.30849 -10.30025 -10.29610
 Alpha  occ. eigenvalues --  -10.29484 -10.29367 -10.29342 -10.29284 -10.29231
 Alpha  occ. eigenvalues --  -10.29158 -10.29140 -10.29090 -10.29036  -8.81094
 Alpha  occ. eigenvalues --   -6.63194  -6.62145  -6.62108  -2.73591  -2.73291
 Alpha  occ. eigenvalues --   -2.73260  -2.72412  -2.72411  -1.12704  -1.04317
 Alpha  occ. eigenvalues --   -0.99419  -0.98308  -0.96692  -0.92671  -0.88275
 Alpha  occ. eigenvalues --   -0.85696  -0.85410  -0.85252  -0.81290  -0.78968
 Alpha  occ. eigenvalues --   -0.75301  -0.71352  -0.70531  -0.70222  -0.68508
 Alpha  occ. eigenvalues --   -0.65509  -0.63150  -0.62664  -0.61548  -0.58870
 Alpha  occ. eigenvalues --   -0.57638  -0.56569  -0.55928  -0.54916  -0.54420
 Alpha  occ. eigenvalues --   -0.53606  -0.52663  -0.51717  -0.51248  -0.51098
 Alpha  occ. eigenvalues --   -0.50712  -0.49051  -0.48270  -0.47263  -0.46756
 Alpha  occ. eigenvalues --   -0.46227  -0.45009  -0.43942  -0.42853  -0.42440
 Alpha  occ. eigenvalues --   -0.41883  -0.39416  -0.38104  -0.35572  -0.34702
 Alpha  occ. eigenvalues --   -0.34382  -0.34083  -0.33249  -0.31950  -0.26735
 Alpha virt. eigenvalues --    0.02554   0.04227   0.04791   0.05701   0.07095
 Alpha virt. eigenvalues --    0.09383   0.10790   0.12615   0.13370   0.13573
 Alpha virt. eigenvalues --    0.14916   0.15305   0.15492   0.16381   0.16942

 Mulliken charges:
               1
     1  C   -0.380226
     2  C    0.316135
     3  O   -0.565499
     4  C    0.479578
     5  C   -0.283716
     6  H    0.158626
     7  H    0.149127
     8  H    0.154236
     9  N   -0.332251
    10  H    0.278556
    11  H    0.285138
    12  C    0.117619
    13  C   -0.191430
    14  C   -0.168295
    15  C   -0.143140
    16  C   -0.121224
    17  C   -0.291794
    18  H    0.132999
    19  H    0.142929
    20  H    0.144727
    21  H    0.143367
    22  H    0.157667
    23  C    0.112827
    24  C   -0.233714
    25  C   -0.145036
    26  C   -0.135936
    27  C   -0.172249
    28  C   -0.255107
    29  H    0.161840
    30  H    0.142011
    31  H    0.144498
    32  H    0.142714
    33  H    0.157746
    34  Br  -0.165097
    35  N   -0.469174
    36  H    0.267180
    37  H    0.264370
 Sum of Mulliken charges =  -0.00000

 Dipole moment (field-independent basis, Debye):
    X=              0.2161    Y=              3.0193    Z=              4.0559  Tot=              5.0609
 Quadrupole moment (field-independent basis, Debye-Ang):
   XX=           -128.1008   YY=           -124.8978   ZZ=           -111.6467
   XY=              7.4666   XZ=             -2.6556   YZ=              5.8077

  Exact polarizability: 316.760  -7.790 323.614   1.502  27.282 298.681
 Approx polarizability: 251.437  -6.962 256.318   3.660  22.086 259.015

 ******    1 imaginary frequencies (negative Signs) ******

                      1                      2                      3
                      A                      A                      A
 Frequencies --   -357.1454                27.2981                52.5734
 Red. masses --      5.0243                 3.8018                 3.8965
 Frc consts  --      0.3776                 0.0017                 0.0063
 IR Inten    --    595.5433                 1.2226                 0.6435

                      4                      5                      6
                      A                      A                      A
 Frequencies --     54.9650                61.1139                78.6577
 Red. masses --      7.9994                 4.9744                 4.9994
 Frc consts  --      0.0142                 0.0109                 0.0182
 IR Inten    --      1.1605                 0.4657                 3.1008

                      7                      8                      9
                      A                      A                      A
 Frequencies --     87.0382               131.2388               134.2820
 Red. masses --      4.9344                 2.9128                 1.7732
 Frc consts  --      0.0220                 0.0296                 0.0188
 IR Inten    --      4.9550                 3.7784                 5.7005

                     10                     11                     12
                      A                      A                      A
 Frequencies --    153.3283               165.8350               196.4486
 Red. masses --      5.3571                 1.9885                 5.1941
 Frc consts  --      0.0742                 0.0322                 0.1181
 IR Inten    --     21.9317                11.5323                13.0177

                     13                     14                     15
                      A                      A                      A
 Frequencies --    201.3115               229.8167               254.8820
 Red. masses --      7.7272                 2.5090                 4.0105
 Frc consts  --      0.1845                 0.0781                 0.1535
 IR Inten    --      2.1985                23.5992                41.7061

                     16                     17                     18
                      A                      A                      A
 Frequencies --    263.9974               279.4479               300.6886
 Red. masses --      4.0921                 1.4139                 4.7412
 Frc consts  --      0.1680                 0.0651                 0.2526
 IR Inten    --     10.0684               309.8283                 0.5445

                     19                     20                     21
                      A                      A                      A
 Frequencies --    314.3665               324.5200               370.3026
 Red. masses --      4.8383                 3.4445                 5.1724
 Frc consts  --      0.2817                 0.2137                 0.4179
 IR Inten    --      4.6952                 1.8134                11.4779

                     22                     23                     24
                      A                      A                      A
 Frequencies --    414.6567               418.5512               426.1638
 Red. masses --      4.4774                 2.8879                 2.9503
 Frc consts  --      0.4536                 0.2981                 0.3157
 IR Inten    --     23.7378                 0.0755                 0.2236

                     25                     26                     27
                      A                      A                      A
 Frequencies --    488.8311               506.2391               535.0025
 Red. masses --      3.6213                 1.3489                 2.5721
 Frc consts  --      0.5098                 0.2037                 0.4338
 IR Inten    --     12.3419                 8.6152                 1.5537

                     28                     29                     30
                      A                      A                      A
 Frequencies --    593.3333               610.4517               637.3418
 Red. masses --      3.0937                 4.0533                 6.3012
 Frc consts  --      0.6417                 0.8899                 1.5081
 IR Inten    --     49.9186               162.0384                 1.8116

                     31                     32                     33
                      A                      A                      A
 Frequencies --    639.4959               648.8038               686.8926
 Red. masses --      5.8158                 4.7313                 2.8496
 Frc consts  --      1.4013                 1.1734                 0.7922
 IR Inten    --     20.9878                36.6979                63.0719

                     34                     35                     36
                      A                      A                      A
 Frequencies --    704.9114               724.6883               728.6242
 Red. masses --      2.5242                 1.6335                 1.5629
 Frc consts  --      0.7390                 0.5055                 0.4889
 IR Inten    --     56.2100                96.1090               101.9946

                     37                     38                     39
                      A                      A                      A
 Frequencies --    777.1663               787.0592               795.6778
 Red. masses --      3.1086                 3.2693                 2.5865
 Frc consts  --      1.1062                 1.1932                 0.9648
 IR Inten    --     46.4657                30.5461                66.0759

                     40                     41                     42
                      A                      A                      A
 Frequencies --    857.6591               871.3492               879.0232
 Red. masses --      3.9529                 1.2516                 1.2615
 Frc consts  --      1.7131                 0.5599                 0.5743
 IR Inten    --     22.0263                 0.6324                 1.3771

                     43                     44                     45
                      A                      A                      A
 Frequencies --    921.4222               951.1502               966.1735
 Red. masses --      3.8130                 1.4763                 1.4960
 Frc consts  --      1.9074                 0.7869                 0.8228
 IR Inten    --      2.8807                 1.8829                 7.1734

                     46                     47                     48
                      A                      A                      A
 Frequencies --   1006.5331              1011.2728              1018.5569
 Red. masses --      1.2324                 1.3550                 1.4588
 Frc consts  --      0.7356                 0.8165                 0.8917
 IR Inten    --     52.4496                 7.9001                11.2604

                     49                     50                     51
                      A                      A                      A
 Frequencies --   1026.3140              1028.1237              1030.1239
 Red. masses --      5.6078                 3.6914                 1.3180
 Frc consts  --      3.4802                 2.2990                 0.8240
 IR Inten    --      1.1588                 8.1337                 0.4612

                     52                     53                     54
                      A                      A                      A
 Frequencies --   1031.8186              1050.0601              1064.2893
 Red. masses --      1.3439                 4.4047                 2.3411
 Frc consts  --      0.8430                 2.8615                 1.5624
 IR Inten    --      3.8468                18.4320                13.2724

                     55                     56                     57
                      A                      A                      A
 Frequencies --   1070.1041              1079.5195              1093.5918
 Red. masses --      2.0979                 3.7358                 1.9302
 Frc consts  --      1.4154                 2.5650                 1.3601
 IR Inten    --     34.2754                17.5767                33.1950

                     58                     59                     60
                      A                      A                      A
 Frequencies --   1114.3604              1121.4647              1124.7466
 Red. masses --      1.3180                 1.5631                 1.5353
 Frc consts  --      0.9643                 1.1583                 1.1444
 IR Inten    --     43.3907                10.8003                34.2005

                     61                     62                     63
                      A                      A                      A
 Frequencies --   1176.8257              1184.1392              1185.6218
 Red. masses --      3.3029                 1.1330                 1.1343
 Frc consts  --      2.6951                 0.9360                 0.9394
 IR Inten    --     30.0238                 0.1953                 0.0841

                     64                     65                     66
                      A                      A                      A
 Frequencies --   1215.1187              1216.8245              1242.2067
 Red. masses --      1.1194                 1.1541                 1.5002
 Frc consts  --      0.9738                 1.0068                 1.3639
 IR Inten    --      0.9658                 7.0120                51.5901

                     67                     68                     69
                      A                      A                      A
 Frequencies --   1257.8851              1319.9729              1322.1506
 Red. masses --      3.3043                 4.5525                 4.2501
 Frc consts  --      3.0804                 4.6734                 4.3773
 IR Inten    --     29.5736                 7.0295                 4.1549

                     70                     71                     72
                      A                      A                      A
 Frequencies --   1355.8288              1360.4402              1373.8001
 Red. masses --      1.8009                 1.5261                 1.6779
 Frc consts  --      1.9505                 1.6642                 1.8658
 IR Inten    --     26.8037                 9.0883                 5.1389

                     73                     74                     75
                      A                      A                      A
 Frequencies --   1384.7719              1403.7296              1453.0703
 Red. masses --      1.7813                 4.7308                 1.1997
 Frc consts  --      2.0125                 5.4923                 1.4924
 IR Inten    --      5.6694              1169.3197                 8.6942

                     76                     77                     78
                      A                      A                      A
 Frequencies --   1488.1438              1490.2206              1492.7347
 Red. masses --      2.2086                 1.0626                 2.1779
 Frc consts  --      2.8817                 1.3903                 2.8593
 IR Inten    --     10.9072                13.5913                51.7996

                     79                     80                     81
                      A                      A                      A
 Frequencies --   1507.2341              1542.1469              1544.7478
 Red. masses --      1.0505                 2.2173                 2.3069
 Frc consts  --      1.4061                 3.1069                 3.2433
 IR Inten    --     16.3581                26.4485                 8.1569

                     82                     83                     84
                      A                      A                      A
 Frequencies --   1583.6129              1619.9511              1646.7542
 Red. masses --      2.5258                 1.2070                 1.7105
 Frc consts  --      3.7320                 1.8662                 2.7329
 IR Inten    --    482.0274               429.8588                81.4423

                     85                     86                     87
                      A                      A                      A
 Frequencies --   1652.9817              1655.0350              1672.7200
 Red. masses --      5.4963                 4.9885                 5.9015
 Frc consts  --      8.8483                 8.0507                 9.7288
 IR Inten    --      0.4232                 9.9078                 7.0135

                     88                     89                     90
                      A                      A                      A
 Frequencies --   1677.3148              3073.9378              3147.2110
 Red. masses --      5.9721                 1.0340                 1.1039
 Frc consts  --      9.8994                 5.7564                 6.4419
 IR Inten    --      2.1532                43.8440                 8.4580

                     91                     92                     93
                      A                      A                      A
 Frequencies --   3176.8403              3195.4477              3196.5056
 Red. masses --      1.1047                 1.0857                 1.0862
 Frc consts  --      6.5687                 6.5317                 6.5391
 IR Inten    --     19.5906                 2.5883                 1.3263

                     94                     95                     96
                      A                      A                      A
 Frequencies --   3201.8944              3204.0807              3210.9734
 Red. masses --      1.0885                 1.0891                 1.0927
 Frc consts  --      6.5752                 6.5875                 6.6381
 IR Inten    --      3.9597                 3.6891                27.9487

                     97                     98                     99
                      A                      A                      A
 Frequencies --   3212.6942              3221.1443              3223.0790
 Red. masses --      1.0939                 1.0962                 1.0981
 Frc consts  --      6.6522                 6.7011                 6.7210
 IR Inten    --     25.4238                24.4326                21.9961

                    100                    101                    102
                      A                      A                      A
 Frequencies --   3228.2863              3255.5439              3437.5314
 Red. masses --      1.0954                 1.0911                 1.0621
 Frc consts  --      6.7261                 6.8136                 7.3943
 IR Inten    --     10.0447                14.0271                96.7556

                    103                    104                    105
                      A                      A                      A
 Frequencies --   3591.1144              3623.9969              3746.6251
 Red. masses --      1.0860                 1.0457                 1.1040
 Frc consts  --      8.2515                 8.0917                 9.1307
 IR Inten    --     67.9772                76.6793                88.6514

 - Thermochemistry -
 -------------------
 Temperature   298.150 Kelvin.  Pressure   1.00000 Atm.
 Atom     1 has atomic number  6 and mass  12.00000

 Molecular mass:   332.05242 amu.
 Principal axes and moments of inertia in atomic units:
                           1         2         3
     Eigenvalues --  5532.222066370.372828975.57202
           X            0.99685  -0.07317  -0.03052
           Y            0.07309   0.99732  -0.00366
           Z            0.03070   0.00141   0.99953
 This molecule is an asymmetric top.
 Rotational symmetry number  1.
 Warning -- assumption of classical behavior for rotation
           may cause significant error
 Rotational temperatures (Kelvin)      0.01566     0.01360     0.00965
 Rotational constants (GHZ):           0.32622     0.28330     0.20107
    1 imaginary frequencies ignored.
 Zero-point vibrational energy     790112.8 (Joules/Mol)
                                  188.84150 (Kcal/Mol)
 Warning -- explicit consideration of  28 degrees of freedom as
           vibrations may cause significant error
 Vibrational temperatures:     39.28    75.64    79.08    87.93   113.17
          (Kelvin)            125.23   188.82   193.20   220.61   238.60
                              282.65   289.64   330.65   366.72   379.83
                              402.06   432.62   452.30   466.91   532.78
                              596.60   602.20   613.15   703.32   728.37
                              769.75   853.67   878.30   916.99   920.09
                              933.48   988.29  1014.21  1042.66  1048.33
                             1118.17  1132.40  1144.80  1233.98  1253.68
                             1264.72  1325.72  1368.49  1390.11  1448.18
                             1455.00  1465.48  1476.64  1479.24  1482.12
                             1484.56  1510.80  1531.27  1539.64  1553.19
                             1573.43  1603.32  1613.54  1618.26  1693.19
                             1703.71  1705.85  1748.28  1750.74  1787.26
                             1809.82  1899.15  1902.28  1950.74  1957.37
                             1976.59  1992.38  2019.65  2090.64  2141.11
                             2144.10  2147.71  2168.57  2218.81  2222.55
                             2278.47  2330.75  2369.31  2378.27  2381.23
                             2406.67  2413.28  4422.71  4528.13  4570.76
                             4597.54  4599.06  4606.81  4609.96  4619.87
                             4622.35  4634.51  4637.29  4644.78  4684.00
                             4945.84  5166.81  5214.12  5390.56

 Zero-point correction=                           0.300938 (Hartree/Particle)
 Thermal correction to Energy=                    0.319771
 Thermal correction to Enthalpy=                  0.320716
 Thermal correction to Gibbs Free Energy=         0.252829
 Sum of electronic and zero-point Energies=          -3378.585142
 Sum of electronic and thermal Energies=             -3378.566309
 Sum of electronic and thermal Enthalpies=           -3378.565364
 Sum of electronic and thermal Free Energies=        -3378.633251

                     E (Thermal)             CV                S
                      KCal/Mol        Cal/Mol-Kelvin    Cal/Mol-Kelvin
 Total                  200.660             71.511            142.880
 Electronic               0.000              0.000              0.000
 Translational            0.889              2.981             43.295
 Rotational               0.889              2.981             34.113
 Vibrational            198.882             65.549             65.471
 Vibration     1          0.593              1.984              6.017
 Vibration     2          0.596              1.977              4.718
 Vibration     3          0.596              1.976              4.630
 Vibration     4          0.597              1.973              4.421
 Vibration     5          0.600              1.964              3.924
 Vibration     6          0.601              1.958              3.726
 Vibration     7          0.612              1.922              2.928
 Vibration     8          0.613              1.919              2.884
 Vibration     9          0.619              1.899              2.631
 Vibration    10          0.624              1.884              2.482
 Vibration    11          0.636              1.845              2.166
 Vibration    12          0.638              1.838              2.121
 Vibration    13          0.652              1.795              1.880
 Vibration    14          0.665              1.755              1.697
 Vibration    15          0.671              1.739              1.635
 Vibration    16          0.680              1.712              1.537
 Vibration    17          0.693              1.672              1.413
 Vibration    18          0.702              1.646              1.339
 Vibration    19          0.709              1.626              1.287
 Vibration    20          0.742              1.533              1.079
 Vibration    21          0.778              1.438              0.910
 Vibration    22          0.781              1.430              0.897
 Vibration    23          0.788              1.413              0.871
 Vibration    24          0.845              1.275              0.687
 Vibration    25          0.861              1.236              0.643
 Vibration    26          0.890              1.173              0.576
 Vibration    27          0.951              1.046              0.461
 Vibration    28          0.970              1.010              0.432

 Optimization completed.
    -- Stationary point found.
 Normal termination of Gaussian 16 at Mon Feb  1 02:46:59 2021.
