 Gaussian 16, Revision A.03,
 Gaussian 16:  ES64L-G16RevA.03 25-Dec-2016

 ----------------------------------------------------------------------
 # wB97XD def2tzvp, opt=(ts, noeigen, calcfc, maxcycles=70, maxstep=8),
  freq=noraman, scrf=(iefpcm, solvent=water)
 ----------------------------------------------------------------------

 ------------------------
 1_iteration/TS-234-1.out
 ------------------------
 Symbolic Z-matrix:
 Charge =  0 Multiplicity = 1

 SCF Done:  E(RwB97XD) =  -1017.75073426     A.U. after   16 cycles
 SCF Done:  E(RwB97XD) =  -1017.75447260     A.U. after   14 cycles
 SCF Done:  E(RwB97XD) =  -1017.75796721     A.U. after   13 cycles
 SCF Done:  E(RwB97XD) =  -1017.76152877     A.U. after   13 cycles
 SCF Done:  E(RwB97XD) =  -1017.76498188     A.U. after   13 cycles
 SCF Done:  E(RwB97XD) =  -1017.76765039     A.U. after   13 cycles
 SCF Done:  E(RwB97XD) =  -1017.76839071     A.U. after   13 cycles
 SCF Done:  E(RwB97XD) =  -1017.76840246     A.U. after   12 cycles
 SCF Done:  E(RwB97XD) =  -1017.76841643     A.U. after   12 cycles
 SCF Done:  E(RwB97XD) =  -1017.76837001     A.U. after   11 cycles
 SCF Done:  E(RwB97XD) =  -1017.76843589     A.U. after    6 cycles
 SCF Done:  E(RwB97XD) =  -1017.76829563     A.U. after   12 cycles
 SCF Done:  E(RwB97XD) =  -1017.76842709     A.U. after   12 cycles
 SCF Done:  E(RwB97XD) =  -1017.76843239     A.U. after   11 cycles
 SCF Done:  E(RwB97XD) =  -1017.76843231     A.U. after   12 cycles
 SCF Done:  E(RwB97XD) =  -1017.76843543     A.U. after   12 cycles
 SCF Done:  E(RwB97XD) =  -1017.76843568     A.U. after    9 cycles
 SCF Done:  E(RwB97XD) =  -1017.76843593     A.U. after   10 cycles
 SCF Done:  E(RwB97XD) =  -1017.76843588     A.U. after   10 cycles
 Optimization completed.
    -- Stationary point found.
 Normal termination of Gaussian 16 at Thu Feb 11 07:32:28 2021.

 ---------------------------------------------------------------------
 #N Geom=AllCheck Guess=TCheck SCRF=Check GenChk RwB97XD/def2TZVP Freq
 ---------------------------------------------------------------------

 Structure from the checkpoint file:  "/beegfs/scratch/user/q/tla25/Gau-26414.chk"
 ------------------------
 1_iteration/TS-234-1.out
 ------------------------
 Charge =  0 Multiplicity = 1

                         Standard orientation:
 ---------------------------------------------------------------------
 Center     Atomic      Atomic             Coordinates (Angstroms)
 Number     Number       Type             X           Y           Z
 ---------------------------------------------------------------------
      1          6           0        1.268916    0.178454   -0.390684
      2          6           0        1.520197    1.371611    0.352276
      3          8           0        0.772271    1.737551    1.266701
      4          6           0        0.145815   -0.649938   -0.339982
      5          6           0        1.624660   -2.208003    1.546247
      6          1           0        2.223387   -1.296273    1.549008
      7          1           0        1.706024   -2.691189    2.520324
      8          1           0        2.011053   -2.874639    0.778193
      9          7           0        0.248324   -1.853733    1.228707
     10          1           0       -0.325029   -2.664929    1.031726
     11          1           0       -0.185724   -1.343434    1.987726
     12          1           0        0.223342   -1.469229   -1.045273
     13          6           0       -1.278304   -0.214490   -0.219874
     14          6           0       -1.822165    0.483456    0.856369
     15          6           0       -3.164913    0.829894    0.863061
     16          6           0       -3.986327    0.492671   -0.202846
     17          6           0       -3.457933   -0.209294   -1.275840
     18          6           0       -2.119430   -0.568394   -1.276200
     19          1           0       -1.183896    0.771091    1.677398
     20          1           0       -3.570630    1.370070    1.709330
     21          1           0       -5.033085    0.769006   -0.193966
     22          1           0       -4.088572   -0.487211   -2.110777
     23          1           0       -1.719086   -1.128656   -2.113063
     24         17           0        2.590021   -0.432025   -1.413544
     25          6           0        2.742528    2.202516    0.027549
     26          1           0        2.833550    2.391132   -1.042495
     27          1           0        2.675059    3.144930    0.567068
     28          1           0        3.648556    1.678593    0.340031
 ---------------------------------------------------------------------

 SCF Done:  E(RwB97XD) =  -1017.76843588     A.U. after    1 cycles

 The electronic state is 1-A.
 Alpha  occ. eigenvalues -- -101.68395 -19.20984 -14.47759 -10.35938 -10.34746
 Alpha  occ. eigenvalues --  -10.31377 -10.31049 -10.30800 -10.29391 -10.29174
 Alpha  occ. eigenvalues --  -10.29111 -10.29046 -10.28838 -10.27197  -9.56942
 Alpha  occ. eigenvalues --   -7.31555  -7.30743  -7.30722  -1.11778  -1.03274
 Alpha  occ. eigenvalues --   -0.97371  -0.95748  -0.88703  -0.85280  -0.83480
 Alpha  occ. eigenvalues --   -0.81751  -0.78541  -0.73760  -0.70624  -0.68887
 Alpha  occ. eigenvalues --   -0.62944  -0.62289  -0.58806  -0.56760  -0.56573
 Alpha  occ. eigenvalues --   -0.55008  -0.54777  -0.53419  -0.52611  -0.51414
 Alpha  occ. eigenvalues --   -0.50955  -0.49597  -0.47837  -0.47659  -0.46848
 Alpha  occ. eigenvalues --   -0.46000  -0.44409  -0.43948  -0.42851  -0.42054
 Alpha  occ. eigenvalues --   -0.40861  -0.39110  -0.34044  -0.33846  -0.32112
 Alpha  occ. eigenvalues --   -0.27424
 Alpha virt. eigenvalues --    0.02105   0.05154   0.06146   0.10205   0.11637
 Alpha virt. eigenvalues --    0.12824   0.13796   0.14659   0.15030   0.15676
 Alpha virt. eigenvalues --    0.17176   0.17609   0.18052   0.18980   0.19057

 Mulliken charges:
               1
     1  C   -0.130049
     2  C    0.256153
     3  O   -0.512476
     4  C   -0.063037
     5  C   -0.283332
     6  H    0.150276
     7  H    0.151830
     8  H    0.153541
     9  N   -0.345429
    10  H    0.284067
    11  H    0.276687
    12  H    0.166612
    13  C    0.259662
    14  C   -0.289647
    15  C   -0.141948
    16  C   -0.154411
    17  C   -0.142013
    18  C   -0.232260
    19  H    0.169869
    20  H    0.143107
    21  H    0.145052
    22  H    0.144379
    23  H    0.142496
    24  Cl  -0.186619
    25  C   -0.365462
    26  H    0.138263
    27  H    0.124321
    28  H    0.140367
 Sum of Mulliken charges =  -0.00000

 Dipole moment (field-independent basis, Debye):
    X=             -2.3238    Y=             -6.6817    Z=              1.7128  Tot=              7.2787
 Quadrupole moment (field-independent basis, Debye-Ang):
   XX=            -86.3179   YY=            -85.0112   ZZ=            -87.8914
   XY=             -1.1258   XZ=              4.3109   YZ=             -7.6197

  Exact polarizability: 255.252   2.877 202.111  -6.939  17.619 198.767
 Approx polarizability: 193.911  -2.263 164.256  -6.182  18.822 173.726

 ******    1 imaginary frequencies (negative Signs) ******

                      1                      2                      3
                      A                      A                      A
 Frequencies --   -328.9291                30.6866                42.6943
 Red. masses --      5.9175                 4.1866                 2.5036
 Frc consts  --      0.3772                 0.0023                 0.0027
 IR Inten    --    746.8954                 2.2523                 1.1357

                      4                      5                      6
                      A                      A                      A
 Frequencies --     57.7515                77.3430               102.4029
 Red. masses --      5.1318                 3.1059                 4.1694
 Frc consts  --      0.0101                 0.0109                 0.0258
 IR Inten    --     12.1254                11.9253                 8.7482

                      7                      8                      9
                      A                      A                      A
 Frequencies --    126.9568               147.5516               164.1773
 Red. masses --      3.8732                 3.4398                 1.1674
 Frc consts  --      0.0368                 0.0441                 0.0185
 IR Inten    --      9.0569                 5.3436                 0.6321

                     10                     11                     12
                      A                      A                      A
 Frequencies --    198.5242               218.6016               252.3488
 Red. masses --      1.2044                 4.5463                 5.2195
 Frc consts  --      0.0280                 0.1280                 0.1958
 IR Inten    --      4.5546                 3.8474                 8.6022

                     13                     14                     15
                      A                      A                      A
 Frequencies --    261.2926               283.7732               335.2546
 Red. masses --      3.9166                 4.0826                 5.7408
 Frc consts  --      0.1575                 0.1937                 0.3802
 IR Inten    --      0.6316                31.3018                10.2140

                     16                     17                     18
                      A                      A                      A
 Frequencies --    410.0216               425.6396               454.8723
 Red. masses --      3.4291                 2.9192                10.2036
 Frc consts  --      0.3397                 0.3116                 1.2439
 IR Inten    --     36.3244                 1.4173                 6.4155

                     19                     20                     21
                      A                      A                      A
 Frequencies --    514.7009               549.1185               595.2505
 Red. masses --      2.2594                 3.2440                 2.5538
 Frc consts  --      0.3527                 0.5763                 0.5331
 IR Inten    --     38.2276                95.2736                28.8045

                     22                     23                     24
                      A                      A                      A
 Frequencies --    633.4357               637.6769               645.5173
 Red. masses --      3.8471                 4.9209                 2.6681
 Frc consts  --      0.9095                 1.1789                 0.6550
 IR Inten    --     19.3244                 7.3200                68.9423

                     25                     26                     27
                      A                      A                      A
 Frequencies --    725.2469               753.9163               801.8165
 Red. masses --      1.6004                 3.3776                 2.1058
 Frc consts  --      0.4960                 1.1311                 0.7977
 IR Inten    --     98.7569                 5.5161                 8.9019

                     28                     29                     30
                      A                      A                      A
 Frequencies --    834.9718               878.0437               960.7405
 Red. masses --      5.4105                 1.2446                 1.5691
 Frc consts  --      2.2225                 0.5654                 0.8533
 IR Inten    --     28.6403                 1.0591                17.1070

                     31                     32                     33
                      A                      A                      A
 Frequencies --    982.7078               990.3392              1002.0863
 Red. masses --      2.5423                 1.3430                 1.3469
 Frc consts  --      1.4465                 0.7760                 0.7969
 IR Inten    --     34.3840                78.9376                55.0106

                     34                     35                     36
                      A                      A                      A
 Frequencies --   1012.9537              1021.1513              1027.0430
 Red. masses --      1.3388                 1.4235                 3.4521
 Frc consts  --      0.8094                 0.8746                 2.1454
 IR Inten    --     18.7087                41.8276                 6.0815

                     37                     38                     39
                      A                      A                      A
 Frequencies --   1033.2025              1043.1717              1066.8563
 Red. masses --      1.3857                 1.7828                 2.1953
 Frc consts  --      0.8716                 1.1430                 1.4721
 IR Inten    --      6.5856                28.0719                 9.4036

                     40                     41                     42
                      A                      A                      A
 Frequencies --   1082.0444              1118.7018              1141.4059
 Red. masses --      4.2089                 1.6158                 1.1607
 Frc consts  --      2.9034                 1.1914                 0.8909
 IR Inten    --     56.5160                28.7313                67.7337

                     43                     44                     45
                      A                      A                      A
 Frequencies --   1184.8082              1189.2802              1207.4651
 Red. masses --      1.2278                 2.6754                 1.4097
 Frc consts  --      1.0155                 2.2295                 1.2109
 IR Inten    --      3.5903                36.3027                14.9203

                     46                     47                     48
                      A                      A                      A
 Frequencies --   1219.3102              1251.0877              1332.1778
 Red. masses --      1.1433                 1.9850                 4.8858
 Frc consts  --      1.0015                 1.8306                 5.1087
 IR Inten    --      2.3227                52.6866                 0.9436

                     49                     50                     51
                      A                      A                      A
 Frequencies --   1343.3315              1365.5389              1378.7134
 Red. masses --      1.3340                 1.4811                 1.3591
 Frc consts  --      1.4183                 1.6272                 1.5221
 IR Inten    --      4.1969                19.5259                65.7337

                     52                     53                     54
                      A                      A                      A
 Frequencies --   1415.9351              1444.2629              1457.3517
 Red. masses --      2.0595                 1.8317                 1.0993
 Frc consts  --      2.4328                 2.2512                 1.3756
 IR Inten    --    497.3981               299.8262                46.4267

                     55                     56                     57
                      A                      A                      A
 Frequencies --   1467.1738              1472.1968              1491.2204
 Red. masses --      1.3954                 1.1334                 1.0400
 Frc consts  --      1.7697                 1.4473                 1.3626
 IR Inten    --    112.6217                76.7406                15.0089

                     58                     59                     60
                      A                      A                      A
 Frequencies --   1503.9257              1505.5884              1545.1572
 Red. masses --      1.2028                 1.7466                 2.3290
 Frc consts  --      1.6028                 2.3327                 3.2762
 IR Inten    --     76.0066                66.1675                26.2908

                     61                     62                     63
                      A                      A                      A
 Frequencies --   1644.5323              1651.7696              1653.7332
 Red. masses --      1.1236                 5.5409                 7.3062
 Frc consts  --      1.7904                 8.9070                11.7726
 IR Inten    --     77.9062                30.0272               274.1432

                     64                     65                     66
                      A                      A                      A
 Frequencies --   1675.1084              3060.5149              3063.5789
 Red. masses --      5.8199                 1.0370                 1.0336
 Frc consts  --      9.6216                 5.7227                 5.7153
 IR Inten    --      2.3970                 8.6379                39.1665

                     67                     68                     69
                      A                      A                      A
 Frequencies --   3131.5184              3136.8840              3164.3316
 Red. masses --      1.0990                 1.1047                 1.1044
 Frc consts  --      6.3496                 6.4044                 6.5157
 IR Inten    --     13.3278                15.1993                18.5591

                     70                     71                     72
                      A                      A                      A
 Frequencies --   3164.6697              3182.4147              3191.3376
 Red. masses --      1.1048                 1.0885                 1.0874
 Frc consts  --      6.5189                 6.4950                 6.5249
 IR Inten    --     22.7131                 3.7549                 8.0589

                     73                     74                     75
                      A                      A                      A
 Frequencies --   3198.5502              3209.4194              3221.3325
 Red. masses --      1.0885                 1.0931                 1.0981
 Frc consts  --      6.5611                 6.6340                 6.7137
 IR Inten    --      2.1867                31.7147                22.4385

                     76                     77                     78
                      A                      A                      A
 Frequencies --   3252.7594              3537.6242              3620.4231
 Red. masses --      1.0926                 1.0504                 1.0962
 Frc consts  --      6.8113                 7.7450                 8.4659
 IR Inten    --      7.4390                43.0036                43.5709

 - Thermochemistry -
 -------------------
 Temperature   298.150 Kelvin.  Pressure   1.00000 Atm.
 Atom     1 has atomic number  6 and mass  12.00000

 Molecular mass:   211.07639 amu.
 Principal axes and moments of inertia in atomic units:
                           1         2         3
     Eigenvalues --  1990.991024718.012025006.32705
           X            0.99979   0.00786   0.01908
           Y           -0.00575   0.99411  -0.10823
           Z           -0.01982   0.10809   0.99394
 This molecule is an asymmetric top.
 Rotational symmetry number  1.
 Warning -- assumption of classical behavior for rotation
           may cause significant error
 Rotational temperatures (Kelvin)      0.04350     0.01836     0.01730
 Rotational constants (GHZ):           0.90645     0.38252     0.36049
    1 imaginary frequencies ignored.
 Zero-point vibrational energy     605173.0 (Joules/Mol)
                                  144.63981 (Kcal/Mol)
 Warning -- explicit consideration of  20 degrees of freedom as
           vibrations may cause significant error
 Vibrational temperatures:     44.15    61.43    83.09   111.28   147.33
          (Kelvin)            182.66   212.29   236.21   285.63   314.52
                              363.07   375.94   408.29   482.36   589.93
                              612.40   654.46   740.54   790.06   856.43
                              911.37   917.47   928.76  1043.47  1084.72
                             1153.64  1201.34  1263.31  1382.29  1413.90
                             1424.88  1441.78  1457.41  1469.21  1477.69
                             1486.55  1500.89  1534.97  1556.82  1609.56
                             1642.23  1704.67  1711.11  1737.27  1754.32
                             1800.04  1916.71  1932.75  1964.71  1983.66
                             2037.21  2077.97  2096.80  2110.94  2118.16
                             2145.53  2163.81  2166.21  2223.14  2366.12
                             2376.53  2379.35  2410.11  4403.40  4407.81
                             4505.56  4513.28  4552.77  4553.25  4578.78
                             4591.62  4602.00  4617.64  4634.78  4680.00
                             5089.85  5208.98

 Zero-point correction=                           0.230498 (Hartree/Particle)
 Thermal correction to Energy=                    0.245033
 Thermal correction to Enthalpy=                  0.245977
 Thermal correction to Gibbs Free Energy=         0.187378
 Sum of electronic and zero-point Energies=          -1017.537938
 Sum of electronic and thermal Energies=             -1017.523403
 Sum of electronic and thermal Enthalpies=           -1017.522459
 Sum of electronic and thermal Free Energies=        -1017.581058

                     E (Thermal)             CV                S
                      KCal/Mol        Cal/Mol-Kelvin    Cal/Mol-Kelvin
 Total                  153.761             52.578            123.333
 Electronic               0.000              0.000              0.000
 Translational            0.889              2.981             41.945
 Rotational               0.889              2.981             32.220
 Vibrational            151.983             46.616             49.168
 Vibration     1          0.594              1.984              5.785
 Vibration     2          0.595              1.980              5.130
 Vibration     3          0.596              1.974              4.533
 Vibration     4          0.599              1.964              3.957
 Vibration     5          0.604              1.947              3.408
 Vibration     6          0.611              1.926              2.992
 Vibration     7          0.617              1.905              2.704
 Vibration     8          0.623              1.886              2.501
 Vibration     9          0.637              1.842              2.147
 Vibration    10          0.646              1.813              1.971
 Vibration    11          0.664              1.759              1.714
 Vibration    12          0.669              1.744              1.653
 Vibration    13          0.682              1.704              1.511
 Vibration    14          0.716              1.605              1.235
 Vibration    15          0.774              1.448              0.927
 Vibration    16          0.787              1.414              0.873
 Vibration    17          0.813              1.350              0.781
 Vibration    18          0.870              1.217              0.622
 Vibration    19          0.904              1.142              0.546
 Vibration    20          0.953              1.042              0.458

 Optimization completed.
    -- Stationary point found.
 Normal termination of Gaussian 16 at Thu Feb 11 08:18:35 2021.
