 Gaussian 16, Revision A.03,
 Gaussian 16:  ES64L-G16RevA.03 25-Dec-2016

 ----------------------------------------------------------------------
 # wB97XD def2tzvp, opt=(ts, noeigen, calcfc, maxcycles=70, maxstep=3),
  freq=noraman, scrf=(iefpcm, solvent=water)
 ----------------------------------------------------------------------

 ------------------------
 3_iteration/TS-208-3.out
 ------------------------
 Symbolic Z-matrix:
 Charge =  0 Multiplicity = 1

 SCF Done:  E(RwB97XD) =  -980.949100362     A.U. after   15 cycles
 SCF Done:  E(RwB97XD) =  -980.949100334     A.U. after    6 cycles
 Optimization completed.
    -- Stationary point found.
 Normal termination of Gaussian 16 at Mon Jun 14 03:44:42 2021.

 ---------------------------------------------------------------------
 #N Geom=AllCheck Guess=TCheck SCRF=Check GenChk RwB97XD/def2TZVP Freq
 ---------------------------------------------------------------------

 Structure from the checkpoint file:  "/beegfs/scratch/user/q/tla25/Gau-443098.chk"
 ------------------------
 3_iteration/TS-208-3.out
 ------------------------
 Charge =  0 Multiplicity = 1

                         Standard orientation:
 ---------------------------------------------------------------------
 Center     Atomic      Atomic             Coordinates (Angstroms)
 Number     Number       Type             X           Y           Z
 ---------------------------------------------------------------------
      1          6           0        0.087016    0.371808    0.192800
      2          6           0       -0.281925   -0.938511    0.653008
      3          8           0        0.413219   -1.596909    1.438579
      4          6           0        1.419166    0.803330    0.213112
      5          6           0        0.956445    2.039595    2.773094
      6          1           0        1.109538    2.118568    3.850883
      7          1           0        1.000076    3.034555    2.332180
      8          1           0       -0.032895    1.621998    2.587172
      9          7           0        1.944112    1.185380    2.132994
     10          1           0        2.882724    1.560009    2.187297
     11          1           0        1.938383    0.251907    2.525159
     12          1           0        1.521245    1.841454   -0.086179
     13          6           0        2.628239    0.038064   -0.208578
     14          6           0        3.093718   -1.147232    0.359585
     15          6           0        4.222754   -1.775515   -0.145931
     16          6           0        4.909551   -1.237706   -1.224039
     17          6           0        4.464809   -0.052201   -1.790405
     18          6           0        3.343290    0.580552   -1.279483
     19          1           0        2.562717   -1.579279    1.193257
     20          1           0        4.568498   -2.694158    0.311714
     21          1           0        5.789460   -1.733414   -1.614182
     22          1           0        4.994904    0.386666   -2.626280
     23          1           0        3.010110    1.511027   -1.724747
     24          6           0       -0.955793    1.367984   -0.159643
     25          6           0       -2.135374    1.487539    0.582623
     26          6           0       -3.105550    2.420033    0.253818
     27          6           0       -2.918384    3.276969   -0.822561
     28          6           0       -1.751339    3.181703   -1.566557
     29          6           0       -0.790545    2.235331   -1.243351
     30          1           0       -2.291722    0.840745    1.437790
     31          1           0       -4.007891    2.486201    0.849501
     32          1           0       -3.673495    4.009539   -1.077993
     33          1           0       -1.592778    3.837375   -2.414143
     34          1           0        0.097553    2.152436   -1.859062
     35          6           0       -1.563117   -1.562270    0.169845
     36          6           0       -1.989058   -1.418222   -1.147274
     37          6           0       -3.142196   -2.050008   -1.586013
     38          6           0       -3.891772   -2.818254   -0.705468
     39          6           0       -3.473848   -2.965875    0.610415
     40          6           0       -2.308903   -2.350267    1.040651
     41          1           0       -1.410262   -0.811058   -1.832024
     42          1           0       -3.458399   -1.941017   -2.615810
     43          1           0       -4.798479   -3.303284   -1.044754
     44          1           0       -4.055972   -3.563827    1.300418
     45          1           0       -1.970950   -2.469909    2.062321
 ---------------------------------------------------------------------

 SCF Done:  E(RwB97XD) =  -980.949100334     A.U. after    1 cycles

 The electronic state is 1-A.
 Alpha  occ. eigenvalues --  -19.21563 -14.46479 -10.35789 -10.33786 -10.30996
 Alpha  occ. eigenvalues --  -10.30479 -10.29742 -10.29405 -10.29203 -10.29184
 Alpha  occ. eigenvalues --  -10.29124 -10.29049 -10.29048 -10.29000 -10.28992
 Alpha  occ. eigenvalues --  -10.28987 -10.28927 -10.28628 -10.28609 -10.28580
 Alpha  occ. eigenvalues --  -10.28336 -10.28254 -10.28221 -10.26625  -1.12137
 Alpha  occ. eigenvalues --   -1.02159  -0.97095  -0.96743  -0.96159  -0.90802
 Alpha  occ. eigenvalues --   -0.87205  -0.85596  -0.85131  -0.85093  -0.84543
 Alpha  occ. eigenvalues --   -0.81662  -0.77996  -0.75976  -0.71871  -0.70607
 Alpha  occ. eigenvalues --   -0.70353  -0.69852  -0.68668  -0.67471  -0.63443
 Alpha  occ. eigenvalues --   -0.62352  -0.61519  -0.60924  -0.58313  -0.56349
 Alpha  occ. eigenvalues --   -0.55872  -0.55332  -0.54757  -0.54518  -0.54322
 Alpha  occ. eigenvalues --   -0.53171  -0.52252  -0.52101  -0.51925  -0.51020
 Alpha  occ. eigenvalues --   -0.50836  -0.50343  -0.49663  -0.48242  -0.47479
 Alpha  occ. eigenvalues --   -0.47113  -0.46417  -0.46144  -0.45114  -0.44063
 Alpha  occ. eigenvalues --   -0.43877  -0.42909  -0.42406  -0.42157  -0.41907
 Alpha  occ. eigenvalues --   -0.40802  -0.35082  -0.34314  -0.33847  -0.33652
 Alpha  occ. eigenvalues --   -0.33241  -0.32909  -0.32064  -0.26461
 Alpha virt. eigenvalues --    0.00890   0.03551   0.05050   0.05221   0.05597
 Alpha virt. eigenvalues --    0.06387   0.08179   0.10736   0.12850   0.13122
 Alpha virt. eigenvalues --    0.13699   0.14071   0.14671   0.15640   0.15970

 Mulliken charges:
               1
     1  C   -0.074547
     2  C    0.289652
     3  O   -0.510061
     4  C   -0.115741
     5  C   -0.276240
     6  H    0.147407
     7  H    0.144350
     8  H    0.144629
     9  N   -0.362689
    10  H    0.274809
    11  H    0.269041
    12  H    0.190899
    13  C    0.276867
    14  C   -0.283855
    15  C   -0.137446
    16  C   -0.159043
    17  C   -0.143343
    18  C   -0.256624
    19  H    0.170552
    20  H    0.141343
    21  H    0.143586
    22  H    0.142429
    23  H    0.141007
    24  C    0.104548
    25  C   -0.243481
    26  C   -0.162780
    27  C   -0.145094
    28  C   -0.161865
    29  C   -0.248159
    30  H    0.157750
    31  H    0.136145
    32  H    0.139666
    33  H    0.136151
    34  H    0.162323
    35  C    0.108985
    36  C   -0.205536
    37  C   -0.163218
    38  C   -0.124729
    39  C   -0.150666
    40  C   -0.221338
    41  H    0.159781
    42  H    0.141106
    43  H    0.144981
    44  H    0.141615
    45  H    0.136836
 Sum of Mulliken charges =  -0.00000

 Dipole moment (field-independent basis, Debye):
    X=              2.8440    Y=              4.6423    Z=              1.6305  Tot=              5.6831
 Quadrupole moment (field-independent basis, Debye-Ang):
   XX=           -121.8482   YY=           -138.5730   ZZ=           -126.4540
   XY=              8.2632   XZ=              2.5708   YZ=              3.5461

  Exact polarizability: 440.610  -1.387 363.262  -4.994 -41.365 349.931
 Approx polarizability: 328.222  -3.165 290.360  -8.002 -39.961 298.983

 ******    1 imaginary frequencies (negative Signs) ******

                      1                      2                      3
                      A                      A                      A
 Frequencies --   -352.3544                16.8274                36.0808
 Red. masses --      5.6316                 4.2521                 5.3566
 Frc consts  --      0.4119                 0.0007                 0.0041
 IR Inten    --    955.3981                 0.0818                 3.8563

                      4                      5                      6
                      A                      A                      A
 Frequencies --     42.5995                45.3448                56.4623
 Red. masses --      3.6108                 4.5804                 3.1419
 Frc consts  --      0.0039                 0.0055                 0.0059
 IR Inten    --      1.7731                 0.4321                 0.6446

                      7                      8                      9
                      A                      A                      A
 Frequencies --     62.9199                68.3420                91.9994
 Red. masses --      2.9373                 4.0153                 3.4218
 Frc consts  --      0.0069                 0.0110                 0.0171
 IR Inten    --      3.9193                 0.5133                 4.8744

                     10                     11                     12
                      A                      A                      A
 Frequencies --    102.9222               120.7902               152.5626
 Red. masses --      3.6803                 4.0150                 3.7675
 Frc consts  --      0.0230                 0.0345                 0.0517
 IR Inten    --      8.2927                18.0800                 1.6331

                     13                     14                     15
                      A                      A                      A
 Frequencies --    184.2550               189.2277               219.2276
 Red. masses --      5.7719                 1.5778                 3.0686
 Frc consts  --      0.1155                 0.0333                 0.0869
 IR Inten    --      6.6841                 3.9454                 3.3804

                     16                     17                     18
                      A                      A                      A
 Frequencies --    228.5964               248.7339               257.0411
 Red. masses --      4.1161                 4.7661                 3.0552
 Frc consts  --      0.1267                 0.1737                 0.1189
 IR Inten    --      2.3001                 5.2360                 7.5553

                     19                     20                     21
                      A                      A                      A
 Frequencies --    285.4825               332.6274               356.7288
 Red. masses --      4.8920                 4.4563                 8.2129
 Frc consts  --      0.2349                 0.2905                 0.6158
 IR Inten    --     11.3511                48.1670                18.9248

                     22                     23                     24
                      A                      A                      A
 Frequencies --    415.4463               422.7363               425.2817
 Red. masses --      3.7211                 2.9279                 2.9804
 Frc consts  --      0.3784                 0.3083                 0.3176
 IR Inten    --      5.0255                 1.4240                 0.1620

                     25                     26                     27
                      A                      A                      A
 Frequencies --    429.7611               472.5104               503.8338
 Red. masses --      3.2735                 3.2687                 3.3116
 Frc consts  --      0.3562                 0.4300                 0.4953
 IR Inten    --      3.3032                31.9320                38.0820

                     28                     29                     30
                      A                      A                      A
 Frequencies --    527.4075               548.9354               581.5062
 Red. masses --      3.7511                 3.0931                 2.9826
 Frc consts  --      0.6148                 0.5491                 0.5942
 IR Inten    --     19.3515                34.4903                84.6287

                     31                     32                     33
                      A                      A                      A
 Frequencies --    619.9164               630.2645               635.0188
 Red. masses --      4.4857                 3.8764                 6.3691
 Frc consts  --      1.0156                 0.9072                 1.5132
 IR Inten    --      6.1020                43.9967                 0.3298

                     34                     35                     36
                      A                      A                      A
 Frequencies --    640.7723               645.1463               696.2765
 Red. masses --      5.6135                 4.6061                 4.9263
 Frc consts  --      1.3580                 1.1295                 1.4071
 IR Inten    --     11.1746                31.8208                 4.2059

                     37                     38                     39
                      A                      A                      A
 Frequencies --    722.0916               725.3032               726.7539
 Red. masses --      2.2438                 1.6323                 1.6649
 Frc consts  --      0.6893                 0.5059                 0.5181
 IR Inten    --     30.0227               111.9837                97.2196

                     40                     41                     42
                      A                      A                      A
 Frequencies --    728.8372               755.9908               791.7978
 Red. masses --      2.5318                 2.7370                 2.3709
 Frc consts  --      0.7924                 0.9216                 0.8758
 IR Inten    --     20.5195                87.6650                32.9147

                     43                     44                     45
                      A                      A                      A
 Frequencies --    798.4158               835.6711               853.5398
 Red. masses --      2.1041                 3.3931                 3.8278
 Frc consts  --      0.7903                 1.3961                 1.6430
 IR Inten    --     29.8673                48.6304                13.7650

                     46                     47                     48
                      A                      A                      A
 Frequencies --    872.9373               879.0701               881.4288
 Red. masses --      1.2564                 1.2467                 1.2508
 Frc consts  --      0.5641                 0.5676                 0.5726
 IR Inten    --      1.5071                 1.0334                 0.8042

                     49                     50                     51
                      A                      A                      A
 Frequencies --    946.5327               955.5556               964.0350
 Red. masses --      1.4842                 2.0654                 1.1815
 Frc consts  --      0.7834                 1.1112                 0.6469
 IR Inten    --      1.0635                13.9985               145.7300

                     52                     53                     54
                      A                      A                      A
 Frequencies --    969.2039               973.5221              1007.8992
 Red. masses --      1.4447                 2.2646                 1.3659
 Frc consts  --      0.7996                 1.2646                 0.8175
 IR Inten    --     26.3409                19.5205                 3.7727

                     55                     56                     57
                      A                      A                      A
 Frequencies --   1010.7645              1016.8691              1017.1717
 Red. masses --      1.2192                 1.3816                 1.3751
 Frc consts  --      0.7339                 0.8417                 0.8382
 IR Inten    --     24.0828                 1.2558                12.6991

                     58                     59                     60
                      A                      A                      A
 Frequencies --   1021.0401              1023.4506              1025.1842
 Red. masses --      1.3944                 4.4340                 4.2312
 Frc consts  --      0.8565                 2.7364                 2.6201
 IR Inten    --      0.2189                 0.8499                 1.9073

                     61                     62                     63
                      A                      A                      A
 Frequencies --   1026.2977              1032.2006              1032.7258
 Red. masses --      5.8413                 1.3247                 1.3561
 Frc consts  --      3.6250                 0.8316                 0.8521
 IR Inten    --      1.2160                 0.4537                 4.3247

                     64                     65                     66
                      A                      A                      A
 Frequencies --   1052.7667              1062.5593              1065.1482
 Red. masses --      3.3298                 2.1442                 2.1306
 Frc consts  --      2.1743                 1.4263                 1.4242
 IR Inten    --     12.1032                 8.1937                22.5415

                     67                     68                     69
                      A                      A                      A
 Frequencies --   1087.0037              1088.7243              1107.5384
 Red. masses --      1.8868                 3.9422                 1.5241
 Frc consts  --      1.3135                 2.7531                 1.1015
 IR Inten    --     32.2865                40.0828                10.6960

                     70                     71                     72
                      A                      A                      A
 Frequencies --   1111.6108              1117.7145              1127.5049
 Red. masses --      1.5529                 1.5947                 1.3378
 Frc consts  --      1.1306                 1.1738                 1.0020
 IR Inten    --     17.8283                34.2992                57.1536

                     73                     74                     75
                      A                      A                      A
 Frequencies --   1181.0880              1182.4402              1184.5354
 Red. masses --      1.1271                 1.1337                 1.1288
 Frc consts  --      0.9263                 0.9339                 0.9332
 IR Inten    --      1.2660                 0.5966                 1.0617

                     76                     77                     78
                      A                      A                      A
 Frequencies --   1194.0375              1201.7048              1210.1575
 Red. masses --      1.4148                 1.1587                 2.1167
 Frc consts  --      1.1885                 0.9858                 1.8264
 IR Inten    --     15.0819                 4.7227                26.0333

                     79                     80                     81
                      A                      A                      A
 Frequencies --   1214.3056              1217.8686              1267.1787
 Red. masses --      1.3086                 1.1377                 3.1135
 Frc consts  --      1.1369                 0.9942                 2.9456
 IR Inten    --     10.8093                 5.9742               110.2466

                     82                     83                     84
                      A                      A                      A
 Frequencies --   1285.2674              1309.8882              1328.1336
 Red. masses --      2.7345                 4.4375                 4.0554
 Frc consts  --      2.6614                 4.4860                 4.2147
 IR Inten    --     35.2216                36.4976                 6.8486

                     85                     86                     87
                      A                      A                      A
 Frequencies --   1340.1549              1347.0810              1354.2529
 Red. masses --      4.2403                 1.3415                 1.5606
 Frc consts  --      4.4870                 1.4342                 1.6863
 IR Inten    --     12.5734                 6.0084                10.6513

                     88                     89                     90
                      A                      A                      A
 Frequencies --   1359.7413              1368.2274              1403.9751
 Red. masses --      1.5524                 1.4040                 2.8283
 Frc consts  --      1.6911                 1.5486                 3.2847
 IR Inten    --     50.2465                23.0213               824.5240

                     91                     92                     93
                      A                      A                      A
 Frequencies --   1455.0066              1468.3362              1488.5400
 Red. masses --      1.5043                 1.7342                 2.1986
 Frc consts  --      1.8764                 2.2029                 2.8703
 IR Inten    --     96.1613               103.8510                 6.3562

                     94                     95                     96
                      A                      A                      A
 Frequencies --   1490.0185              1493.1650              1505.8787
 Red. masses --      1.0639                 2.2674                 1.5332
 Frc consts  --      1.3916                 2.9785                 2.0485
 IR Inten    --     12.0388                36.7973               162.5219

                     97                     98                     99
                      A                      A                      A
 Frequencies --   1508.5141              1538.7086              1541.0167
 Red. masses --      1.3580                 2.3186                 2.3181
 Frc consts  --      1.8207                 3.2343                 3.2434
 IR Inten    --     42.8616                11.8384                97.1370

                    100                    101                    102
                      A                      A                      A
 Frequencies --   1543.2314              1626.1138              1642.1578
 Red. masses --      2.3869                 5.7606                 2.7441
 Frc consts  --      3.3492                 8.9747                 4.3599
 IR Inten    --     10.0769               518.3352                60.4405

                    103                    104                    105
                      A                      A                      A
 Frequencies --   1645.0137              1649.2295              1657.3716
 Red. masses --      1.5483                 5.2948                 5.7648
 Frc consts  --      2.4686                 8.4852                 9.3299
 IR Inten    --      5.9561                 6.4008               106.9443

                    106                    107                    108
                      A                      A                      A
 Frequencies --   1670.7578              1673.4082              1674.8247
 Red. masses --      5.9390                 5.9359                 5.9924
 Frc consts  --      9.7677                 9.7935                 9.9035
 IR Inten    --      6.7232                 5.9163                12.3671

                    109                    110                    111
                      A                      A                      A
 Frequencies --   3057.6234              3131.6590              3154.5557
 Red. masses --      1.0347                 1.1025                 1.1048
 Frc consts  --      5.6997                 6.3703                 6.4776
 IR Inten    --     61.3759                18.2954                20.8294

                    112                    113                    114
                      A                      A                      A
 Frequencies --   3169.4074              3184.8348              3187.5488
 Red. masses --      1.0879                 1.0860                 1.0877
 Frc consts  --      6.4385                 6.4903                 6.5113
 IR Inten    --     11.8584                12.5031                 3.2545

                    115                    116                    117
                      A                      A                      A
 Frequencies --   3188.3212              3193.6326              3197.3876
 Red. masses --      1.0876                 1.0857                 1.0881
 Frc consts  --      6.5138                 6.5242                 6.5539
 IR Inten    --     10.4581                 1.0198                 1.2641

                    118                    119                    120
                      A                      A                      A
 Frequencies --   3198.7717              3200.3791              3204.7855
 Red. masses --      1.0909                 1.0881                 1.0948
 Frc consts  --      6.5763                 6.5664                 6.6252
 IR Inten    --      8.8356                 1.7272                50.7770

                    121                    122                    123
                      A                      A                      A
 Frequencies --   3207.6939              3208.2089              3214.7729
 Red. masses --      1.0931                 1.0916                 1.0949
 Frc consts  --      6.6265                 6.6200                 6.6669
 IR Inten    --     33.0241                12.4926                34.7719

                    124                    125                    126
                      A                      A                      A
 Frequencies --   3218.1032              3220.3716              3222.1345
 Red. masses --      1.0986                 1.0981                 1.0988
 Frc consts  --      6.7033                 6.7096                 6.7212
 IR Inten    --     24.4890                24.7900                20.3308

                    127                    128                    129
                      A                      A                      A
 Frequencies --   3253.6173              3535.9714              3624.8032
 Red. masses --      1.0927                 1.0496                 1.0968
 Frc consts  --      6.8154                 7.7318                 8.4910
 IR Inten    --     11.2982                32.4967                45.8222

 - Thermochemistry -
 -------------------
 Temperature   298.150 Kelvin.  Pressure   1.00000 Atm.
 Atom     1 has atomic number  6 and mass  12.00000

 Molecular mass:   315.16231 amu.
 Principal axes and moments of inertia in atomic units:
                           1         2         3
     Eigenvalues --  5747.547829911.68966**********
           X            0.99999   0.00317   0.00152
           Y           -0.00319   0.99995   0.00936
           Z           -0.00149  -0.00936   0.99996
 This molecule is an asymmetric top.
 Rotational symmetry number  1.
 Warning -- assumption of classical behavior for rotation
           may cause significant error
 Rotational temperatures (Kelvin)      0.01507     0.00874     0.00711
 Rotational constants (GHZ):           0.31400     0.18208     0.14823
    1 imaginary frequencies ignored.
 Zero-point vibrational energy     985150.9 (Joules/Mol)
                                  235.45670 (Kcal/Mol)
 Warning -- explicit consideration of  30 degrees of freedom as
           vibrations may cause significant error
 Vibrational temperatures:     24.21    51.91    61.29    65.24    81.24
          (Kelvin)             90.53    98.33   132.37   148.08   173.79
                              219.50   265.10   272.26   315.42   328.90
                              357.87   369.82   410.75   478.58   513.25
                              597.73   608.22   611.89   618.33   679.84
                              724.90   758.82   789.80   836.66   891.92
                              906.81   913.65   921.93   928.22  1001.79
                             1038.93  1043.55  1045.64  1048.63  1087.70
                             1139.22  1148.74  1202.34  1228.05  1255.96
                             1264.79  1268.18  1361.85  1374.83  1387.03
                             1394.47  1400.68  1450.14  1454.26  1463.05
                             1463.48  1469.05  1472.52  1475.01  1476.61
                             1485.11  1485.86  1514.70  1528.79  1532.51
                             1563.96  1566.43  1593.50  1599.36  1608.14
                             1622.23  1699.32  1701.27  1704.28  1717.95
                             1728.99  1741.15  1747.11  1752.24  1823.19
                             1849.21  1884.64  1910.89  1928.18  1938.15
                             1948.47  1956.36  1968.57  2020.01  2093.43
                             2112.61  2141.68  2143.80  2148.33  2166.62
                             2170.42  2213.86  2217.18  2220.37  2339.62
                             2362.70  2366.81  2372.87  2384.59  2403.85
                             2407.66  2409.70  4399.24  4505.76  4538.70
                             4560.07  4582.27  4586.17  4587.28  4594.92
                             4600.33  4602.32  4604.63  4610.97  4615.16
                             4615.90  4625.34  4630.13  4633.40  4635.93
                             4681.23  5087.47  5215.28

 Zero-point correction=                           0.375224 (Hartree/Particle)
 Thermal correction to Energy=                    0.396180
 Thermal correction to Enthalpy=                  0.397124
 Thermal correction to Gibbs Free Energy=         0.322860
 Sum of electronic and zero-point Energies=           -980.573876
 Sum of electronic and thermal Energies=              -980.552920
 Sum of electronic and thermal Enthalpies=            -980.551976
 Sum of electronic and thermal Free Energies=         -980.626240

                     E (Thermal)             CV                S
                      KCal/Mol        Cal/Mol-Kelvin    Cal/Mol-Kelvin
 Total                  248.607             80.752            156.302
 Electronic               0.000              0.000              0.000
 Translational            0.889              2.981             43.140
 Rotational               0.889              2.981             34.894
 Vibrational            246.829             74.790             78.269
 Vibration     1          0.593              1.986              6.977
 Vibration     2          0.594              1.982              5.463
 Vibration     3          0.595              1.980              5.134
 Vibration     4          0.595              1.979              5.011
 Vibration     5          0.596              1.975              4.577
 Vibration     6          0.597              1.972              4.363
 Vibration     7          0.598              1.969              4.201
 Vibration     8          0.602              1.955              3.617
 Vibration     9          0.605              1.947              3.398
 Vibration    10          0.609              1.932              3.088
 Vibration    11          0.619              1.900              2.640
 Vibration    12          0.631              1.861              2.285
 Vibration    13          0.633              1.855              2.235
 Vibration    14          0.647              1.812              1.965
 Vibration    15          0.651              1.797              1.890
 Vibration    16          0.662              1.765              1.740
 Vibration    17          0.667              1.751              1.682
 Vibration    18          0.683              1.701              1.501
 Vibration    19          0.715              1.610              1.247
 Vibration    20          0.732              1.561              1.136
 Vibration    21          0.779              1.437              0.908
 Vibration    22          0.785              1.421              0.883
 Vibration    23          0.787              1.415              0.874
 Vibration    24          0.791              1.405              0.859
 Vibration    25          0.829              1.311              0.731
 Vibration    26          0.859              1.242              0.649
 Vibration    27          0.882              1.189              0.593
 Vibration    28          0.904              1.142              0.546
 Vibration    29          0.938              1.071              0.483
 Vibration    30          0.980              0.990              0.417

 Optimization completed.
    -- Stationary point found.
 Normal termination of Gaussian 16 at Mon Jun 14 05:35:46 2021.
