 Gaussian 16, Revision A.03,
 Gaussian 16:  ES64L-G16RevA.03 25-Dec-2016

 ----------------------------------------------------------------------
 # wB97XD def2tzvp, opt=(ts, noeigen, calcfc, maxcycles=70, maxstep=8),
  freq=noraman, scrf=(iefpcm, solvent=water)
 ----------------------------------------------------------------------

 ------------------------
 1_iteration/TS-236-1.out
 ------------------------
 Symbolic Z-matrix:
 Charge =  0 Multiplicity = 1

 SCF Done:  E(RwB97XD) =  -1092.99182699     A.U. after   15 cycles
 SCF Done:  E(RwB97XD) =  -1092.99519506     A.U. after   14 cycles
 SCF Done:  E(RwB97XD) =  -1092.99857204     A.U. after   13 cycles
 SCF Done:  E(RwB97XD) =  -1093.00166368     A.U. after   13 cycles
 SCF Done:  E(RwB97XD) =  -1093.00415864     A.U. after   13 cycles
 SCF Done:  E(RwB97XD) =  -1093.00532077     A.U. after   12 cycles
 SCF Done:  E(RwB97XD) =  -1093.00543564     A.U. after   12 cycles
 SCF Done:  E(RwB97XD) =  -1093.00546466     A.U. after   12 cycles
 SCF Done:  E(RwB97XD) =  -1093.00547612     A.U. after   12 cycles
 SCF Done:  E(RwB97XD) =  -1093.00527088     A.U. after   12 cycles
 SCF Done:  E(RwB97XD) =  -1093.00544355     A.U. after   12 cycles
 SCF Done:  E(RwB97XD) =  -1093.00553040     A.U. after   10 cycles
 SCF Done:  E(RwB97XD) =  -1093.00549918     A.U. after   11 cycles
 SCF Done:  E(RwB97XD) =  -1093.00544776     A.U. after   12 cycles
 SCF Done:  E(RwB97XD) =  -1093.00554299     A.U. after   12 cycles
 SCF Done:  E(RwB97XD) =  -1093.00553466     A.U. after   11 cycles
 SCF Done:  E(RwB97XD) =  -1093.00554412     A.U. after   11 cycles
 SCF Done:  E(RwB97XD) =  -1093.00554406     A.U. after    8 cycles
 SCF Done:  E(RwB97XD) =  -1093.00554415     A.U. after    7 cycles
 Optimization completed.
    -- Stationary point found.
 Normal termination of Gaussian 16 at Wed Feb 10 14:44:16 2021.

 ---------------------------------------------------------------------
 #N Geom=AllCheck Guess=TCheck SCRF=Check GenChk RwB97XD/def2TZVP Freq
 ---------------------------------------------------------------------

 Structure from the checkpoint file:  "/beegfs/scratch/user/q/tla25/Gau-11576.chk"
 ------------------------
 1_iteration/TS-236-1.out
 ------------------------
 Charge =  0 Multiplicity = 1

                         Standard orientation:
 ---------------------------------------------------------------------
 Center     Atomic      Atomic             Coordinates (Angstroms)
 Number     Number       Type             X           Y           Z
 ---------------------------------------------------------------------
      1          6           0        1.048746   -0.296242   -0.454920
      2          6           0        1.481443    0.943433    0.105734
      3          8           0        0.859216    1.588480    0.940283
      4          6           0       -0.184975   -0.917228   -0.240657
      5          6           0        1.067591   -2.481617    1.744083
      6          1           0        1.097705   -2.868356    2.762647
      7          1           0        1.250432   -3.292184    1.041874
      8          1           0        1.847720   -1.730127    1.622936
      9          7           0       -0.218125   -1.863639    1.441831
     10          1           0       -0.969288   -2.542505    1.399276
     11          1           0       -0.465165   -1.176004    2.143173
     12          1           0       -0.273274   -1.823440   -0.829601
     13          6           0       -1.510696   -0.222582   -0.174552
     14          6           0       -2.412871   -0.515109   -1.197608
     15          6           0       -3.665220    0.077421   -1.237396
     16          6           0       -4.046182    0.959888   -0.237760
     17          6           0       -3.164362    1.242492    0.795184
     18          6           0       -1.906153    0.660208    0.827125
     19          1           0       -2.129018   -1.213571   -1.976147
     20          1           0       -4.345592   -0.159257   -2.045578
     21          1           0       -5.026091    1.419626   -0.259852
     22          1           0       -3.454933    1.924895    1.584101
     23          1           0       -1.220297    0.911371    1.621756
     24         17           0        2.224985   -1.235139   -1.388127
     25          8           0        2.675383    1.373385   -0.357753
     26          6           0        3.161768    2.586259    0.201091
     27          1           0        2.490415    3.416787   -0.018750
     28          1           0        3.279231    2.500335    1.281731
     29          1           0        4.128955    2.758817   -0.264412
 ---------------------------------------------------------------------

 SCF Done:  E(RwB97XD) =  -1093.00554415     A.U. after    1 cycles

 The electronic state is 1-A.
 Alpha  occ. eigenvalues -- -101.68251 -19.28277 -19.21441 -14.48392 -10.40088
 Alpha  occ. eigenvalues --  -10.34892 -10.32652 -10.31579 -10.30984 -10.30810
 Alpha  occ. eigenvalues --  -10.29366 -10.29158 -10.29109 -10.29063 -10.28966
 Alpha  occ. eigenvalues --   -9.56782  -7.31411  -7.30574  -7.30558  -1.19786
 Alpha  occ. eigenvalues --   -1.10092  -1.03882  -0.97395  -0.95658  -0.88679
 Alpha  occ. eigenvalues --   -0.85311  -0.83500  -0.81341  -0.78807  -0.73605
 Alpha  occ. eigenvalues --   -0.70658  -0.69046  -0.64046  -0.63139  -0.61902
 Alpha  occ. eigenvalues --   -0.57704  -0.57374  -0.56571  -0.56529  -0.55406
 Alpha  occ. eigenvalues --   -0.54445  -0.53059  -0.51867  -0.50719  -0.50038
 Alpha  occ. eigenvalues --   -0.48508  -0.47768  -0.47664  -0.46542  -0.44405
 Alpha  occ. eigenvalues --   -0.43700  -0.43487  -0.42357  -0.41121  -0.39232
 Alpha  occ. eigenvalues --   -0.38094  -0.35417  -0.33938  -0.33261  -0.27107
 Alpha virt. eigenvalues --    0.03129   0.05145   0.06755   0.10345   0.11800
 Alpha virt. eigenvalues --    0.13241   0.13731   0.14517   0.15217   0.16593
 Alpha virt. eigenvalues --    0.16902   0.17284   0.17554   0.18738   0.19118

 Mulliken charges:
               1
     1  C   -0.163282
     2  C    0.415326
     3  O   -0.508743
     4  C   -0.080590
     5  C   -0.293960
     6  H    0.154964
     7  H    0.155841
     8  H    0.154861
     9  N   -0.316707
    10  H    0.286374
    11  H    0.278810
    12  H    0.162669
    13  C    0.254006
    14  C   -0.232380
    15  C   -0.142788
    16  C   -0.154373
    17  C   -0.145548
    18  C   -0.279249
    19  H    0.142849
    20  H    0.144279
    21  H    0.144958
    22  H    0.143405
    23  H    0.168829
    24  Cl  -0.184076
    25  O   -0.307261
    26  C   -0.189394
    27  H    0.126688
    28  H    0.125798
    29  H    0.138693
 Sum of Mulliken charges =  -0.00000

 Dipole moment (field-independent basis, Debye):
    X=             -3.7243    Y=             -4.8349    Z=              4.1598  Tot=              7.3858
 Quadrupole moment (field-independent basis, Debye-Ang):
   XX=            -91.1535   YY=            -84.3289   ZZ=            -90.4767
   XY=              5.0107   XZ=              5.8973   YZ=             -7.4967

  Exact polarizability: 254.231  -4.195 210.316  -4.858  15.963 197.335
 Approx polarizability: 194.565  -6.261 171.492  -4.056  17.967 171.854

 ******    1 imaginary frequencies (negative Signs) ******

                      1                      2                      3
                      A                      A                      A
 Frequencies --   -342.8191                25.3334                50.9667
 Red. masses --      6.0551                 4.3332                 3.4366
 Frc consts  --      0.4193                 0.0016                 0.0053
 IR Inten    --    837.7116                 0.4044                 1.7101

                      4                      5                      6
                      A                      A                      A
 Frequencies --     54.5327                80.8052               100.5255
 Red. masses --      4.9959                 2.7634                 4.3091
 Frc consts  --      0.0088                 0.0106                 0.0257
 IR Inten    --      4.9650                15.8661                 5.4425

                      7                      8                      9
                      A                      A                      A
 Frequencies --    122.2074               132.9031               141.4805
 Red. masses --      4.4340                 3.2253                 3.5583
 Frc consts  --      0.0390                 0.0336                 0.0420
 IR Inten    --      6.3588                 6.9034                11.1309

                     10                     11                     12
                      A                      A                      A
 Frequencies --    172.9900               190.2816               216.0447
 Red. masses --      1.2825                 3.0269                 1.3183
 Frc consts  --      0.0226                 0.0646                 0.0363
 IR Inten    --      0.2620                 2.8848                 1.3429

                     13                     14                     15
                      A                      A                      A
 Frequencies --    248.6958               255.3834               281.6347
 Red. masses --      5.1563                 4.7901                 3.4664
 Frc consts  --      0.1879                 0.1841                 0.1620
 IR Inten    --      2.1488                10.5762                16.9307

                     16                     17                     18
                      A                      A                      A
 Frequencies --    327.5051               347.9446               420.5864
 Red. masses --      5.5305                 5.3358                 3.0440
 Frc consts  --      0.3495                 0.3806                 0.3172
 IR Inten    --     53.4959                10.4250                 4.9822

                     19                     20                     21
                      A                      A                      A
 Frequencies --    436.3826               457.4046               539.8965
 Red. masses --      4.2611                11.8037                 2.3966
 Frc consts  --      0.4781                 1.4550                 0.4116
 IR Inten    --     24.7334                 6.2318               117.9612

                     22                     23                     24
                      A                      A                      A
 Frequencies --    592.7708               621.4888               638.6024
 Red. masses --      2.5179                 6.5960                 5.5201
 Frc consts  --      0.5213                 1.5011                 1.3263
 IR Inten    --     45.1753                38.9907                 1.4902

                     25                     26                     27
                      A                      A                      A
 Frequencies --    709.9359               723.6514               782.2922
 Red. masses --      2.3450                 1.6156                 5.0278
 Frc consts  --      0.6963                 0.4985                 1.8129
 IR Inten    --     25.8691                95.0506                72.1518

                     28                     29                     30
                      A                      A                      A
 Frequencies --    791.5771               821.2111               843.4848
 Red. masses --      3.1491                 3.7685                 4.9570
 Frc consts  --      1.1626                 1.4974                 2.0779
 IR Inten    --     24.9823                36.4061                 9.0857

                     31                     32                     33
                      A                      A                      A
 Frequencies --    874.1325               958.1035               991.9950
 Red. masses --      1.2470                 1.4821                 2.6864
 Frc consts  --      0.5614                 0.8016                 1.5576
 IR Inten    --      0.5034                 3.0644                13.3335

                     34                     35                     36
                      A                      A                      A
 Frequencies --   1010.5516              1012.6863              1026.9438
 Red. masses --      1.3995                 1.2658                 4.5174
 Frc consts  --      0.8420                 0.7648                 2.8070
 IR Inten    --      5.0429                54.5607                 3.6070

                     37                     38                     39
                      A                      A                      A
 Frequencies --   1029.3479              1033.8457              1063.2543
 Red. masses --      1.2801                 1.3019                 2.8397
 Frc consts  --      0.7992                 0.8198                 1.8914
 IR Inten    --     21.2019                75.5880                45.7907

                     40                     41                     42
                      A                      A                      A
 Frequencies --   1077.7632              1088.1801              1121.1059
 Red. masses --      3.6883                 4.4364                 1.5966
 Frc consts  --      2.5242                 3.0952                 1.1823
 IR Inten    --    120.3062                65.6018                18.4906

                     43                     44                     45
                      A                      A                      A
 Frequencies --   1163.7659              1183.8517              1185.3239
 Red. masses --      1.1683                 1.2799                 1.1292
 Frc consts  --      0.9322                 1.0569                 0.9348
 IR Inten    --    125.1120                 2.3838                 4.6244

                     46                     47                     48
                      A                      A                      A
 Frequencies --   1207.6751              1216.8407              1223.1859
 Red. masses --      1.9747                 1.2064                 1.5558
 Frc consts  --      1.6969                 1.0524                 1.3714
 IR Inten    --     25.6335                14.4971                63.7543

                     49                     50                     51
                      A                      A                      A
 Frequencies --   1227.8796              1252.5828              1331.5652
 Red. masses --      1.7790                 2.3773                 5.2247
 Frc consts  --      1.5803                 2.1976                 5.4581
 IR Inten    --     44.1870               513.4530                40.4324

                     52                     53                     54
                      A                      A                      A
 Frequencies --   1346.9452              1367.7087              1391.0655
 Red. masses --      1.3324                 1.5078                 1.9296
 Frc consts  --      1.4243                 1.6619                 2.2000
 IR Inten    --      4.2298                73.6093               610.0323

                     55                     56                     57
                      A                      A                      A
 Frequencies --   1449.5176              1468.1322              1481.1892
 Red. masses --      1.7588                 1.5876                 1.1294
 Frc consts  --      2.1772                 2.0161                 1.4599
 IR Inten    --    177.0560                72.6163                84.1452

                     58                     59                     60
                      A                      A                      A
 Frequencies --   1483.4101              1492.5372              1498.2172
 Red. masses --      1.1347                 1.0396                 1.1213
 Frc consts  --      1.4711                 1.3645                 1.4830
 IR Inten    --     91.3843                15.2550                 1.8686

                     61                     62                     63
                      A                      A                      A
 Frequencies --   1504.2960              1506.5941              1546.5910
 Red. masses --      1.2080                 1.7211                 2.3771
 Frc consts  --      1.6106                 2.3017                 3.3500
 IR Inten    --     79.5859                58.0524                27.0176

                     64                     65                     66
                      A                      A                      A
 Frequencies --   1647.4109              1652.9197              1675.6464
 Red. masses --      1.1206                 4.9942                 5.8532
 Frc consts  --      1.7919                 8.0393                 9.6830
 IR Inten    --     59.4941                11.2004                14.2246

                     67                     68                     69
                      A                      A                      A
 Frequencies --   1688.9469              3061.1707              3068.2569
 Red. masses --     10.3377                 1.0309                 1.0332
 Frc consts  --     17.3743                 5.6918                 5.7306
 IR Inten    --    457.4616                61.5870                35.3106

                     70                     71                     72
                      A                      A                      A
 Frequencies --   3135.9947              3144.8312              3167.8544
 Red. masses --      1.1065                 1.1050                 1.1053
 Frc consts  --      6.4116                 6.4390                 6.5351
 IR Inten    --     39.6228                12.6854                15.5712

                     73                     74                     75
                      A                      A                      A
 Frequencies --   3170.7258              3176.6965              3190.4504
 Red. masses --      1.1052                 1.0883                 1.0875
 Frc consts  --      6.5464                 6.4704                 6.5222
 IR Inten    --     27.3417                 3.1785                 7.5348

                     76                     77                     78
                      A                      A                      A
 Frequencies --   3198.6153              3208.8720              3220.9137
 Red. masses --      1.0884                 1.0931                 1.0980
 Frc consts  --      6.5606                 6.6317                 6.7116
 IR Inten    --      1.5728                30.5731                22.6686

                     79                     80                     81
                      A                      A                      A
 Frequencies --   3249.9358              3532.2984              3614.1283
 Red. masses --      1.0925                 1.0508                 1.0959
 Frc consts  --      6.7983                 7.7247                 8.4339
 IR Inten    --      3.9540                43.7493                42.8233

 - Thermochemistry -
 -------------------
 Temperature   298.150 Kelvin.  Pressure   1.00000 Atm.
 Atom     1 has atomic number  6 and mass  12.00000

 Molecular mass:   227.07131 amu.
 Principal axes and moments of inertia in atomic units:
                           1         2         3
     Eigenvalues --  2474.234455124.705685899.01651
           X            0.99968   0.01756   0.01797
           Y           -0.01664   0.99862  -0.04989
           Z           -0.01882   0.04957   0.99859
 This molecule is an asymmetric top.
 Rotational symmetry number  1.
 Warning -- assumption of classical behavior for rotation
           may cause significant error
 Rotational temperatures (Kelvin)      0.03501     0.01690     0.01468
 Rotational constants (GHZ):           0.72941     0.35216     0.30594
    1 imaginary frequencies ignored.
 Zero-point vibrational energy     620568.6 (Joules/Mol)
                                  148.31946 (Kcal/Mol)
 Warning -- explicit consideration of  21 degrees of freedom as
           vibrations may cause significant error
 Vibrational temperatures:     36.45    73.33    78.46   116.26   144.63
          (Kelvin)            175.83   191.22   203.56   248.89   273.77
                              310.84   357.82   367.44   405.21   471.21
                              500.61   605.13   627.86   658.10   776.79
                              852.86   894.18   918.81  1021.44  1041.17
                             1125.54  1138.90  1181.54  1213.59  1257.68
                             1378.50  1427.26  1453.96  1457.03  1477.54
                             1481.00  1487.47  1529.79  1550.66  1565.65
                             1613.02  1674.40  1703.30  1705.42  1737.58
                             1750.76  1759.89  1766.64  1802.19  1915.83
                             1937.95  1967.83  2001.43  2085.53  2112.31
                             2131.10  2134.30  2147.43  2155.60  2164.35
                             2167.65  2225.20  2370.26  2378.18  2410.88
                             2430.02  4404.34  4414.54  4512.00  4524.71
                             4557.84  4561.97  4570.56  4590.35  4602.09
                             4616.85  4634.18  4675.93  5082.19  5199.92

 Zero-point correction=                           0.236362 (Hartree/Particle)
 Thermal correction to Energy=                    0.251773
 Thermal correction to Enthalpy=                  0.252717
 Thermal correction to Gibbs Free Energy=         0.191983
 Sum of electronic and zero-point Energies=          -1092.769182
 Sum of electronic and thermal Energies=             -1092.753771
 Sum of electronic and thermal Enthalpies=           -1092.752827
 Sum of electronic and thermal Free Energies=        -1092.813562

                     E (Thermal)             CV                S
                      KCal/Mol        Cal/Mol-Kelvin    Cal/Mol-Kelvin
 Total                  157.990             55.223            127.827
 Electronic               0.000              0.000              0.000
 Translational            0.889              2.981             42.163
 Rotational               0.889              2.981             32.681
 Vibrational            156.212             49.262             52.983
 Vibration     1          0.593              1.985              6.165
 Vibration     2          0.595              1.977              4.780
 Vibration     3          0.596              1.976              4.646
 Vibration     4          0.600              1.962              3.871
 Vibration     5          0.604              1.949              3.444
 Vibration     6          0.610              1.931              3.065
 Vibration     7          0.613              1.920              2.904
 Vibration     8          0.615              1.912              2.784
 Vibration     9          0.626              1.876              2.403
 Vibration    10          0.634              1.853              2.225
 Vibration    11          0.645              1.817              1.992
 Vibration    12          0.662              1.765              1.740
 Vibration    13          0.666              1.754              1.693
 Vibration    14          0.681              1.708              1.524
 Vibration    15          0.711              1.621              1.272
 Vibration    16          0.726              1.579              1.175
 Vibration    17          0.783              1.425              0.890
 Vibration    18          0.797              1.391              0.838
 Vibration    19          0.816              1.345              0.774
 Vibration    20          0.895              1.162              0.566
 Vibration    21          0.950              1.047              0.462

 Optimization completed.
    -- Stationary point found.
 Normal termination of Gaussian 16 at Wed Feb 10 15:39:13 2021.
