 Gaussian 16, Revision A.03,
 Gaussian 16:  ES64L-G16RevA.03 25-Dec-2016

 ----------------------------------------------------------------------
 # wB97XD def2tzvp, opt=(ts, noeigen, calcfc, maxcycles=70, maxstep=3),
  freq=noraman, scrf=(iefpcm, solvent=water)
 ----------------------------------------------------------------------

 ------------------------
 0_iteration/TS-246-0.out
 ------------------------
 Symbolic Z-matrix:
 Charge =  0 Multiplicity = 1

 SCF Done:  E(RwB97XD) =  -652.832073138     A.U. after   15 cycles
 SCF Done:  E(RwB97XD) =  -652.832058563     A.U. after   11 cycles
 SCF Done:  E(RwB97XD) =  -652.832073458     A.U. after   10 cycles
 SCF Done:  E(RwB97XD) =  -652.832133036     A.U. after   10 cycles
 SCF Done:  E(RwB97XD) =  -652.832314717     A.U. after   11 cycles
 SCF Done:  E(RwB97XD) =  -652.832583490     A.U. after   11 cycles
 SCF Done:  E(RwB97XD) =  -652.832918127     A.U. after   11 cycles
 SCF Done:  E(RwB97XD) =  -652.833266335     A.U. after   11 cycles
 SCF Done:  E(RwB97XD) =  -652.833598985     A.U. after   11 cycles
 SCF Done:  E(RwB97XD) =  -652.833881938     A.U. after   11 cycles
 SCF Done:  E(RwB97XD) =  -652.834084436     A.U. after   11 cycles
 SCF Done:  E(RwB97XD) =  -652.834181205     A.U. after   11 cycles
 SCF Done:  E(RwB97XD) =  -652.834193451     A.U. after    9 cycles
 SCF Done:  E(RwB97XD) =  -652.834194953     A.U. after    9 cycles
 SCF Done:  E(RwB97XD) =  -652.834195132     A.U. after    8 cycles
 SCF Done:  E(RwB97XD) =  -652.834195160     A.U. after    7 cycles
 Optimization completed.
    -- Stationary point found.
 Normal termination of Gaussian 16 at Thu Mar 25 13:30:29 2021.

 ---------------------------------------------------------------------
 #N Geom=AllCheck Guess=TCheck SCRF=Check GenChk RwB97XD/def2TZVP Freq
 ---------------------------------------------------------------------

 Structure from the checkpoint file:  "/beegfs/scratch/user/q/tla25/Gau-48243.chk"
 ------------------------
 0_iteration/TS-246-0.out
 ------------------------
 Charge =  0 Multiplicity = 1

                         Standard orientation:
 ---------------------------------------------------------------------
 Center     Atomic      Atomic             Coordinates (Angstroms)
 Number     Number       Type             X           Y           Z
 ---------------------------------------------------------------------
      1          6           0       -0.213342    0.019579    0.241468
      2          6           0       -1.153338   -0.926372   -0.368965
      3          8           0       -0.886826   -1.579803   -1.387748
      4          6           0       -0.689638    1.265866    0.663635
      5          6           0       -1.060005    3.875740   -0.270049
      6          1           0       -1.131010    4.570319   -1.106789
      7          1           0       -2.003934    3.871211    0.272780
      8          1           0       -0.269331    4.206248    0.401726
      9          7           0       -0.765148    2.515224   -0.715892
     10          1           0       -1.473855    2.162514   -1.348237
     11          1           0        0.125498    2.457714   -1.195842
     12          1           0       -0.058593    1.872898    1.305771
     13          1           0       -1.738578    1.359312    0.915576
     14          6           0        1.226597   -0.218407    0.140389
     15          6           0        1.757198   -1.514248   -0.004830
     16          6           0        3.119927   -1.746188   -0.042661
     17          6           0        4.027033   -0.697106    0.063817
     18          6           0        3.531906    0.589428    0.206444
     19          6           0        2.164571    0.824370    0.236225
     20          1           0        1.078307   -2.352062   -0.087281
     21          1           0        3.480780   -2.762699   -0.150689
     22          1           0        5.093439   -0.880913    0.033537
     23          1           0        4.214079    1.427914    0.286204
     24          1           0        1.832117    1.850003    0.339181
     25          7           0       -2.406754   -1.050022    0.185756
     26          6           0       -2.699575   -0.864384    1.591468
     27          6           0       -3.418673   -1.778777   -0.546453
     28          1           0       -1.790337   -0.631651    2.138885
     29          1           0       -3.427414   -0.062985    1.752654
     30          1           0       -3.121092   -1.787404    2.001293
     31          1           0       -3.391660   -2.852340   -0.325918
     32          1           0       -4.402664   -1.397382   -0.267704
     33          1           0       -3.273789   -1.645691   -1.615128
 ---------------------------------------------------------------------

 SCF Done:  E(RwB97XD) =  -652.834195160     A.U. after    1 cycles

 The electronic state is 1-A.
 Alpha  occ. eigenvalues --  -19.19239 -14.48751 -14.44606 -10.36660 -10.32373
 Alpha  occ. eigenvalues --  -10.32027 -10.30401 -10.29917 -10.29194 -10.27985
 Alpha  occ. eigenvalues --  -10.27863 -10.27399 -10.27236 -10.27019 -10.24952
 Alpha  occ. eigenvalues --   -1.11957  -1.04147  -1.01958  -0.95362  -0.89030
 Alpha  occ. eigenvalues --   -0.83749  -0.82734  -0.80851  -0.79197  -0.77875
 Alpha  occ. eigenvalues --   -0.72485  -0.69069  -0.67022  -0.63991  -0.62283
 Alpha  occ. eigenvalues --   -0.59759  -0.58253  -0.56391  -0.55720  -0.54990
 Alpha  occ. eigenvalues --   -0.53304  -0.53107  -0.51991  -0.51673  -0.49614
 Alpha  occ. eigenvalues --   -0.48490  -0.48297  -0.48157  -0.47455  -0.46642
 Alpha  occ. eigenvalues --   -0.45937  -0.45275  -0.44494  -0.43365  -0.41884
 Alpha  occ. eigenvalues --   -0.41023  -0.34919  -0.33238  -0.32265  -0.30944
 Alpha  occ. eigenvalues --   -0.24115
 Alpha virt. eigenvalues --    0.05706   0.06269   0.08380   0.09753   0.12064
 Alpha virt. eigenvalues --    0.13639   0.14018   0.15242   0.15817   0.16607
 Alpha virt. eigenvalues --    0.16915   0.17316   0.17641   0.18548   0.18795

 Mulliken charges:
               1
     1  C   -0.185714
     2  C    0.274163
     3  O   -0.535997
     4  C   -0.295690
     5  C   -0.276203
     6  H    0.155826
     7  H    0.151642
     8  H    0.153325
     9  N   -0.288815
    10  H    0.286374
    11  H    0.280969
    12  H    0.177261
    13  H    0.187901
    14  C    0.219207
    15  C   -0.281527
    16  C   -0.126670
    17  C   -0.194661
    18  C   -0.169619
    19  C   -0.293583
    20  H    0.125987
    21  H    0.131234
    22  H    0.132916
    23  H    0.131501
    24  H    0.141196
    25  N   -0.122069
    26  C   -0.317601
    27  C   -0.293509
    28  H    0.159505
    29  H    0.142245
    30  H    0.134883
    31  H    0.126803
    32  H    0.133814
    33  H    0.134907
 Sum of Mulliken charges =  -0.00000

 Dipole moment (field-independent basis, Debye):
    X=             -5.1392    Y=              9.7623    Z=              1.7876  Tot=             11.1763
 Quadrupole moment (field-independent basis, Debye-Ang):
   XX=            -83.3717   YY=            -71.5184   ZZ=            -96.4645
   XY=             -3.9958   XZ=             -2.7372   YZ=             -9.8197

  Exact polarizability: 294.955 -14.334 260.494  -5.595   7.709 166.157
 Approx polarizability: 214.057  -7.696 203.243  -4.932   8.426 145.479

 ******    1 imaginary frequencies (negative Signs) ******

                      1                      2                      3
                      A                      A                      A
 Frequencies --   -365.2724                39.5162                51.2423
 Red. masses --      6.2851                 3.5559                 4.4061
 Frc consts  --      0.4941                 0.0033                 0.0068
 IR Inten    --   1076.2150                 0.8036                 2.9953

                      4                      5                      6
                      A                      A                      A
 Frequencies --     54.2897                72.9180                91.6603
 Red. masses --      2.5947                 3.3033                 3.1388
 Frc consts  --      0.0045                 0.0103                 0.0155
 IR Inten    --      0.2531                 6.8152                 0.7921

                      7                      8                      9
                      A                      A                      A
 Frequencies --    103.0070               128.2815               155.7999
 Red. masses --      2.2064                 1.9130                 2.0813
 Frc consts  --      0.0138                 0.0185                 0.0298
 IR Inten    --     10.8850                 4.4633                10.8759

                     10                     11                     12
                      A                      A                      A
 Frequencies --    175.4478               190.3138               212.5523
 Red. masses --      1.4182                 1.8516                 1.7399
 Frc consts  --      0.0257                 0.0395                 0.0463
 IR Inten    --      2.9499                12.5978                 6.6571

                     13                     14                     15
                      A                      A                      A
 Frequencies --    226.2986               258.3986               290.0308
 Red. masses --      3.2143                 2.4690                 2.2548
 Frc consts  --      0.0970                 0.0971                 0.1117
 IR Inten    --      9.1216                43.5349                11.0086

                     16                     17                     18
                      A                      A                      A
 Frequencies --    327.3216               373.0790               382.3148
 Red. masses --      4.0929                 2.4926                 3.3918
 Frc consts  --      0.2584                 0.2044                 0.2921
 IR Inten    --     69.3680                 9.4909                23.0801

                     19                     20                     21
                      A                      A                      A
 Frequencies --    426.0425               444.0420               494.6009
 Red. masses --      2.9128                 2.9076                 3.7571
 Frc consts  --      0.3115                 0.3378                 0.5415
 IR Inten    --      0.9450                13.3374                57.7122

                     22                     23                     24
                      A                      A                      A
 Frequencies --    572.8821               599.1957               632.3002
 Red. masses --      4.4899                 3.8595                 4.0874
 Frc consts  --      0.8682                 0.8164                 0.9628
 IR Inten    --     26.8531                27.9630                 9.0109

                     25                     26                     27
                      A                      A                      A
 Frequencies --    638.7239               663.0502               719.5981
 Red. masses --      3.9070                 1.3448                 1.6174
 Frc consts  --      0.9391                 0.3483                 0.4935
 IR Inten    --      0.6576                34.6462                76.7096

                     28                     29                     30
                      A                      A                      A
 Frequencies --    738.1442               789.1973               807.9917
 Red. masses --      5.1443                 2.2638                 7.7350
 Frc consts  --      1.6514                 0.8307                 2.9753
 IR Inten    --     24.7774                54.9477                71.4250

                     31                     32                     33
                      A                      A                      A
 Frequencies --    833.5571               858.2853               919.5408
 Red. masses --      2.9059                 1.2588                 1.5553
 Frc consts  --      1.1896                 0.5464                 0.7748
 IR Inten    --      6.1338                 0.4608                15.3143

                     34                     35                     36
                      A                      A                      A
 Frequencies --    960.1950               995.7386              1006.3585
 Red. masses --      1.7313                 1.3518                 1.3437
 Frc consts  --      0.9405                 0.7897                 0.8018
 IR Inten    --     14.0735                 0.5832                 4.2645

                     37                     38                     39
                      A                      A                      A
 Frequencies --   1010.3216              1013.8150              1039.5148
 Red. masses --      1.6035                 3.4968                 1.3092
 Frc consts  --      0.9644                 2.1176                 0.8335
 IR Inten    --     10.9111                28.8382                24.1775

                     40                     41                     42
                      A                      A                      A
 Frequencies --   1058.0964              1071.9012              1082.8176
 Red. masses --      2.1906                 1.9734                 2.6451
 Frc consts  --      1.4450                 1.3359                 1.8273
 IR Inten    --    143.7026               127.8657               156.5444

                     43                     44                     45
                      A                      A                      A
 Frequencies --   1087.9719              1120.9636              1135.9311
 Red. masses --      1.3967                 1.6299                 1.2319
 Frc consts  --      0.9741                 1.2067                 0.9365
 IR Inten    --     28.5050                11.2683                 0.4348

                     46                     47                     48
                      A                      A                      A
 Frequencies --   1162.0221              1170.8453              1181.5305
 Red. masses --      1.8207                 1.3786                 1.1191
 Frc consts  --      1.4485                 1.1135                 0.9205
 IR Inten    --    172.7382                40.6224                 8.6921

                     49                     50                     51
                      A                      A                      A
 Frequencies --   1200.9495              1222.9743              1228.3186
 Red. masses --      1.4800                 1.1498                 1.2433
 Frc consts  --      1.2576                 1.0133                 1.1052
 IR Inten    --     42.1939                 9.9756               182.6201

                     52                     53                     54
                      A                      A                      A
 Frequencies --   1253.4305              1292.5631              1311.1718
 Red. masses --      1.2727                 3.2809                 4.9096
 Frc consts  --      1.1780                 3.2296                 4.9730
 IR Inten    --    179.8466                86.1063                56.6330

                     55                     56                     57
                      A                      A                      A
 Frequencies --   1342.1652              1345.7488              1375.3571
 Red. masses --      1.3371                 3.6071                 1.5821
 Frc consts  --      1.4191                 3.8489                 1.7633
 IR Inten    --      7.9163                78.7549                36.2321

                     58                     59                     60
                      A                      A                      A
 Frequencies --   1383.7447              1413.5680              1444.8272
 Red. masses --      2.3706                 2.5565                 1.1601
 Frc consts  --      2.6744                 3.0098                 1.4268
 IR Inten    --    207.5850               644.8679                 7.5230

                     61                     62                     63
                      A                      A                      A
 Frequencies --   1467.1886              1471.9364              1482.6832
 Red. masses --      1.1747                 1.2153                 1.4447
 Frc consts  --      1.4898                 1.5514                 1.8712
 IR Inten    --      4.6124                76.6980                18.4592

                     64                     65                     66
                      A                      A                      A
 Frequencies --   1487.4127              1491.7416              1495.5257
 Red. masses --      1.3494                 1.0444                 1.0458
 Frc consts  --      1.7590                 1.3694                 1.3781
 IR Inten    --     16.0626                15.5268                22.6548

                     67                     68                     69
                      A                      A                      A
 Frequencies --   1504.6192              1509.0399              1522.3263
 Red. masses --      1.0724                 1.0339                 1.6931
 Frc consts  --      1.4305                 1.3871                 2.3117
 IR Inten    --     11.5188                11.4077                68.0800

                     70                     71                     72
                      A                      A                      A
 Frequencies --   1532.5701              1542.3239              1624.9229
 Red. masses --      1.2772                 2.1310                 7.1761
 Frc consts  --      1.7675                 2.9867                11.1636
 IR Inten    --    249.3397               148.1884               491.5966

                     73                     74                     75
                      A                      A                      A
 Frequencies --   1631.8322              1647.8680              1666.2266
 Red. masses --      5.8027                 1.0933                 5.7395
 Frc consts  --      9.1040                 1.7491                 9.3885
 IR Inten    --    197.2744                46.9367               250.8525

                     76                     77                     78
                      A                      A                      A
 Frequencies --   3017.8096              3024.9072              3071.1973
 Red. masses --      1.0474                 1.0406                 1.0329
 Frc consts  --      5.6204                 5.6100                 5.7403
 IR Inten    --     93.4802               144.2494                58.2941

                     79                     80                     81
                      A                      A                      A
 Frequencies --   3073.0072              3095.6421              3133.5702
 Red. masses --      1.1030                 1.0911                 1.0637
 Frc consts  --      6.1369                 6.1605                 6.1541
 IR Inten    --     67.0803                42.0760                50.4077

                     82                     83                     84
                      A                      A                      A
 Frequencies --   3151.6625              3163.8612              3167.7364
 Red. masses --      1.1056                 1.1059                 1.0992
 Frc consts  --      6.4704                 6.5221                 6.4989
 IR Inten    --     15.1909                18.1262                13.9303

                     85                     86                     87
                      A                      A                      A
 Frequencies --   3168.6416              3181.8897              3187.2553
 Red. masses --      1.0971                 1.0851                 1.0883
 Frc consts  --      6.4897                 6.4730                 6.5138
 IR Inten    --     15.5696                19.6629                10.0925

                     88                     89                     90
                      A                      A                      A
 Frequencies --   3202.9358              3212.6811              3218.9470
 Red. masses --      1.0911                 1.0942                 1.0960
 Frc consts  --      6.5947                 6.6543                 6.6910
 IR Inten    --     58.4584                38.9155                 9.3217

                     91                     92                     93
                      A                      A                      A
 Frequencies --   3221.6389              3529.6641              3608.6849
 Red. masses --      1.1096                 1.0510                 1.0965
 Frc consts  --      6.7855                 7.7149                 8.4132
 IR Inten    --     10.7883                21.4108                47.7570

 - Thermochemistry -
 -------------------
 Temperature   298.150 Kelvin.  Pressure   1.00000 Atm.
 Atom     1 has atomic number  6 and mass  12.00000

 Molecular mass:   206.14191 amu.
 Principal axes and moments of inertia in atomic units:
                           1         2         3
     Eigenvalues --  2477.447244213.659185945.56270
           X            0.99998   0.00201  -0.00667
           Y           -0.00207   0.99997  -0.00770
           Z            0.00666   0.00771   0.99995
 This molecule is an asymmetric top.
 Rotational symmetry number  1.
 Warning -- assumption of classical behavior for rotation
           may cause significant error
 Rotational temperatures (Kelvin)      0.03496     0.02056     0.01457
 Rotational constants (GHZ):           0.72847     0.42831     0.30354
    1 imaginary frequencies ignored.
 Zero-point vibrational energy     751807.6 (Joules/Mol)
                                  179.68633 (Kcal/Mol)
 Warning -- explicit consideration of  22 degrees of freedom as
           vibrations may cause significant error
 Vibrational temperatures:     56.85    73.73    78.11   104.91   131.88
          (Kelvin)            148.20   184.57   224.16   252.43   273.82
                              305.82   325.59   371.78   417.29   470.94
                              536.78   550.07   612.98   638.88   711.62
                              824.25   862.11   909.74   918.98   953.98
                             1035.34  1062.02  1135.48  1162.52  1199.30
                             1234.88  1323.01  1381.51  1432.65  1447.93
                             1453.63  1458.65  1495.63  1522.36  1542.23
                             1557.93  1565.35  1612.82  1634.35  1671.89
                             1684.59  1699.96  1727.90  1759.59  1767.28
                             1803.41  1859.71  1886.48  1931.08  1936.23
                             1978.83  1990.90  2033.81  2078.78  2110.96
                             2117.79  2133.25  2140.06  2146.28  2151.73
                             2164.81  2171.17  2190.29  2205.03  2219.06
                             2337.90  2347.84  2370.91  2397.33  4341.95
                             4352.17  4418.77  4421.37  4453.94  4508.51
                             4534.54  4552.09  4557.67  4558.97  4578.03
                             4585.75  4608.31  4622.33  4631.35  4635.22
                             5078.40  5192.09

 Zero-point correction=                           0.286348 (Hartree/Particle)
 Thermal correction to Energy=                    0.302173
 Thermal correction to Enthalpy=                  0.303117
 Thermal correction to Gibbs Free Energy=         0.242190
 Sum of electronic and zero-point Energies=           -652.547847
 Sum of electronic and thermal Energies=              -652.532022
 Sum of electronic and thermal Enthalpies=            -652.531078
 Sum of electronic and thermal Free Energies=         -652.592005

                     E (Thermal)             CV                S
                      KCal/Mol        Cal/Mol-Kelvin    Cal/Mol-Kelvin
 Total                  189.616             57.872            128.231
 Electronic               0.000              0.000              0.000
 Translational            0.889              2.981             41.874
 Rotational               0.889              2.981             32.495
 Vibrational            187.839             51.910             53.861
 Vibration     1          0.594              1.981              5.283
 Vibration     2          0.596              1.977              4.769
 Vibration     3          0.596              1.976              4.655
 Vibration     4          0.599              1.967              4.073
 Vibration     5          0.602              1.955              3.624
 Vibration     6          0.605              1.947              3.397
 Vibration     7          0.611              1.925              2.972
 Vibration     8          0.620              1.896              2.600
 Vibration     9          0.627              1.873              2.376
 Vibration    10          0.634              1.853              2.225
 Vibration    11          0.644              1.822              2.022
 Vibration    12          0.650              1.801              1.908
 Vibration    13          0.667              1.749              1.673
 Vibration    14          0.686              1.692              1.474
 Vibration    15          0.711              1.621              1.273
 Vibration    16          0.744              1.527              1.067
 Vibration    17          0.752              1.508              1.030
 Vibration    18          0.788              1.414              0.872
 Vibration    19          0.804              1.374              0.814
 Vibration    20          0.850              1.262              0.672
 Vibration    21          0.929              1.090              0.499
 Vibration    22          0.957              1.034              0.451

 Optimization completed.
    -- Stationary point found.
 Normal termination of Gaussian 16 at Thu Mar 25 14:35:51 2021.
