 Gaussian 16, Revision A.03,
 Gaussian 16:  ES64L-G16RevA.03 25-Dec-2016

 ----------------------------------------------------------------------
 # wB97XD def2tzvp, opt=(ts, noeigen, calcfc, maxcycles=70, maxstep=5),
  freq=noraman, scrf=(iefpcm, solvent=water)
 ----------------------------------------------------------------------

 ------------------------
 2_iteration/TS-201-2.out
 ------------------------
 Symbolic Z-matrix:
 Charge =  0 Multiplicity = 1

 SCF Done:  E(RwB97XD) =  -749.893587740     A.U. after   15 cycles
 SCF Done:  E(RwB97XD) =  -749.893587715     A.U. after    7 cycles
 Optimization completed.
    -- Stationary point found.
 Normal termination of Gaussian 16 at Thu Feb 11 05:50:32 2021.

 ---------------------------------------------------------------------
 #N Geom=AllCheck Guess=TCheck SCRF=Check GenChk RwB97XD/def2TZVP Freq
 ---------------------------------------------------------------------

 Structure from the checkpoint file:  "/beegfs/scratch/user/q/tla25/Gau-58815.chk"
 ------------------------
 2_iteration/TS-201-2.out
 ------------------------
 Charge =  0 Multiplicity = 1

                         Standard orientation:
 ---------------------------------------------------------------------
 Center     Atomic      Atomic             Coordinates (Angstroms)
 Number     Number       Type             X           Y           Z
 ---------------------------------------------------------------------
      1          6           0        0.600798   -0.638425   -0.127408
      2          6           0        0.225471   -1.930260   -0.604242
      3          8           0        0.956165   -2.860471   -0.955841
      4          6           0       -0.409284    0.307283    0.132800
      5          6           0       -1.136916    2.873949   -1.014813
      6          1           0       -1.144590    3.579984   -1.845969
      7          1           0       -2.162846    2.661039   -0.717581
      8          1           0       -0.617325    3.327767   -0.171358
      9          7           0       -0.476480    1.620264   -1.364178
     10          1           0       -0.940153    1.153163   -2.133224
     11          1           0        0.489174    1.761966   -1.635263
     12          1           0       -0.126134    1.098932    0.818603
     13          6           0       -1.862771    0.007271    0.259037
     14          6           0       -2.655559   -0.462963   -0.786474
     15          6           0       -4.005707   -0.707996   -0.595344
     16          6           0       -4.587132   -0.488955    0.645512
     17          6           0       -3.811110   -0.011118    1.690576
     18          6           0       -2.462992    0.245562    1.493453
     19          1           0       -2.222562   -0.639717   -1.763104
     20          1           0       -4.605334   -1.069995   -1.420566
     21          1           0       -5.642060   -0.680958    0.793433
     22          1           0       -4.256395    0.173368    2.659797
     23          1           0       -1.865415    0.632601    2.310263
     24          6           0        2.008614   -0.243751    0.097009
     25          6           0        3.043431   -1.190540    0.171912
     26          6           0        4.355717   -0.814213    0.408509
     27          6           0        4.696173    0.520289    0.578133
     28          6           0        3.692793    1.473672    0.510283
     29          6           0        2.379081    1.099093    0.273305
     30          1           0        2.804874   -2.233910    0.039408
     31          1           0        5.121901   -1.578589    0.463485
     32          1           0        5.723010    0.811054    0.759910
     33          1           0        3.928667    2.523030    0.639547
     34          1           0        1.640334    1.888832    0.238602
     35          1           0       -0.862744   -2.100047   -0.633490
 ---------------------------------------------------------------------

 SCF Done:  E(RwB97XD) =  -749.893587715     A.U. after    1 cycles

 The electronic state is 1-A.
 Alpha  occ. eigenvalues --  -19.20904 -14.47870 -10.34869 -10.34350 -10.31817
 Alpha  occ. eigenvalues --  -10.31154 -10.30019 -10.29866 -10.29730 -10.29568
 Alpha  occ. eigenvalues --  -10.29518 -10.29452 -10.28523 -10.28363 -10.28317
 Alpha  occ. eigenvalues --  -10.28039 -10.27516 -10.27214  -1.11065  -1.03503
 Alpha  occ. eigenvalues --   -0.97773  -0.96125  -0.91417  -0.86742  -0.85851
 Alpha  occ. eigenvalues --   -0.84367  -0.82219  -0.78818  -0.75850  -0.71591
 Alpha  occ. eigenvalues --   -0.70621  -0.69687  -0.68178  -0.64524  -0.62771
 Alpha  occ. eigenvalues --   -0.61002  -0.59007  -0.57570  -0.56413  -0.56159
 Alpha  occ. eigenvalues --   -0.54734  -0.54260  -0.53011  -0.52205  -0.51593
 Alpha  occ. eigenvalues --   -0.51371  -0.49859  -0.48863  -0.48338  -0.47931
 Alpha  occ. eigenvalues --   -0.47676  -0.46815  -0.45329  -0.44447  -0.43529
 Alpha  occ. eigenvalues --   -0.42668  -0.42291  -0.41553  -0.35182  -0.34632
 Alpha  occ. eigenvalues --   -0.34313  -0.33200  -0.31226  -0.26519
 Alpha virt. eigenvalues --    0.01723   0.04599   0.05007   0.05803   0.06844
 Alpha virt. eigenvalues --    0.10292   0.12548   0.13448   0.14074   0.14564
 Alpha virt. eigenvalues --    0.15517   0.16136   0.16556   0.16945   0.17467

 Mulliken charges:
               1
     1  C   -0.073434
     2  C    0.115592
     3  O   -0.504503
     4  C   -0.038069
     5  C   -0.273220
     6  H    0.154230
     7  H    0.156793
     8  H    0.149641
     9  N   -0.359265
    10  H    0.272903
    11  H    0.281517
    12  H    0.191923
    13  C    0.198310
    14  C   -0.313935
    15  C   -0.146002
    16  C   -0.134492
    17  C   -0.154725
    18  C   -0.226145
    19  H    0.186168
    20  H    0.146741
    21  H    0.147901
    22  H    0.145818
    23  H    0.145145
    24  C    0.168730
    25  C   -0.243519
    26  C   -0.136169
    27  C   -0.165270
    28  C   -0.203668
    29  C   -0.283886
    30  H    0.143555
    31  H    0.135071
    32  H    0.137648
    33  H    0.135645
    34  H    0.144522
    35  H    0.098449
 Sum of Mulliken charges =  -0.00000

 Dipole moment (field-independent basis, Debye):
    X=             -6.2471    Y=              9.8564    Z=             -1.1226  Tot=             11.7233
 Quadrupole moment (field-independent basis, Debye-Ang):
   XX=            -98.1784   YY=           -113.3717   ZZ=           -100.7894
   XY=              6.7312   XZ=              3.9443   YZ=             -8.4287

  Exact polarizability: 378.007  -6.072 286.352   9.307  16.767 217.711
 Approx polarizability: 271.114  -2.922 234.822   5.703  16.127 191.232

 ******    1 imaginary frequencies (negative Signs) ******

                      1                      2                      3
                      A                      A                      A
 Frequencies --   -333.2916                28.8000                49.3393
 Red. masses --      5.7207                 4.7263                 2.9238
 Frc consts  --      0.3744                 0.0023                 0.0042
 IR Inten    --    901.0781                 0.3797                 1.4706

                      4                      5                      6
                      A                      A                      A
 Frequencies --     57.3964                72.2996                84.0507
 Red. masses --      4.4030                 3.3645                 4.2207
 Frc consts  --      0.0085                 0.0104                 0.0176
 IR Inten    --      6.2950                 2.1247                 0.1744

                      7                      8                      9
                      A                      A                      A
 Frequencies --     91.1846               150.0693               165.7633
 Red. masses --      4.9380                 1.3222                 4.3538
 Frc consts  --      0.0242                 0.0175                 0.0705
 IR Inten    --      4.5348                 3.0710                 9.5799

                     10                     11                     12
                      A                      A                      A
 Frequencies --    182.0684               207.4835               245.7077
 Red. masses --      2.4709                 3.0900                 3.3747
 Frc consts  --      0.0483                 0.0784                 0.1200
 IR Inten    --      1.3718                 7.6434                16.5671

                     13                     14                     15
                      A                      A                      A
 Frequencies --    253.4749               266.1038               298.2592
 Red. masses --      6.9645                 3.7079                 3.2645
 Frc consts  --      0.2636                 0.1547                 0.1711
 IR Inten    --     20.3235                 0.7812                13.8818

                     16                     17                     18
                      A                      A                      A
 Frequencies --    344.4607               377.0624               425.6105
 Red. masses --      4.8709                 3.8724                 2.9819
 Frc consts  --      0.3405                 0.3244                 0.3183
 IR Inten    --      8.5620                26.5126                 1.9568

                     19                     20                     21
                      A                      A                      A
 Frequencies --    427.1438               460.2775               519.3490
 Red. masses --      2.9688                 4.5116                 5.5339
 Frc consts  --      0.3191                 0.5631                 0.8794
 IR Inten    --      0.6379                76.1065                24.5030

                     22                     23                     24
                      A                      A                      A
 Frequencies --    538.4662               589.8295               615.0277
 Red. masses --      2.5388                 2.5347                 2.3399
 Frc consts  --      0.4337                 0.5196                 0.5215
 IR Inten    --     88.4178                40.6082                63.3299

                     25                     26                     27
                      A                      A                      A
 Frequencies --    636.0941               638.2232               661.0860
 Red. masses --      6.3310                 6.2831                 2.8824
 Frc consts  --      1.5093                 1.5079                 0.7422
 IR Inten    --      4.6811                 4.8470               104.1551

                     28                     29                     30
                      A                      A                      A
 Frequencies --    726.3689               731.4828               732.8549
 Red. masses --      1.6305                 1.6430                 4.6566
 Frc consts  --      0.5068                 0.5180                 1.4735
 IR Inten    --     84.9960               100.1811                 8.6393

                     31                     32                     33
                      A                      A                      A
 Frequencies --    766.0494               793.7343               815.0684
 Red. masses --      3.0974                 2.1955                 2.7595
 Frc consts  --      1.0709                 0.8149                 1.0801
 IR Inten    --      5.7752                73.0100                19.4275

                     34                     35                     36
                      A                      A                      A
 Frequencies --    865.6318               874.6874               882.8259
 Red. masses --      3.1225                 1.3786                 1.2537
 Frc consts  --      1.3785                 0.6214                 0.5757
 IR Inten    --      7.4293                 1.0185                 0.4556

                     37                     38                     39
                      A                      A                      A
 Frequencies --    940.1733               965.9479               998.3193
 Red. masses --      1.4557                 1.4094                 1.0746
 Frc consts  --      0.7581                 0.7748                 0.6310
 IR Inten    --     17.6944                10.2813                 9.5659

                     40                     41                     42
                      A                      A                      A
 Frequencies --   1006.0087              1013.9826              1017.3510
 Red. masses --      1.3050                 1.2908                 1.3835
 Frc consts  --      0.7782                 0.7820                 0.8437
 IR Inten    --     23.0193                62.6042                17.0744

                     43                     44                     45
                      A                      A                      A
 Frequencies --   1019.0895              1019.8652              1026.8945
 Red. masses --      4.6900                 1.2836                 4.7791
 Frc consts  --      2.8698                 0.7866                 2.9692
 IR Inten    --      6.2894                 7.6672                 4.5134

                     46                     47                     48
                      A                      A                      A
 Frequencies --   1032.4160              1038.0335              1062.3913
 Red. masses --      1.4988                 1.4410                 2.7516
 Frc consts  --      0.9413                 0.9148                 1.8298
 IR Inten    --      4.8213                 3.2341                 2.4817

                     49                     50                     51
                      A                      A                      A
 Frequencies --   1066.7203              1075.6566              1111.2115
 Red. masses --      2.3327                 4.2183                 2.4120
 Frc consts  --      1.5639                 2.8757                 1.7547
 IR Inten    --     52.8220               151.1292                13.5222

                     52                     53                     54
                      A                      A                      A
 Frequencies --   1118.1911              1121.5154              1155.1705
 Red. masses --      1.6197                 1.6101                 1.1580
 Frc consts  --      1.1932                 1.1932                 0.9104
 IR Inten    --      7.7358                11.5168               216.5580

                     55                     56                     57
                      A                      A                      A
 Frequencies --   1184.2907              1186.8211              1211.9929
 Red. masses --      1.1168                 1.1373                 1.3345
 Frc consts  --      0.9229                 0.9438                 1.1550
 IR Inten    --     10.3583                 4.5470                12.9609

                     58                     59                     60
                      A                      A                      A
 Frequencies --   1219.7472              1224.1704              1231.9514
 Red. masses --      1.3369                 1.2530                 1.8176
 Frc consts  --      1.1719                 1.1063                 1.6253
 IR Inten    --     27.6761                19.9715                55.2889

                     61                     62                     63
                      A                      A                      A
 Frequencies --   1276.0674              1311.9061              1337.1339
 Red. masses --      2.1240                 4.3990                 2.8492
 Frc consts  --      2.0378                 4.4607                 3.0014
 IR Inten    --     61.4421                83.1405                32.6119

                     64                     65                     66
                      A                      A                      A
 Frequencies --   1340.6766              1354.8189              1370.9550
 Red. masses --      1.5551                 2.2625                 1.3743
 Frc consts  --      1.6469                 2.4468                 1.5218
 IR Inten    --     16.0029               245.9138                15.5296

                     67                     68                     69
                      A                      A                      A
 Frequencies --   1389.5123              1460.6565              1466.5895
 Red. masses --      1.6971                 1.8476                 1.1889
 Frc consts  --      1.9305                 2.3225                 1.5067
 IR Inten    --    183.9590               127.2388                 6.6366

                     70                     71                     72
                      A                      A                      A
 Frequencies --   1480.1906              1491.6892              1497.3481
 Red. masses --      1.9757                 1.0537                 2.0950
 Frc consts  --      2.5503                 1.3814                 2.7675
 IR Inten    --     31.8359                18.3668                21.2766

                     73                     74                     75
                      A                      A                      A
 Frequencies --   1508.4036              1517.4307              1545.0198
 Red. masses --      1.0412                 2.3809                 2.2244
 Frc consts  --      1.3958                 3.2300                 3.1284
 IR Inten    --     14.5504                53.7010               172.1026

                     76                     77                     78
                      A                      A                      A
 Frequencies --   1551.3449              1636.8953              1649.5682
 Red. masses --      2.5458                 4.7532                 1.1294
 Frc consts  --      3.6098                 7.5037                 1.8107
 IR Inten    --     16.7166                 3.3216                93.4619

                     79                     80                     81
                      A                      A                      A
 Frequencies --   1653.4992              1656.7510              1675.8552
 Red. masses --      5.6487                 5.4201                 6.1422
 Frc consts  --      9.0992                 8.7654                10.1636
 IR Inten    --     36.6348               718.1875               431.2958

                     82                     83                     84
                      A                      A                      A
 Frequencies --   1677.7545              2989.4740              3063.0929
 Red. masses --      5.7906                 1.0808                 1.0334
 Frc consts  --      9.6035                 5.6908                 5.7127
 IR Inten    --     25.9436               122.0537                57.8682

                     85                     86                     87
                      A                      A                      A
 Frequencies --   3139.7509              3156.6923              3161.4912
 Red. masses --      1.1051                 1.1049                 1.0888
 Frc consts  --      6.4188                 6.4869                 6.4115
 IR Inten    --     19.5802                17.3864                13.0994

                     88                     89                     90
                      A                      A                      A
 Frequencies --   3188.3890              3193.9426              3195.4245
 Red. masses --      1.0859                 1.0875                 1.0896
 Frc consts  --      6.5040                 6.5363                 6.5550
 IR Inten    --      9.4532                 6.1539                16.2486

                     91                     92                     93
                      A                      A                      A
 Frequencies --   3197.7929              3206.4411              3211.5289
 Red. masses --      1.0879                 1.0911                 1.0924
 Frc consts  --      6.5548                 6.6094                 6.6380
 IR Inten    --      3.5873                 9.9599                50.1489

                     94                     95                     96
                      A                      A                      A
 Frequencies --   3215.1680              3220.2655              3225.3439
 Red. masses --      1.0950                 1.0958                 1.0989
 Frc consts  --      6.6692                 6.6952                 6.7357
 IR Inten    --     31.4736                21.3487                16.1688

                     97                     98                     99
                      A                      A                      A
 Frequencies --   3256.2811              3536.0291              3615.4423
 Red. masses --      1.0918                 1.0511                 1.0954
 Frc consts  --      6.8207                 7.7436                 8.4359
 IR Inten    --      7.0784                14.1919                43.5351

 - Thermochemistry -
 -------------------
 Temperature   298.150 Kelvin.  Pressure   1.00000 Atm.
 Atom     1 has atomic number  6 and mass  12.00000

 Molecular mass:   239.13101 amu.
 Principal axes and moments of inertia in atomic units:
                           1         2         3
     Eigenvalues --  2283.378187480.721088488.38500
           X            0.99999   0.00069   0.00315
           Y           -0.00062   0.99975  -0.02234
           Z           -0.00316   0.02234   0.99975
 This molecule is an asymmetric top.
 Rotational symmetry number  1.
 Warning -- assumption of classical behavior for rotation
           may cause significant error
 Rotational temperatures (Kelvin)      0.03793     0.01158     0.01020
 Rotational constants (GHZ):           0.79038     0.24125     0.21261
    1 imaginary frequencies ignored.
 Zero-point vibrational energy     773050.0 (Joules/Mol)
                                  184.76338 (Kcal/Mol)
 Warning -- explicit consideration of  23 degrees of freedom as
           vibrations may cause significant error
 Vibrational temperatures:     41.44    70.99    82.58   104.02   120.93
          (Kelvin)            131.19   215.92   238.50   261.96   298.52
                              353.52   364.69   382.86   429.13   495.60
                              542.51   612.36   614.56   662.24   747.23
                              774.73   848.63   884.89   915.20   918.26
                              951.16  1045.08  1052.44  1054.41  1102.17
                             1142.01  1172.70  1245.45  1258.48  1270.19
                             1352.70  1389.78  1436.36  1447.42  1458.89
                             1463.74  1466.24  1467.36  1477.47  1485.42
                             1493.50  1528.54  1534.77  1547.63  1598.79
                             1608.83  1613.61  1662.03  1703.93  1707.57
                             1743.79  1754.94  1761.31  1772.50  1835.98
                             1887.54  1923.84  1928.93  1949.28  1972.50
                             1999.20  2101.56  2110.10  2129.66  2146.21
                             2154.35  2170.26  2183.24  2222.94  2232.04
                             2355.13  2373.36  2379.02  2383.70  2411.18
                             2413.91  4301.19  4407.11  4517.40  4541.78
                             4548.68  4587.38  4595.37  4597.50  4600.91
                             4613.35  4620.67  4625.91  4633.24  4640.55
                             4685.06  5087.56  5201.82

 Zero-point correction=                           0.294439 (Hartree/Particle)
 Thermal correction to Energy=                    0.310552
 Thermal correction to Enthalpy=                  0.311496
 Thermal correction to Gibbs Free Energy=         0.249546
 Sum of electronic and zero-point Energies=           -749.599149
 Sum of electronic and thermal Energies=              -749.583036
 Sum of electronic and thermal Enthalpies=            -749.582092
 Sum of electronic and thermal Free Energies=         -749.644041

                     E (Thermal)             CV                S
                      KCal/Mol        Cal/Mol-Kelvin    Cal/Mol-Kelvin
 Total                  194.874             61.700            130.385
 Electronic               0.000              0.000              0.000
 Translational            0.889              2.981             42.317
 Rotational               0.889              2.981             33.338
 Vibrational            193.097             55.738             54.729
 Vibration     1          0.593              1.984              5.910
 Vibration     2          0.595              1.978              4.844
 Vibration     3          0.596              1.975              4.545
 Vibration     4          0.598              1.967              4.090
 Vibration     5          0.601              1.960              3.794
 Vibration     6          0.602              1.955              3.634
 Vibration     7          0.618              1.903              2.671
 Vibration     8          0.624              1.885              2.483
 Vibration     9          0.630              1.864              2.307
 Vibration    10          0.641              1.829              2.066
 Vibration    11          0.660              1.770              1.761
 Vibration    12          0.665              1.757              1.706
 Vibration    13          0.672              1.735              1.621
 Vibration    14          0.691              1.677              1.427
 Vibration    15          0.723              1.587              1.191
 Vibration    16          0.748              1.519              1.051
 Vibration    17          0.787              1.415              0.873
 Vibration    18          0.789              1.411              0.868
 Vibration    19          0.818              1.338              0.765
 Vibration    20          0.874              1.207              0.611
 Vibration    21          0.894              1.165              0.569
 Vibration    22          0.947              1.053              0.467
 Vibration    23          0.975              1.000              0.425

 Optimization completed.
    -- Stationary point found.
 Normal termination of Gaussian 16 at Thu Feb 11 07:31:00 2021.
