 Gaussian 16, Revision A.03,
 Gaussian 16:  ES64L-G16RevA.03 25-Dec-2016

 ----------------------------------------------------------------------
 # wB97XD def2tzvp, opt=(ts, noeigen, calcfc, maxcycles=70, maxstep=5),
  freq=noraman, scrf=(iefpcm, solvent=water)
 ----------------------------------------------------------------------

 ------------------------
 2_iteration/TS-230-2.out
 ------------------------
 Symbolic Z-matrix:
 Charge =  0 Multiplicity = 1

 SCF Done:  E(RwB97XD) =  -3226.44820066     A.U. after   15 cycles
 Optimization completed.
    -- Stationary point found.
 Normal termination of Gaussian 16 at Thu Feb 11 05:12:43 2021.

 ---------------------------------------------------------------------
 #N Geom=AllCheck Guess=TCheck SCRF=Check GenChk RwB97XD/def2TZVP Freq
 ---------------------------------------------------------------------

 Structure from the checkpoint file:  "/beegfs/scratch/user/q/tla25/Gau-47024.chk"
 ------------------------
 2_iteration/TS-230-2.out
 ------------------------
 Charge =  0 Multiplicity = 1

                         Standard orientation:
 ---------------------------------------------------------------------
 Center     Atomic      Atomic             Coordinates (Angstroms)
 Number     Number       Type             X           Y           Z
 ---------------------------------------------------------------------
      1          6           0        0.619550   -0.195688   -0.255040
      2          6           0        0.937539    0.886142    0.662570
      3          8           0        0.309739    0.999252    1.734940
      4          6           0       -0.600300   -0.875139   -0.186150
      5          6           0        0.222191   -2.609118    1.901730
      6          1           0        0.189711   -2.879808    2.958170
      7          1           0        0.082852   -3.504338    1.297430
      8          1           0        1.198001   -2.181358    1.678100
      9          7           0       -0.801499   -1.628089    1.567060
     10          1           0       -1.737099   -1.970059    1.746580
     11          1           0       -0.649310   -0.748579    2.061590
     12          1           0       -0.615449   -1.813839   -0.730230
     13          6           0       -1.923410   -0.172380   -0.279970
     14          6           0       -2.034791    1.207040   -0.423340
     15          6           0       -3.278162    1.807740   -0.547700
     16          6           0       -4.432681    1.038419   -0.546150
     17          6           0       -4.333840   -0.340481   -0.429200
     18          6           0       -3.089690   -0.936540   -0.300960
     19          1           0       -1.143702    1.818261   -0.454380
     20          1           0       -3.343282    2.883200   -0.655130
     21          1           0       -5.402241    1.509118   -0.648070
     22          1           0       -5.225310   -0.954532   -0.444520
     23          1           0       -3.024089   -2.016460   -0.226180
     24         35           0        2.098740   -1.194467   -0.996490
     25          7           0        1.930688    1.766333    0.365450
     26          6           0        2.355348    2.070083   -0.984630
     27          6           0        2.380978    2.691023    1.382590
     28          1           0        1.712819    1.567443   -1.702300
     29          1           0        2.277378    3.148233   -1.149000
     30          1           0        3.390678    1.767944   -1.161100
     31          1           0        2.260678    2.246443    2.366810
     32          1           0        3.435398    2.915994    1.215430
     33          1           0        1.818427    3.630353    1.354360
 ---------------------------------------------------------------------

 SCF Done:  E(RwB97XD) =  -3226.44820066     A.U. after    1 cycles

 The electronic state is 1-A.
 Alpha  occ. eigenvalues -- -483.11635 -62.66456 -56.45558 -56.45231 -56.45219
 Alpha  occ. eigenvalues --  -19.20561 -14.47050 -14.45569 -10.37967 -10.34293
 Alpha  occ. eigenvalues --  -10.31182 -10.30607 -10.30576 -10.30359 -10.29555
 Alpha  occ. eigenvalues --  -10.29374 -10.29221 -10.29174 -10.29146 -10.29088
 Alpha  occ. eigenvalues --   -8.80558  -6.62657  -6.61611  -6.61574  -2.73051
 Alpha  occ. eigenvalues --   -2.72755  -2.72725  -2.71879  -2.71878  -1.13133
 Alpha  occ. eigenvalues --   -1.03221  -1.02592  -0.97172  -0.91917  -0.87372
 Alpha  occ. eigenvalues --   -0.85388  -0.81850  -0.81112  -0.79533  -0.77927
 Alpha  occ. eigenvalues --   -0.72532  -0.70376  -0.68040  -0.63563  -0.61804
 Alpha  occ. eigenvalues --   -0.61244  -0.57260  -0.56535  -0.56281  -0.56069
 Alpha  occ. eigenvalues --   -0.55004  -0.53674  -0.52917  -0.51449  -0.50701
 Alpha  occ. eigenvalues --   -0.49683  -0.48420  -0.47905  -0.47759  -0.47337
 Alpha  occ. eigenvalues --   -0.46849  -0.45939  -0.45404  -0.43201  -0.42990
 Alpha  occ. eigenvalues --   -0.42248  -0.38459  -0.36939  -0.34650  -0.33897
 Alpha  occ. eigenvalues --   -0.33010  -0.31750  -0.26022
 Alpha virt. eigenvalues --    0.02294   0.05137   0.06230   0.10310   0.10660
 Alpha virt. eigenvalues --    0.11897   0.13667   0.14616   0.15421   0.15617
 Alpha virt. eigenvalues --    0.16106   0.16860   0.17491   0.17619   0.18134

 Mulliken charges:
               1
     1  C   -0.281947
     2  C    0.269390
     3  O   -0.571236
     4  C    0.098808
     5  C   -0.286612
     6  H    0.148283
     7  H    0.147814
     8  H    0.150782
     9  N   -0.319649
    10  H    0.269601
    11  H    0.273607
    12  H    0.168828
    13  C    0.108060
    14  C   -0.190714
    15  C   -0.142570
    16  C   -0.149797
    17  C   -0.130347
    18  C   -0.305846
    19  H    0.168414
    20  H    0.142129
    21  H    0.145153
    22  H    0.144354
    23  H    0.161000
    24  Br  -0.181215
    25  N   -0.096954
    26  C   -0.297725
    27  C   -0.291341
    28  H    0.157095
    29  H    0.138074
    30  H    0.142213
    31  H    0.139673
    32  H    0.139197
    33  H    0.133478
 Sum of Mulliken charges =  -0.00000

 Dipole moment (field-independent basis, Debye):
    X=             -2.7653    Y=             -1.9859    Z=              1.3432  Tot=              3.6599
 Quadrupole moment (field-independent basis, Debye-Ang):
   XX=            -98.1671   YY=            -92.3346   ZZ=           -112.4972
   XY=             11.4014   XZ=              0.2689   YZ=            -11.2000

  Exact polarizability: 302.076  13.149 273.543 -13.880  -9.997 201.121
 Approx polarizability: 229.147   7.841 219.343 -11.678  -5.579 173.292

 ******    1 imaginary frequencies (negative Signs) ******

                      1                      2                      3
                      A                      A                      A
 Frequencies --   -396.1171                37.5343                44.0307
 Red. masses --      5.9477                 3.8659                 3.7878
 Frc consts  --      0.5499                 0.0032                 0.0043
 IR Inten    --    844.3687                 0.2316                 1.9668

                      4                      5                      6
                      A                      A                      A
 Frequencies --     63.3013                67.1851                91.8640
 Red. masses --      3.2580                 3.6388                 3.2276
 Frc consts  --      0.0077                 0.0097                 0.0160
 IR Inten    --      2.3306                 1.1960                 3.4560

                      7                      8                      9
                      A                      A                      A
 Frequencies --    103.8821               120.0057               141.9805
 Red. masses --      3.0271                 1.6529                 5.3297
 Frc consts  --      0.0192                 0.0140                 0.0633
 IR Inten    --      5.0947                 1.9213                15.8701

                     10                     11                     12
                      A                      A                      A
 Frequencies --    155.4563               158.7715               187.3063
 Red. masses --      2.1043                 1.7765                 2.4300
 Frc consts  --      0.0300                 0.0264                 0.0502
 IR Inten    --     14.4226                25.5080                 1.7303

                     13                     14                     15
                      A                      A                      A
 Frequencies --    204.7562               208.7991               225.3422
 Red. masses --      1.9267                 2.6686                 2.0598
 Frc consts  --      0.0476                 0.0685                 0.0616
 IR Inten    --      3.1183                 1.6016                19.0843

                     16                     17                     18
                      A                      A                      A
 Frequencies --    248.5997               265.5002               283.0219
 Red. masses --      2.5413                 3.6933                 3.7769
 Frc consts  --      0.0925                 0.1534                 0.1783
 IR Inten    --     16.2472                 3.0100                 5.8729

                     19                     20                     21
                      A                      A                      A
 Frequencies --    332.7114               392.8347               420.3820
 Red. masses --      4.0828                 3.2253                 2.8880
 Frc consts  --      0.2663                 0.2932                 0.3007
 IR Inten    --     48.3537                14.0043                 0.2122

                     22                     23                     24
                      A                      A                      A
 Frequencies --    435.9074               476.9630               538.6697
 Red. masses --      3.3095                 5.4664                 3.1187
 Frc consts  --      0.3705                 0.7327                 0.5332
 IR Inten    --     40.9381                15.7286               123.1430

                     25                     26                     27
                      A                      A                      A
 Frequencies --    592.4958               617.0714               638.7826
 Red. masses --      3.8684                 5.9519                 6.2430
 Frc consts  --      0.8001                 1.3353                 1.5009
 IR Inten    --     26.5135                 7.5213                 1.7298

                     28                     29                     30
                      A                      A                      A
 Frequencies --    674.8413               722.6171               741.6353
 Red. masses --      3.2018                 1.5835                 2.1153
 Frc consts  --      0.8591                 0.4872                 0.6855
 IR Inten    --     44.7279               101.8775                49.8391

                     31                     32                     33
                      A                      A                      A
 Frequencies --    785.0128               790.7131               842.3899
 Red. masses --      8.9789                 1.9431                 4.7908
 Frc consts  --      3.2601                 0.7158                 2.0030
 IR Inten    --     36.1553                23.5708                17.9202

                     34                     35                     36
                      A                      A                      A
 Frequencies --    877.2864               925.5745               964.7363
 Red. masses --      1.2491                 3.8522                 1.4740
 Frc consts  --      0.5664                 1.9444                 0.8083
 IR Inten    --      1.9301                30.0782                 5.2397

                     37                     38                     39
                      A                      A                      A
 Frequencies --   1003.6071              1016.4030              1021.6008
 Red. masses --      1.1681                 1.3360                 2.2937
 Frc consts  --      0.6932                 0.8132                 1.4105
 IR Inten    --     87.6903                17.7231                46.0346

                     40                     41                     42
                      A                      A                      A
 Frequencies --   1027.2160              1031.2878              1063.0137
 Red. masses --      5.0365                 1.3382                 1.9989
 Frc consts  --      3.1312                 0.8385                 1.3308
 IR Inten    --      2.0689                 2.2305                 9.7202

                     43                     44                     45
                      A                      A                      A
 Frequencies --   1068.3998              1084.6035              1097.9339
 Red. masses --      1.5651                 1.3691                 2.7942
 Frc consts  --      1.0526                 0.9489                 1.9845
 IR Inten    --     29.5375                16.6958                90.3384

                     46                     47                     48
                      A                      A                      A
 Frequencies --   1117.3851              1130.3021              1133.2198
 Red. masses --      1.5764                 1.1666                 1.1972
 Frc consts  --      1.1596                 0.8782                 0.9058
 IR Inten    --      5.3508               126.6585                47.9615

                     49                     50                     51
                      A                      A                      A
 Frequencies --   1167.7888              1179.5731              1184.4498
 Red. masses --      1.4917                 2.0614                 1.1453
 Frc consts  --      1.1986                 1.6899                 0.9467
 IR Inten    --      1.9535                86.7655                 1.8151

                     52                     53                     54
                      A                      A                      A
 Frequencies --   1210.4121              1216.7259              1224.0905
 Red. masses --      1.2112                 1.3070                 2.3887
 Frc consts  --      1.0455                 1.1401                 2.1088
 IR Inten    --     18.7213                48.4544                63.1721

                     55                     56                     57
                      A                      A                      A
 Frequencies --   1301.2150              1320.3477              1345.0891
 Red. masses --      2.8785                 4.2691                 2.9641
 Frc consts  --      2.8716                 4.3849                 3.1597
 IR Inten    --     89.0240                64.4094               141.3108

                     58                     59                     60
                      A                      A                      A
 Frequencies --   1356.0002              1364.9273              1423.5546
 Red. masses --      1.3526                 1.3920                 2.3302
 Frc consts  --      1.4654                 1.5280                 2.7822
 IR Inten    --     12.6634                38.7840               676.7019

                     61                     62                     63
                      A                      A                      A
 Frequencies --   1441.6408              1442.8296              1463.0359
 Red. masses --      1.3988                 1.5164                 1.3146
 Frc consts  --      1.7128                 1.8599                 1.6579
 IR Inten    --     18.3379                 7.5363                22.7637

                     64                     65                     66
                      A                      A                      A
 Frequencies --   1470.7360              1483.0985              1484.4544
 Red. masses --      1.2885                 1.0817                 1.0554
 Frc consts  --      1.6421                 1.4018                 1.3703
 IR Inten    --     68.7373                 8.2225                26.5772

                     67                     68                     69
                      A                      A                      A
 Frequencies --   1491.7824              1500.7806              1502.0315
 Red. masses --      1.0414                 1.0721                 1.9838
 Frc consts  --      1.3655                 1.4227                 2.6370
 IR Inten    --     16.0898                12.6455                90.9794

                     70                     71                     72
                      A                      A                      A
 Frequencies --   1506.4509              1531.5450              1546.2031
 Red. masses --      1.0763                 1.7027                 2.3506
 Frc consts  --      1.4391                 2.3532                 3.3110
 IR Inten    --      4.5491               192.4150                14.6061

                     73                     74                     75
                      A                      A                      A
 Frequencies --   1600.8162              1645.3690              1654.5132
 Red. masses --      3.4224                 1.2402                 5.6814
 Frc consts  --      5.1673                 1.9782                 9.1632
 IR Inten    --    722.3510                25.2626                 4.1634

                     76                     77                     78
                      A                      A                      A
 Frequencies --   1675.7626              3029.1095              3038.1309
 Red. masses --      5.8755                 1.0452                 1.0386
 Frc consts  --      9.7211                 5.6501                 5.6483
 IR Inten    --      2.4282                87.7372               118.8221

                     79                     80                     81
                      A                      A                      A
 Frequencies --   3063.3369              3093.0374              3103.8357
 Red. masses --      1.0348                 1.1025                 1.0951
 Frc consts  --      5.7215                 6.2143                 6.2160
 IR Inten    --     56.1526                68.2525                25.8654

                     82                     83                     84
                      A                      A                      A
 Frequencies --   3139.2154              3164.3119              3170.3888
 Red. masses --      1.1034                 1.1045                 1.0989
 Frc consts  --      6.4063                 6.5159                 6.5080
 IR Inten    --     21.6680                18.1210                10.9903

                     85                     86                     87
                      A                      A                      A
 Frequencies --   3170.9116              3173.6139              3184.8856
 Red. masses --      1.1001                 1.0893                 1.0885
 Frc consts  --      6.5171                 6.4639                 6.5052
 IR Inten    --     13.1048                 4.0576                10.7768

                     88                     89                     90
                      A                      A                      A
 Frequencies --   3198.0396              3208.0903              3219.9536
 Red. masses --      1.0874                 1.0922                 1.0966
 Frc consts  --      6.5523                 6.6231                 6.6986
 IR Inten    --      0.2607                23.5096                27.3658

                     91                     92                     93
                      A                      A                      A
 Frequencies --   3230.3832              3423.8769              3592.3769
 Red. masses --      1.0945                 1.0626                 1.0865
 Frc consts  --      6.7292                 7.3396                 8.2613
 IR Inten    --      9.6109               115.0038                80.0479

 - Thermochemistry -
 -------------------
 Temperature   298.150 Kelvin.  Pressure   1.00000 Atm.
 Atom     1 has atomic number  6 and mass  12.00000

 Molecular mass:   284.05242 amu.
 Principal axes and moments of inertia in atomic units:
                           1         2         3
     Eigenvalues --  3276.840326370.971457546.13911
           X            0.99791   0.06147   0.01978
           Y           -0.05972   0.99506  -0.07936
           Z           -0.02456   0.07801   0.99665
 This molecule is an asymmetric top.
 Rotational symmetry number  1.
 Warning -- assumption of classical behavior for rotation
           may cause significant error
 Rotational temperatures (Kelvin)      0.02643     0.01360     0.01148
 Rotational constants (GHZ):           0.55076     0.28328     0.23916
    1 imaginary frequencies ignored.
 Zero-point vibrational energy     724408.6 (Joules/Mol)
                                  173.13781 (Kcal/Mol)
 Warning -- explicit consideration of  25 degrees of freedom as
           vibrations may cause significant error
 Vibrational temperatures:     54.00    63.35    91.08    96.66   132.17
          (Kelvin)            149.46   172.66   204.28   223.67   228.44
                              269.49   294.60   300.42   324.22   357.68
                              382.00   407.21   478.70   565.20   604.84
                              627.17   686.24   775.03   852.47   887.83
                              919.07   970.95  1039.68  1067.05  1129.46
                             1137.66  1212.01  1262.22  1331.70  1388.04
                             1443.97  1462.38  1469.86  1477.93  1483.79
                             1529.44  1537.19  1560.50  1579.68  1607.67
                             1626.25  1630.45  1680.19  1697.14  1704.16
                             1741.51  1750.60  1761.19  1872.16  1899.69
                             1935.28  1950.98  1963.83  2048.18  2074.20
                             2075.91  2104.98  2116.06  2133.85  2135.80
                             2146.34  2159.29  2161.09  2167.45  2203.55
                             2224.64  2303.22  2367.32  2380.48  2411.05
                             4358.21  4371.19  4407.46  4450.19  4465.73
                             4516.63  4552.74  4561.48  4562.23  4566.12
                             4582.34  4601.27  4615.73  4632.80  4647.80
                             4926.20  5168.63

 Zero-point correction=                           0.275913 (Hartree/Particle)
 Thermal correction to Energy=                    0.293192
 Thermal correction to Enthalpy=                  0.294136
 Thermal correction to Gibbs Free Energy=         0.229345
 Sum of electronic and zero-point Energies=          -3226.172288
 Sum of electronic and thermal Energies=             -3226.155009
 Sum of electronic and thermal Enthalpies=           -3226.154065
 Sum of electronic and thermal Free Energies=        -3226.218856

                     E (Thermal)             CV                S
                      KCal/Mol        Cal/Mol-Kelvin    Cal/Mol-Kelvin
 Total                  183.981             61.923            136.364
 Electronic               0.000              0.000              0.000
 Translational            0.889              2.981             42.830
 Rotational               0.889              2.981             33.421
 Vibrational            182.203             55.962             60.113
 Vibration     1          0.594              1.982              5.385
 Vibration     2          0.595              1.980              5.069
 Vibration     3          0.597              1.972              4.352
 Vibration     4          0.598              1.970              4.234
 Vibration     5          0.602              1.955              3.620
 Vibration     6          0.605              1.946              3.380
 Vibration     7          0.609              1.933              3.100
 Vibration     8          0.615              1.911              2.777
 Vibration     9          0.620              1.897              2.604
 Vibration    10          0.621              1.893              2.564
 Vibration    11          0.632              1.857              2.254
 Vibration    12          0.640              1.833              2.090
 Vibration    13          0.642              1.827              2.054
 Vibration    14          0.650              1.802              1.916
 Vibration    15          0.662              1.765              1.740
 Vibration    16          0.671              1.736              1.625
 Vibration    17          0.682              1.705              1.515
 Vibration    18          0.715              1.610              1.247
 Vibration    19          0.760              1.485              0.989
 Vibration    20          0.783              1.426              0.891
 Vibration    21          0.796              1.392              0.840
 Vibration    22          0.834              1.301              0.718
 Vibration    23          0.894              1.165              0.568
 Vibration    24          0.950              1.048              0.463
 Vibration    25          0.977              0.996              0.421

 Optimization completed.
    -- Stationary point found.
 Normal termination of Gaussian 16 at Thu Feb 11 06:34:27 2021.
