 Gaussian 16, Revision A.03,
 Gaussian 16:  ES64L-G16RevA.03 25-Dec-2016

 ----------------------------------------------------------------------
 # wB97XD def2tzvp, opt=(ts, noeigen, calcfc, maxcycles=70, maxstep=1),
  freq=noraman, scrf=(iefpcm, solvent=water)
 ----------------------------------------------------------------------

 ------------------------
 0_iteration/TS-233-0.out
 ------------------------
 Symbolic Z-matrix:
 Charge =  0 Multiplicity = 1

 SCF Done:  E(RwB97XD) =  -978.452650040     A.U. after   15 cycles
 SCF Done:  E(RwB97XD) =  -978.452610661     A.U. after   10 cycles
 SCF Done:  E(RwB97XD) =  -978.452574068     A.U. after   10 cycles
 SCF Done:  E(RwB97XD) =  -978.452540226     A.U. after   10 cycles
 SCF Done:  E(RwB97XD) =  -978.452509165     A.U. after   10 cycles
 SCF Done:  E(RwB97XD) =  -978.452480923     A.U. after   10 cycles
 SCF Done:  E(RwB97XD) =  -978.452455560     A.U. after   10 cycles
 SCF Done:  E(RwB97XD) =  -978.452433164     A.U. after   10 cycles
 SCF Done:  E(RwB97XD) =  -978.452413891     A.U. after   10 cycles
 SCF Done:  E(RwB97XD) =  -978.452397934     A.U. after   10 cycles
 SCF Done:  E(RwB97XD) =  -978.453451396     A.U. after    9 cycles
 SCF Done:  E(RwB97XD) =  -978.453485201     A.U. after   10 cycles
 SCF Done:  E(RwB97XD) =  -978.453510921     A.U. after    9 cycles
 SCF Done:  E(RwB97XD) =  -978.453533086     A.U. after   10 cycles
 SCF Done:  E(RwB97XD) =  -978.453545526     A.U. after   10 cycles
 SCF Done:  E(RwB97XD) =  -978.453552086     A.U. after   11 cycles
 SCF Done:  E(RwB97XD) =  -978.453543319     A.U. after   11 cycles
 SCF Done:  E(RwB97XD) =  -978.453551047     A.U. after   10 cycles
 SCF Done:  E(RwB97XD) =  -978.453551859     A.U. after   10 cycles
 Optimization completed.
    -- Stationary point found.
 Normal termination of Gaussian 16 at Tue Feb  9 10:34:29 2021.

 ---------------------------------------------------------------------
 #N Geom=AllCheck Guess=TCheck SCRF=Check GenChk RwB97XD/def2TZVP Freq
 ---------------------------------------------------------------------

 Structure from the checkpoint file:  "/beegfs/scratch/user/q/tla25/Gau-10473.chk"
 ------------------------
 0_iteration/TS-233-0.out
 ------------------------
 Charge =  0 Multiplicity = 1

                         Standard orientation:
 ---------------------------------------------------------------------
 Center     Atomic      Atomic             Coordinates (Angstroms)
 Number     Number       Type             X           Y           Z
 ---------------------------------------------------------------------
      1          6           0       -1.388493   -0.487407   -0.212076
      2          6           0       -1.322273   -1.480087    0.788423
      3          8           0       -2.253395   -2.161497    1.220192
      4          6           0       -0.340322    0.292854   -0.708138
      5          6           0       -1.026475    2.227283    1.309463
      6          1           0       -0.153142    2.256193    1.955705
      7          1           0       -1.630065    3.116155    1.488391
      8          1           0       -1.619132    1.341430    1.553827
      9          7           0       -0.607040    2.134476   -0.082962
     10          1           0       -1.328698    2.476458   -0.705554
     11          1           0        0.240902    2.655061   -0.270289
     12          1           0       -0.462043    0.623106   -1.733568
     13          6           0        1.084368    0.037106   -0.364654
     14          6           0        1.565165    0.027878    0.943298
     15          6           0        2.905432   -0.213679    1.198266
     16          6           0        3.784670   -0.450641    0.151210
     17          6           0        3.317869   -0.433241   -1.154687
     18          6           0        1.979115   -0.180902   -1.409936
     19          1           0        0.893682    0.215252    1.770134
     20          1           0        3.263750   -0.214520    2.219620
     21          1           0        4.831184   -0.640135    0.352587
     22          1           0        3.997532   -0.609011   -1.978568
     23          1           0        1.622014   -0.158053   -2.432507
     24         17           0       -2.966578   -0.181864   -0.930326
     25          1           0       -0.302059   -1.654584    1.167960
 ---------------------------------------------------------------------

 SCF Done:  E(RwB97XD) =  -978.453551859     A.U. after    1 cycles

 The electronic state is 1-A.
 Alpha  occ. eigenvalues -- -101.68820 -19.21099 -14.48465 -10.35506 -10.35029
 Alpha  occ. eigenvalues --  -10.31750 -10.31541 -10.31395 -10.29913 -10.29885
 Alpha  occ. eigenvalues --  -10.29647 -10.29604 -10.29555  -9.57353  -7.31963
 Alpha  occ. eigenvalues --   -7.31151  -7.31141  -1.11435  -1.03956  -0.98100
 Alpha  occ. eigenvalues --   -0.96069  -0.89502  -0.85963  -0.82948  -0.79388
 Alpha  occ. eigenvalues --   -0.75872  -0.71250  -0.69900  -0.64411  -0.62803
 Alpha  occ. eigenvalues --   -0.60291  -0.58424  -0.57169  -0.56551  -0.55193
 Alpha  occ. eigenvalues --   -0.53128  -0.52610  -0.51444  -0.49549  -0.48610
 Alpha  occ. eigenvalues --   -0.48273  -0.47666  -0.47034  -0.44359  -0.43679
 Alpha  occ. eigenvalues --   -0.42529  -0.40816  -0.39333  -0.34816  -0.34405
 Alpha  occ. eigenvalues --   -0.32388  -0.28163
 Alpha virt. eigenvalues --    0.01549   0.04587   0.06436   0.10347   0.11150
 Alpha virt. eigenvalues --    0.12589   0.13778   0.14471   0.15288   0.16265
 Alpha virt. eigenvalues --    0.16966   0.18022   0.18344   0.19343   0.20296

 Mulliken charges:
               1
     1  C   -0.050090
     2  C    0.075185
     3  O   -0.500225
     4  C   -0.002316
     5  C   -0.303870
     6  H    0.161147
     7  H    0.160275
     8  H    0.150566
     9  N   -0.344955
    10  H    0.285448
    11  H    0.293005
    12  H    0.177535
    13  C    0.162626
    14  C   -0.309291
    15  C   -0.136166
    16  C   -0.150018
    17  C   -0.132347
    18  C   -0.243896
    19  H    0.197049
    20  H    0.147538
    21  H    0.148302
    22  H    0.147622
    23  H    0.145785
    24  Cl  -0.179902
    25  H    0.100993
 Sum of Mulliken charges =  -0.00000

 Dipole moment (field-independent basis, Debye):
    X=              7.6516    Y=             10.0208    Z=             -1.7545  Tot=             12.7295
 Quadrupole moment (field-independent basis, Debye-Ang):
   XX=            -94.8049   YY=            -83.3495   ZZ=            -79.1536
   XY=            -17.9016   XZ=              4.0293   YZ=              5.3001

  Exact polarizability: 243.977   8.063 181.659  -1.641 -12.565 186.197
 Approx polarizability: 187.344   4.706 148.867  -1.680 -10.932 163.523

 ******    1 imaginary frequencies (negative Signs) ******

                      1                      2                      3
                      A                      A                      A
 Frequencies --   -317.1271                46.8759                63.2064
 Red. masses --      6.0362                 3.6243                 6.9849
 Frc consts  --      0.3577                 0.0047                 0.0164
 IR Inten    --    825.2238                 4.5889                 1.7647

                      4                      5                      6
                      A                      A                      A
 Frequencies --     83.3592                94.2531               111.4944
 Red. masses --      3.1764                 3.8757                 2.7423
 Frc consts  --      0.0130                 0.0203                 0.0201
 IR Inten    --      2.9077                 1.3339                 9.2928

                      7                      8                      9
                      A                      A                      A
 Frequencies --    152.4643               178.2926               220.1924
 Red. masses --      2.7498                 1.4118                 9.6894
 Frc consts  --      0.0377                 0.0264                 0.2768
 IR Inten    --      5.0146                 4.0930                 8.3100

                     10                     11                     12
                      A                      A                      A
 Frequencies --    257.9099               259.8624               293.8445
 Red. masses --      7.2453                 2.9663                 5.6380
 Frc consts  --      0.2840                 0.1180                 0.2868
 IR Inten    --      1.5099                19.5184                 4.1544

                     13                     14                     15
                      A                      A                      A
 Frequencies --    303.1618               396.7862               429.7246
 Red. masses --      3.7625                 3.5279                 2.9739
 Frc consts  --      0.2037                 0.3273                 0.3236
 IR Inten    --     25.5090                13.7922                 1.3562

                     16                     17                     18
                      A                      A                      A
 Frequencies --    476.4340               571.4345               584.1051
 Red. masses --      3.9639                 3.2353                 2.5547
 Frc consts  --      0.5301                 0.6224                 0.5135
 IR Inten    --     27.3237                96.5956                52.0316

                     19                     20                     21
                      A                      A                      A
 Frequencies --    635.1072               649.1593               660.1602
 Red. masses --      6.3500                 2.9872                 3.7072
 Frc consts  --      1.5091                 0.7417                 0.9519
 IR Inten    --      9.2868                87.8579                66.4674

                     22                     23                     24
                      A                      A                      A
 Frequencies --    731.3989               756.1150               809.3782
 Red. masses --      1.7033                 3.4644                 2.4406
 Frc consts  --      0.5368                 1.1669                 0.9420
 IR Inten    --     72.8121                71.5415                13.5310

                     25                     26                     27
                      A                      A                      A
 Frequencies --    858.1049               884.5232               969.3723
 Red. masses --      4.4002                 1.2484                 1.4072
 Frc consts  --      1.9090                 0.5755                 0.7791
 IR Inten    --     24.1329                 0.2805                 4.3393

                     28                     29                     30
                      A                      A                      A
 Frequencies --   1014.6804              1016.4229              1022.9521
 Red. masses --      1.2425                 1.2912                 1.4598
 Frc consts  --      0.7537                 0.7860                 0.9000
 IR Inten    --     18.4860                16.0259                25.1939

                     31                     32                     33
                      A                      A                      A
 Frequencies --   1025.4634              1028.0030              1037.9322
 Red. masses --      2.1780                 2.7785                 1.3123
 Frc consts  --      1.3494                 1.7300                 0.8330
 IR Inten    --    113.1449                90.5999                 1.9326

                     34                     35                     36
                      A                      A                      A
 Frequencies --   1064.2227              1067.5861              1119.9062
 Red. masses --      2.2105                 1.6117                 1.5874
 Frc consts  --      1.4751                 1.0822                 1.1730
 IR Inten    --      5.1688                10.0991                16.7075

                     37                     38                     39
                      A                      A                      A
 Frequencies --   1146.1469              1186.6843              1193.2463
 Red. masses --      2.5532                 1.1660                 1.3120
 Frc consts  --      1.9762                 0.9674                 1.1006
 IR Inten    --     42.7972                 4.5363                71.3271

                     40                     41                     42
                      A                      A                      A
 Frequencies --   1205.2701              1217.6875              1231.7804
 Red. masses --      1.3866                 1.1424                 2.4554
 Frc consts  --      1.1867                 0.9980                 2.1950
 IR Inten    --     44.1458                 0.4110                62.8837

                     43                     44                     45
                      A                      A                      A
 Frequencies --   1329.3125              1343.1840              1358.1307
 Red. masses --      4.2557                 1.3732                 1.6211
 Frc consts  --      4.4307                 1.4597                 1.7617
 IR Inten    --      0.9566                 5.2453               334.8944

                     46                     47                     48
                      A                      A                      A
 Frequencies --   1367.6637              1431.9894              1461.0575
 Red. masses --      1.4358                 1.7425                 1.1992
 Frc consts  --      1.5823                 2.1053                 1.5083
 IR Inten    --     46.5160                81.9299                12.0829

                     49                     50                     51
                      A                      A                      A
 Frequencies --   1488.5827              1498.1270              1502.6597
 Red. masses --      2.2039                 1.0387                 1.0414
 Frc consts  --      2.8773                 1.3736                 1.3854
 IR Inten    --     52.0071                15.9094                15.3042

                     52                     53                     54
                      A                      A                      A
 Frequencies --   1517.8829              1551.2756              1645.9379
 Red. masses --      2.5825                 2.5465                 1.0952
 Frc consts  --      3.5056                 3.6105                 1.7481
 IR Inten    --    170.7517                34.2755                70.3752

                     55                     56                     57
                      A                      A                      A
 Frequencies --   1654.3767              1665.0916              1677.8845
 Red. masses --      5.5425                 7.2205                 5.8280
 Frc consts  --      8.9377                11.7948                 9.6670
 IR Inten    --     40.5173              1209.6286                 3.8460

                     58                     59                     60
                      A                      A                      A
 Frequencies --   2990.5332              3052.3279              3129.6120
 Red. masses --      1.0816                 1.0399                 1.0979
 Frc consts  --      5.6994                 5.7083                 6.3355
 IR Inten    --     87.9962                25.9596                13.2780

                     61                     62                     63
                      A                      A                      A
 Frequencies --   3172.6646              3173.4215              3195.6068
 Red. masses --      1.1030                 1.0912                 1.0875
 Frc consts  --      6.5417                 6.4746                 6.5428
 IR Inten    --     11.9524                13.3287                 4.0592

                     64                     65                     66
                      A                      A                      A
 Frequencies --   3202.7467              3212.0788              3221.6125
 Red. masses --      1.0885                 1.0923                 1.0955
 Frc consts  --      6.5786                 6.6398                 6.6988
 IR Inten    --      1.2369                19.2867                26.5955

                     67                     68                     69
                      A                      A                      A
 Frequencies --   3229.2360              3537.7711              3619.4877
 Red. masses --      1.0968                 1.0508                 1.0964
 Frc consts  --      6.7389                 7.7488                 8.4628
 IR Inten    --      6.6396                55.0534                54.1498

 - Thermochemistry -
 -------------------
 Temperature   298.150 Kelvin.  Pressure   1.00000 Atm.
 Atom     1 has atomic number  6 and mass  12.00000

 Molecular mass:   197.06074 amu.
 Principal axes and moments of inertia in atomic units:
                           1         2         3
     Eigenvalues --  1636.254144279.249534563.73890
           X            0.99972  -0.02077  -0.01102
           Y            0.02167   0.99581   0.08881
           Z            0.00913  -0.08903   0.99599
 This molecule is an asymmetric top.
 Rotational symmetry number  1.
 Warning -- assumption of classical behavior for rotation
           may cause significant error
 Rotational temperatures (Kelvin)      0.05293     0.02024     0.01898
 Rotational constants (GHZ):           1.10297     0.42174     0.39545
    1 imaginary frequencies ignored.
 Zero-point vibrational energy     534042.7 (Joules/Mol)
                                  127.63926 (Kcal/Mol)
 Warning -- explicit consideration of  17 degrees of freedom as
           vibrations may cause significant error
 Vibrational temperatures:     67.44    90.94   119.94   135.61   160.42
          (Kelvin)            219.36   256.52   316.81   371.07   373.88
                              422.78   436.18   570.89   618.28   685.48
                              822.17   840.40   913.78   934.00   949.82
                             1052.32  1087.88  1164.51  1234.62  1272.63
                             1394.71  1459.90  1462.41  1471.80  1475.41
                             1479.07  1493.35  1531.18  1536.02  1611.30
                             1649.05  1707.37  1716.82  1734.11  1751.98
                             1772.26  1912.58  1932.54  1954.05  1967.76
                             2060.31  2102.14  2141.74  2155.47  2161.99
                             2183.89  2231.94  2368.14  2380.28  2395.70
                             2414.10  4302.71  4391.62  4502.81  4564.76
                             4565.85  4597.77  4608.04  4621.46  4635.18
                             4646.15  5090.06  5207.64

 Zero-point correction=                           0.203406 (Hartree/Particle)
 Thermal correction to Energy=                    0.216154
 Thermal correction to Enthalpy=                  0.217098
 Thermal correction to Gibbs Free Energy=         0.163130
 Sum of electronic and zero-point Energies=           -978.250146
 Sum of electronic and thermal Energies=              -978.237398
 Sum of electronic and thermal Enthalpies=            -978.236454
 Sum of electronic and thermal Free Energies=         -978.290422

                     E (Thermal)             CV                S
                      KCal/Mol        Cal/Mol-Kelvin    Cal/Mol-Kelvin
 Total                  135.639             46.410            113.586
 Electronic               0.000              0.000              0.000
 Translational            0.889              2.981             41.740
 Rotational               0.889              2.981             31.836
 Vibrational            133.861             40.449             40.010
 Vibration     1          0.595              1.979              4.945
 Vibration     2          0.597              1.972              4.354
 Vibration     3          0.600              1.961              3.810
 Vibration     4          0.603              1.953              3.570
 Vibration     5          0.607              1.940              3.243
 Vibration     6          0.619              1.900              2.641
 Vibration     7          0.629              1.869              2.346
 Vibration     8          0.647              1.810              1.958
 Vibration     9          0.667              1.749              1.676
 Vibration    10          0.668              1.746              1.663
 Vibration    11          0.689              1.685              1.452
 Vibration    12          0.695              1.668              1.399
 Vibration    13          0.763              1.477              0.975
 Vibration    14          0.791              1.406              0.860
 Vibration    15          0.833              1.302              0.720
 Vibration    16          0.928              1.093              0.501
 Vibration    17          0.941              1.066              0.478

 Optimization completed.
    -- Stationary point found.
 Normal termination of Gaussian 16 at Tue Feb  9 11:10:58 2021.
