 Gaussian 16, Revision A.03,
 Gaussian 16:  ES64L-G16RevA.03 25-Dec-2016

 ----------------------------------------------------------------------
 # wB97XD def2tzvp, opt=(ts, noeigen, calcfc, maxcycles=70, maxstep=8),
  freq=noraman, scrf=(iefpcm, solvent=water)
 ----------------------------------------------------------------------

 ------------------------
 1_iteration/TS-219-1.out
 ------------------------
 Symbolic Z-matrix:
 Charge =  0 Multiplicity = 1

 SCF Done:  E(RwB97XD) =  -613.528241680     A.U. after   15 cycles
 SCF Done:  E(RwB97XD) =  -613.531359767     A.U. after   14 cycles
 SCF Done:  E(RwB97XD) =  -613.533960867     A.U. after   14 cycles
 SCF Done:  E(RwB97XD) =  -613.535054946     A.U. after   14 cycles
 SCF Done:  E(RwB97XD) =  -613.535588061     A.U. after   13 cycles
 SCF Done:  E(RwB97XD) =  -613.535656580     A.U. after   12 cycles
 SCF Done:  E(RwB97XD) =  -613.535663917     A.U. after   12 cycles
 SCF Done:  E(RwB97XD) =  -613.535493010     A.U. after   14 cycles
 SCF Done:  E(RwB97XD) =  -613.535791515     A.U. after   12 cycles
 SCF Done:  E(RwB97XD) =  -613.535921850     A.U. after   13 cycles
 SCF Done:  E(RwB97XD) =  -613.537854374     A.U. after   11 cycles
 SCF Done:  E(RwB97XD) =  -613.537860461     A.U. after   10 cycles
 SCF Done:  E(RwB97XD) =  -613.537851929     A.U. after   10 cycles
 SCF Done:  E(RwB97XD) =  -613.537865181     A.U. after   11 cycles
 SCF Done:  E(RwB97XD) =  -613.537793023     A.U. after   12 cycles
 SCF Done:  E(RwB97XD) =  -613.537867215     A.U. after   12 cycles
 SCF Done:  E(RwB97XD) =  -613.537862093     A.U. after   10 cycles
 SCF Done:  E(RwB97XD) =  -613.537867582     A.U. after   10 cycles
 SCF Done:  E(RwB97XD) =  -613.537867622     A.U. after    9 cycles
 Optimization completed.
    -- Stationary point found.
 Normal termination of Gaussian 16 at Wed Feb 10 19:35:21 2021.

 ---------------------------------------------------------------------
 #N Geom=AllCheck Guess=TCheck SCRF=Check GenChk RwB97XD/def2TZVP Freq
 ---------------------------------------------------------------------

 Structure from the checkpoint file:  "/beegfs/scratch/user/q/tla25/Gau-43245.chk"
 ------------------------
 1_iteration/TS-219-1.out
 ------------------------
 Charge =  0 Multiplicity = 1

                         Standard orientation:
 ---------------------------------------------------------------------
 Center     Atomic      Atomic             Coordinates (Angstroms)
 Number     Number       Type             X           Y           Z
 ---------------------------------------------------------------------
      1          6           0        1.445175   -0.256260    0.695007
      2          6           0        1.751467   -1.048045   -0.451691
      3          8           0        1.155663   -0.954131   -1.549961
      4          6           0        0.320130    0.586884    0.664704
      5          6           0        1.826473    2.541974   -0.651000
      6          1           0        2.148600    2.977251   -1.597597
      7          1           0        1.709626    3.332245    0.088902
      8          1           0        2.589611    1.842628   -0.306692
      9          7           0        0.576429    1.811875   -0.784563
     10          1           0       -0.213470    2.416447   -0.969337
     11          1           0        0.635157    1.090352   -1.502702
     12          1           0        0.312487    1.318714    1.470035
     13          6           0       -1.082233    0.153471    0.348239
     14          6           0       -1.412830   -1.179624    0.126215
     15          6           0       -2.727699   -1.557703   -0.097986
     16          6           0       -3.741780   -0.610126   -0.090599
     17          6           0       -3.430287    0.719094    0.155913
     18          6           0       -2.113757    1.091769    0.377929
     19          1           0       -0.631554   -1.926361    0.138066
     20          1           0       -2.962114   -2.600476   -0.272870
     21          1           0       -4.768586   -0.907379   -0.262662
     22          1           0       -4.213252    1.466486    0.184009
     23          1           0       -1.887848    2.131063    0.590984
     24          6           0        2.469011   -0.107334    1.796986
     25          1           0        2.195474    0.712565    2.463493
     26          1           0        2.548166   -1.001804    2.427224
     27          1           0        3.476849    0.101690    1.420172
     28          7           0        2.839971   -1.891792   -0.373550
     29          1           0        3.140476   -2.222641    0.526703
     30          1           0        2.938249   -2.542910   -1.133555
 ---------------------------------------------------------------------

 SCF Done:  E(RwB97XD) =  -613.537867622     A.U. after    1 cycles

 The electronic state is 1-A.
 Alpha  occ. eigenvalues --  -19.18916 -14.47022 -14.42781 -10.36109 -10.33203
 Alpha  occ. eigenvalues --  -10.31042 -10.29934 -10.29015 -10.28930 -10.28866
 Alpha  occ. eigenvalues --  -10.28784 -10.28622 -10.26830 -10.24446  -1.10931
 Alpha  occ. eigenvalues --   -1.02750  -0.98031  -0.96699  -0.89720  -0.85236
 Alpha  occ. eigenvalues --   -0.84783  -0.78603  -0.76975  -0.73095  -0.70264
 Alpha  occ. eigenvalues --   -0.68550  -0.63858  -0.61874  -0.61507  -0.59005
 Alpha  occ. eigenvalues --   -0.56231  -0.55104  -0.54832  -0.53354  -0.52676
 Alpha  occ. eigenvalues --   -0.50909  -0.50410  -0.49445  -0.48067  -0.47621
 Alpha  occ. eigenvalues --   -0.46760  -0.46296  -0.45593  -0.45073  -0.42435
 Alpha  occ. eigenvalues --   -0.42259  -0.41552  -0.34899  -0.33525  -0.33319
 Alpha  occ. eigenvalues --   -0.32055  -0.25262
 Alpha virt. eigenvalues --    0.02908   0.05534   0.09199   0.10532   0.12290
 Alpha virt. eigenvalues --    0.13659   0.14564   0.15395   0.16394   0.16805
 Alpha virt. eigenvalues --    0.17102   0.17661   0.18155   0.19113   0.19268

 Mulliken charges:
               1
     1  C   -0.252314
     2  C    0.311330
     3  O   -0.597272
     4  C    0.084047
     5  C   -0.277283
     6  H    0.147661
     7  H    0.145971
     8  H    0.149643
     9  N   -0.319992
    10  H    0.269043
    11  H    0.270605
    12  H    0.152503
    13  C    0.138533
    14  C   -0.205827
    15  C   -0.133815
    16  C   -0.156522
    17  C   -0.136359
    18  C   -0.306574
    19  H    0.158874
    20  H    0.140226
    21  H    0.143210
    22  H    0.142008
    23  H    0.156868
    24  C   -0.427189
    25  H    0.123901
    26  H    0.126903
    27  H    0.120666
    28  N   -0.489601
    29  H    0.267114
    30  H    0.253641
 Sum of Mulliken charges =  -0.00000

 Dipole moment (field-independent basis, Debye):
    X=             -0.0593    Y=              4.3847    Z=              1.7114  Tot=              4.7072
 Quadrupole moment (field-independent basis, Debye-Ang):
   XX=            -77.5062   YY=            -65.8993   ZZ=            -91.5221
   XY=             -2.1122   XZ=              3.6814   YZ=             -4.4395

  Exact polarizability: 248.178 -17.963 228.781   9.715   4.969 160.836
 Approx polarizability: 186.972 -12.589 185.972   8.368   4.624 140.007

 ******    1 imaginary frequencies (negative Signs) ******

                      1                      2                      3
                      A                      A                      A
 Frequencies --   -419.8849                39.3163                75.9566
 Red. masses --      5.3357                 3.9728                 3.0841
 Frc consts  --      0.5542                 0.0036                 0.0105
 IR Inten    --    816.8014                 1.0325                 1.1648

                      4                      5                      6
                      A                      A                      A
 Frequencies --     88.0188                94.8182               116.9314
 Red. masses --      3.6406                 3.8243                 2.6442
 Frc consts  --      0.0166                 0.0203                 0.0213
 IR Inten    --     11.7584                 2.3497                14.9662

                      7                      8                      9
                      A                      A                      A
 Frequencies --    161.4572               168.1741               180.8529
 Red. masses --      4.2271                 1.4883                 1.2270
 Frc consts  --      0.0649                 0.0248                 0.0236
 IR Inten    --     11.6979                21.1847                13.0310

                     10                     11                     12
                      A                      A                      A
 Frequencies --    211.1624               229.5822               262.5468
 Red. masses --      1.6306                 3.6262                 3.2716
 Frc consts  --      0.0428                 0.1126                 0.1329
 IR Inten    --     27.5543                 2.2091                 8.0837

                     13                     14                     15
                      A                      A                      A
 Frequencies --    297.6462               335.3971               351.7289
 Red. masses --      3.4623                 3.2484                 4.1527
 Frc consts  --      0.1807                 0.2153                 0.3027
 IR Inten    --     24.1174                17.7470                 9.6062

                     16                     17                     18
                      A                      A                      A
 Frequencies --    398.5321               424.9444               426.2821
 Red. masses --      1.3240                 2.9088                 2.7380
 Frc consts  --      0.1239                 0.3095                 0.2931
 IR Inten    --    389.1262                 5.2274                60.6976

                     19                     20                     21
                      A                      A                      A
 Frequencies --    496.1501               535.0222               554.9824
 Red. masses --      1.2108                 2.8791                 2.8959
 Frc consts  --      0.1756                 0.4856                 0.5255
 IR Inten    --     19.9263                76.7749                18.6258

                     22                     23                     24
                      A                      A                      A
 Frequencies --    575.2836               638.1927               652.6854
 Red. masses --      4.1608                 6.3304                 4.1902
 Frc consts  --      0.8113                 1.5191                 1.0517
 IR Inten    --     30.0053                 1.6637                28.7274

                     25                     26                     27
                      A                      A                      A
 Frequencies --    717.6386               728.5952               769.9199
 Red. masses --      1.6353                 1.7345                 2.3432
 Frc consts  --      0.4962                 0.5425                 0.8184
 IR Inten    --     70.8938                41.7849                51.7520

                     28                     29                     30
                      A                      A                      A
 Frequencies --    799.7980               822.9126               874.1742
 Red. masses --      6.6299                 2.7434                 3.3353
 Frc consts  --      2.4987                 1.0946                 1.5017
 IR Inten    --     59.4295                16.1306                 7.1081

                     31                     32                     33
                      A                      A                      A
 Frequencies --    878.0052               962.6202               993.7144
 Red. masses --      1.2509                 1.4360                 1.1266
 Frc consts  --      0.5681                 0.7840                 0.6554
 IR Inten    --      0.8901                 6.4723                89.1182

                     34                     35                     36
                      A                      A                      A
 Frequencies --   1013.9835              1017.9242              1026.6810
 Red. masses --      1.3644                 1.5208                 2.0622
 Frc consts  --      0.8265                 0.9284                 1.2807
 IR Inten    --     21.2344               112.5920                 0.2342

                     37                     38                     39
                      A                      A                      A
 Frequencies --   1028.6025              1056.0173              1063.2951
 Red. masses --      2.2030                 1.2373                 1.6049
 Frc consts  --      1.3733                 0.8130                 1.0690
 IR Inten    --      3.8978                26.3178                30.6554

                     40                     41                     42
                      A                      A                      A
 Frequencies --   1067.7403              1093.7599              1097.0204
 Red. masses --      1.5453                 2.0420                 3.1162
 Frc consts  --      1.0380                 1.4393                 2.2095
 IR Inten    --     11.3003                47.8365                50.7222

                     43                     44                     45
                      A                      A                      A
 Frequencies --   1116.1695              1128.9015              1182.1348
 Red. masses --      1.5227                 1.1935                 1.1857
 Frc consts  --      1.1177                 0.8962                 0.9763
 IR Inten    --     26.4685                53.7982                 2.0225

                     46                     47                     48
                      A                      A                      A
 Frequencies --   1190.4645              1204.9402              1212.7829
 Red. masses --      2.4191                 1.3528                 1.1750
 Frc consts  --      2.0200                 1.1572                 1.0183
 IR Inten    --     21.8701                36.3000                10.6021

                     49                     50                     51
                      A                      A                      A
 Frequencies --   1230.4032              1293.1246              1337.2539
 Red. masses --      3.5354                 1.9599                 3.9188
 Frc consts  --      3.1534                 1.9309                 4.1289
 IR Inten    --     16.9583                32.8895                25.4883

                     52                     53                     54
                      A                      A                      A
 Frequencies --   1352.3111              1364.0836              1407.7422
 Red. masses --      1.3206                 1.3957                 2.1452
 Frc consts  --      1.4229                 1.5301                 2.5048
 IR Inten    --      6.6135                 5.9293               362.1601

                     55                     56                     57
                      A                      A                      A
 Frequencies --   1426.6585              1444.1778              1461.2643
 Red. masses --      1.6914                 1.3786                 1.8426
 Frc consts  --      2.0283                 1.6941                 2.3181
 IR Inten    --    489.0883                19.2701               116.5422

                     58                     59                     60
                      A                      A                      A
 Frequencies --   1476.6748              1491.3790              1500.4861
 Red. masses --      1.1266                 1.0418                 2.2023
 Frc consts  --      1.4473                 1.3652                 2.9214
 IR Inten    --     26.0776                13.4218                97.1790

                     61                     62                     63
                      A                      A                      A
 Frequencies --   1502.8659              1510.8788              1545.2216
 Red. masses --      1.0637                 1.1085                 2.3513
 Frc consts  --      1.4154                 1.4909                 3.3077
 IR Inten    --      3.9996               180.4627                26.4716

                     64                     65                     66
                      A                      A                      A
 Frequencies --   1603.4568              1630.3603              1651.5250
 Red. masses --      2.4191                 1.4409                 1.5852
 Frc consts  --      3.6646                 2.2565                 2.5474
 IR Inten    --    333.6911               407.8905                 8.3207

                     67                     68                     69
                      A                      A                      A
 Frequencies --   1655.0308              1674.8985              3000.3373
 Red. masses --      2.9926                 5.8556                 1.0414
 Frc consts  --      4.8296                 9.6783                 5.5233
 IR Inten    --     18.8767                 1.9561               145.6423

                     70                     71                     72
                      A                      A                      A
 Frequencies --   3038.7999              3060.0033              3108.9523
 Red. masses --      1.1000                 1.0327                 1.0960
 Frc consts  --      5.9848                 5.6975                 6.2414
 IR Inten    --     70.9199                60.3738                32.7280

                     73                     74                     75
                      A                      A                      A
 Frequencies --   3134.5534              3136.2178              3154.1728
 Red. masses --      1.1042                 1.0878                 1.1054
 Frc consts  --      6.3921                 6.3041                 6.4798
 IR Inten    --     12.6816                34.5425                19.3692

                     76                     77                     78
                      A                      A                      A
 Frequencies --   3180.0290              3195.2821              3205.9994
 Red. masses --      1.0886                 1.0872                 1.0923
 Frc consts  --      6.4862                 6.5401                 6.6148
 IR Inten    --     14.0981                 0.4058                28.1088

                     79                     80                     81
                      A                      A                      A
 Frequencies --   3218.9676              3237.1510              3445.0499
 Red. masses --      1.0974                 1.0926                 1.0613
 Frc consts  --      6.6998                 6.7459                 7.4215
 IR Inten    --     28.5503                10.2585                74.3199

                     82                     83                     84
                      A                      A                      A
 Frequencies --   3601.9465              3610.0039              3727.9516
 Red. masses --      1.0871                 1.0464                 1.1022
 Frc consts  --      8.3098                 8.0343                 9.0252
 IR Inten    --     74.0877                49.4608                48.7432

 - Thermochemistry -
 -------------------
 Temperature   298.150 Kelvin.  Pressure   1.00000 Atm.
 Atom     1 has atomic number  6 and mass  12.00000

 Molecular mass:   192.12626 amu.
 Principal axes and moments of inertia in atomic units:
                           1         2         3
     Eigenvalues --  1696.703723750.930464488.60549
           X            0.99986   0.01004   0.01344
           Y           -0.00982   0.99981  -0.01674
           Z           -0.01361   0.01661   0.99977
 This molecule is an asymmetric top.
 Rotational symmetry number  1.
 Warning -- assumption of classical behavior for rotation
           may cause significant error
 Rotational temperatures (Kelvin)      0.05105     0.02309     0.01930
 Rotational constants (GHZ):           1.06367     0.48114     0.40207
    1 imaginary frequencies ignored.
 Zero-point vibrational energy     675762.5 (Joules/Mol)
                                  161.51112 (Kcal/Mol)
 Warning -- explicit consideration of  21 degrees of freedom as
           vibrations may cause significant error
 Vibrational temperatures:     56.57   109.28   126.64   136.42   168.24
          (Kelvin)            232.30   241.97   260.21   303.82   330.32
                              377.75   428.25   482.56   506.06   573.40
                              611.40   613.32   713.85   769.78   798.50
                              827.70   918.22   939.07  1032.52  1048.29
                             1107.74  1150.73  1183.99  1257.74  1263.25
                             1385.00  1429.73  1458.90  1464.57  1477.17
                             1479.93  1519.37  1529.84  1536.24  1573.68
                             1578.37  1605.92  1624.24  1700.83  1712.81
                             1733.64  1744.92  1770.28  1860.52  1924.01
                             1945.67  1962.61  2025.43  2052.64  2077.85
                             2102.43  2124.61  2145.76  2158.86  2162.29
                             2173.82  2223.23  2307.02  2345.72  2376.18
                             2381.22  2409.81  4316.82  4372.16  4402.66
                             4473.09  4509.92  4512.32  4538.15  4575.35
                             4597.30  4612.72  4631.38  4657.54  4956.66
                             5182.40  5193.99  5363.69

 Zero-point correction=                           0.257384 (Hartree/Particle)
 Thermal correction to Energy=                    0.271671
 Thermal correction to Enthalpy=                  0.272615
 Thermal correction to Gibbs Free Energy=         0.216319
 Sum of electronic and zero-point Energies=           -613.280483
 Sum of electronic and thermal Energies=              -613.266196
 Sum of electronic and thermal Enthalpies=            -613.265252
 Sum of electronic and thermal Free Energies=         -613.321549

                     E (Thermal)             CV                S
                      KCal/Mol        Cal/Mol-Kelvin    Cal/Mol-Kelvin
 Total                  170.476             53.870            118.486
 Electronic               0.000              0.000              0.000
 Translational            0.889              2.981             41.664
 Rotational               0.889              2.981             31.724
 Vibrational            168.699             47.908             45.097
 Vibration     1          0.594              1.981              5.293
 Vibration     2          0.599              1.965              3.993
 Vibration     3          0.601              1.958              3.704
 Vibration     4          0.603              1.953              3.558
 Vibration     5          0.608              1.935              3.150
 Vibration     6          0.622              1.890              2.533
 Vibration     7          0.625              1.882              2.456
 Vibration     8          0.630              1.866              2.320
 Vibration     9          0.643              1.824              2.034
 Vibration    10          0.652              1.796              1.882
 Vibration    11          0.670              1.741              1.645
 Vibration    12          0.691              1.678              1.430
 Vibration    13          0.717              1.605              1.234
 Vibration    14          0.728              1.572              1.158
 Vibration    15          0.765              1.473              0.968
 Vibration    16          0.787              1.416              0.875
 Vibration    17          0.788              1.413              0.871
 Vibration    18          0.852              1.259              0.668
 Vibration    19          0.890              1.173              0.576
 Vibration    20          0.910              1.129              0.534
 Vibration    21          0.932              1.085              0.494

 Optimization completed.
    -- Stationary point found.
 Normal termination of Gaussian 16 at Wed Feb 10 20:29:27 2021.
