 Gaussian 16, Revision A.03,
 Gaussian 16:  ES64L-G16RevA.03 25-Dec-2016

 ----------------------------------------------------------------------
 # wB97XD def2tzvp, opt=(ts, noeigen, calcfc, maxcycles=70, maxstep=3),
  freq=noraman, scrf=(iefpcm, solvent=water)
 ----------------------------------------------------------------------

 ------------------------
 0_iteration/TS-245-0.out
 ------------------------
 Symbolic Z-matrix:
 Charge =  0 Multiplicity = 1

 SCF Done:  E(RwB97XD) =  -613.535845708     A.U. after   14 cycles
 SCF Done:  E(RwB97XD) =  -613.535847952     A.U. after   10 cycles
 SCF Done:  E(RwB97XD) =  -613.535847727     A.U. after    9 cycles
 SCF Done:  E(RwB97XD) =  -613.535847975     A.U. after    7 cycles
 Optimization completed.
    -- Stationary point found.
 Normal termination of Gaussian 16 at Thu Mar 25 11:48:29 2021.

 ---------------------------------------------------------------------
 #N Geom=AllCheck Guess=TCheck SCRF=Check GenChk RwB97XD/def2TZVP Freq
 ---------------------------------------------------------------------

 Structure from the checkpoint file:  "/beegfs/scratch/user/q/tla25/Gau-119827.chk"
 ------------------------
 0_iteration/TS-245-0.out
 ------------------------
 Charge =  0 Multiplicity = 1

                         Standard orientation:
 ---------------------------------------------------------------------
 Center     Atomic      Atomic             Coordinates (Angstroms)
 Number     Number       Type             X           Y           Z
 ---------------------------------------------------------------------
      1          6           0       -0.454818    0.074135   -0.506122
      2          6           0       -1.095064    1.357480   -0.250266
      3          8           0       -2.295415    1.566163   -0.501616
      4          6           0       -1.310239   -0.953715   -0.900438
      5          6           0       -3.082127   -2.890597    0.160410
      6          1           0       -3.673834   -3.272165    0.993069
      7          1           0       -3.753538   -2.581585   -0.639775
      8          1           0       -2.437142   -3.685020   -0.211870
      9          7           0       -2.255539   -1.751404    0.548068
     10          1           0       -2.809355   -0.980181    0.901122
     11          1           0       -1.577788   -1.996302    1.259069
     12          1           0       -0.873267   -1.875968   -1.267610
     13          1           0       -2.229044   -0.666852   -1.395801
     14          6           0        0.963680   -0.216389   -0.237317
     15          6           0        1.358120   -1.444516    0.315451
     16          6           0        2.691326   -1.760590    0.524788
     17          6           0        3.690121   -0.853098    0.202629
     18          6           0        3.328251    0.367532   -0.350061
     19          6           0        1.995608    0.674795   -0.574648
     20          1           0        0.606934   -2.173657    0.592923
     21          1           0        2.949022   -2.721370    0.954374
     22          1           0        4.731382   -1.094608    0.373590
     23          1           0        4.092031    1.083837   -0.628703
     24          1           0        1.750903    1.615339   -1.052409
     25          7           0       -0.359392    2.356293    0.318162
     26          6           0       -0.966936    3.592094    0.748512
     27          1           0        0.542288    2.126414    0.694109
     28          1           0       -0.184858    4.253475    1.117407
     29          1           0       -1.472173    4.083373   -0.083120
     30          1           0       -1.701251    3.438968    1.545318
 ---------------------------------------------------------------------

 SCF Done:  E(RwB97XD) =  -613.535847975     A.U. after    1 cycles

 The electronic state is 1-A.
 Alpha  occ. eigenvalues --  -19.18942 -14.47860 -14.43690 -10.36509 -10.31800
 Alpha  occ. eigenvalues --  -10.31705 -10.30256 -10.29739 -10.28479 -10.28460
 Alpha  occ. eigenvalues --  -10.28005 -10.27919 -10.27895 -10.25171  -1.11555
 Alpha  occ. eigenvalues --   -1.03319  -1.00316  -0.95965  -0.89075  -0.84396
 Alpha  occ. eigenvalues --   -0.82586  -0.79969  -0.78466  -0.71999  -0.69645
 Alpha  occ. eigenvalues --   -0.68224  -0.64997  -0.63408  -0.61161  -0.58314
 Alpha  occ. eigenvalues --   -0.56164  -0.54834  -0.54080  -0.53309  -0.52593
 Alpha  occ. eigenvalues --   -0.52218  -0.50861  -0.50046  -0.48203  -0.47904
 Alpha  occ. eigenvalues --   -0.47123  -0.46334  -0.45938  -0.45365  -0.42768
 Alpha  occ. eigenvalues --   -0.41993  -0.41710  -0.34843  -0.33272  -0.32868
 Alpha  occ. eigenvalues --   -0.32574  -0.24871
 Alpha virt. eigenvalues --    0.05597   0.05659   0.07661   0.10121   0.12557
 Alpha virt. eigenvalues --    0.13755   0.14658   0.15308   0.15612   0.16558
 Alpha virt. eigenvalues --    0.17141   0.17884   0.18094   0.18645   0.19454

 Mulliken charges:
               1
     1  C   -0.130378
     2  C    0.319848
     3  O   -0.576559
     4  C   -0.256309
     5  C   -0.269645
     6  H    0.150942
     7  H    0.147960
     8  H    0.149676
     9  N   -0.317652
    10  H    0.281653
    11  H    0.269518
    12  H    0.180847
    13  H    0.161475
    14  C    0.216577
    15  C   -0.296990
    16  C   -0.146172
    17  C   -0.183836
    18  C   -0.122310
    19  C   -0.335979
    20  H    0.133647
    21  H    0.136426
    22  H    0.137536
    23  H    0.136662
    24  H    0.163066
    25  N   -0.331818
    26  C   -0.253866
    27  H    0.257139
    28  H    0.135694
    29  H    0.125859
    30  H    0.116987
 Sum of Mulliken charges =   0.00000

 Dipole moment (field-independent basis, Debye):
    X=             -0.9930    Y=             -5.6941    Z=              3.9628  Tot=              7.0080
 Quadrupole moment (field-independent basis, Debye-Ang):
   XX=            -81.2835   YY=            -69.6168   ZZ=            -85.7728
   XY=             20.3391   XZ=             -5.4704   YZ=              0.1559

  Exact polarizability: 272.112  11.510 241.060   6.233 -13.642 148.578
 Approx polarizability: 203.784   6.721 185.212   5.346 -12.734 130.158

 ******    1 imaginary frequencies (negative Signs) ******

                      1                      2                      3
                      A                      A                      A
 Frequencies --   -384.7477                35.9845                52.5538
 Red. masses --      6.2751                 3.2555                 3.6011
 Frc consts  --      0.5473                 0.0025                 0.0059
 IR Inten    --   1120.3326                 3.1172                10.0334

                      4                      5                      6
                      A                      A                      A
 Frequencies --     63.6537                75.3458                95.8257
 Red. masses --      2.8758                 3.9870                 2.5364
 Frc consts  --      0.0069                 0.0133                 0.0137
 IR Inten    --      2.1378                18.5950                 8.2867

                      7                      8                      9
                      A                      A                      A
 Frequencies --    109.0930               119.3324               148.8302
 Red. masses --      2.3257                 1.3540                 2.8174
 Frc consts  --      0.0163                 0.0114                 0.0368
 IR Inten    --      9.2083                 9.1417                19.1284

                     10                     11                     12
                      A                      A                      A
 Frequencies --    172.9675               196.3236               230.1705
 Red. masses --      1.3110                 2.9234                 3.3998
 Frc consts  --      0.0231                 0.0664                 0.1061
 IR Inten    --      4.2668                10.4606                 9.5045

                     13                     14                     15
                      A                      A                      A
 Frequencies --    287.7571               315.7484               357.1044
 Red. masses --      4.3495                 3.8279                 3.3817
 Frc consts  --      0.2122                 0.2249                 0.2541
 IR Inten    --     31.8986                85.2547                11.9392

                     16                     17                     18
                      A                      A                      A
 Frequencies --    414.7151               418.7392               434.7753
 Red. masses --      2.2380                 4.4380                 3.0813
 Frc consts  --      0.2268                 0.4585                 0.3432
 IR Inten    --      2.0980                15.8321                10.8094

                     19                     20                     21
                      A                      A                      A
 Frequencies --    476.1756               564.8898               613.0545
 Red. masses --      1.6008                 3.1105                 4.5983
 Frc consts  --      0.2139                 0.5848                 1.0182
 IR Inten    --    145.4717                57.3936                15.8927

                     22                     23                     24
                      A                      A                      A
 Frequencies --    632.8592               639.8033               665.3204
 Red. masses --      1.2841                 4.8092                 4.0801
 Frc consts  --      0.3030                 1.1599                 1.0641
 IR Inten    --     16.6744                 1.2476                19.2317

                     25                     26                     27
                      A                      A                      A
 Frequencies --    730.6218               788.5465               797.5662
 Red. masses --      1.5752                 2.9146                 2.9399
 Frc consts  --      0.4954                 1.0678                 1.1018
 IR Inten    --     78.0012                12.9575                27.9037

                     28                     29                     30
                      A                      A                      A
 Frequencies --    808.5942               872.8223               898.2269
 Red. masses --      5.5065                 1.2548                 2.0117
 Frc consts  --      2.1212                 0.5632                 0.9563
 IR Inten    --     75.5662                 2.7838                 7.6103

                     31                     32                     33
                      A                      A                      A
 Frequencies --    939.3154               989.7679              1005.6414
 Red. masses --      1.4481                 1.2097                 1.3561
 Frc consts  --      0.7528                 0.6982                 0.8080
 IR Inten    --      8.1520                 0.4279                 2.6277

                     34                     35                     36
                      A                      A                      A
 Frequencies --   1016.5844              1017.4381              1019.9933
 Red. masses --      1.3024                 2.1991                 1.6361
 Frc consts  --      0.7930                 1.3412                 1.0029
 IR Inten    --     51.3060                14.8275                31.2971

                     37                     38                     39
                      A                      A                      A
 Frequencies --   1055.0001              1070.0259              1077.7175
 Red. masses --      2.3044                 2.3402                 3.2022
 Frc consts  --      1.5112                 1.5786                 2.1913
 IR Inten    --     41.1662                47.2974               169.9865

                     40                     41                     42
                      A                      A                      A
 Frequencies --   1107.9931              1119.2502              1152.3307
 Red. masses --      2.5798                 1.7536                 1.2980
 Frc consts  --      1.8660                 1.2943                 1.0155
 IR Inten    --      8.9521                 1.0408                 9.6345

                     43                     44                     45
                      A                      A                      A
 Frequencies --   1169.2548              1181.0334              1182.3037
 Red. masses --      1.2759                 1.1464                 1.6328
 Frc consts  --      1.0277                 0.9421                 1.3447
 IR Inten    --     75.1667                 0.5541                54.7939

                     46                     47                     48
                      A                      A                      A
 Frequencies --   1207.3928              1217.3108              1227.7736
 Red. masses --      1.2481                 1.1327                 1.3303
 Frc consts  --      1.0720                 0.9889                 1.1815
 IR Inten    --    144.9622                45.9460               144.1515

                     49                     50                     51
                      A                      A                      A
 Frequencies --   1271.5674              1295.4454              1341.3673
 Red. masses --      2.3685                 3.2313                 1.3365
 Frc consts  --      2.2564                 3.1950                 1.4169
 IR Inten    --     58.3671               201.6404                 7.4956

                     52                     53                     54
                      A                      A                      A
 Frequencies --   1344.6974              1374.3298              1388.9488
 Red. masses --      3.2096                 1.5957                 2.2076
 Frc consts  --      3.4194                 1.7758                 2.5093
 IR Inten    --    194.8920                93.0688               160.4295

                     55                     56                     57
                      A                      A                      A
 Frequencies --   1454.6004              1463.3378              1476.2241
 Red. masses --      1.2262                 1.1821                 1.0679
 Frc consts  --      1.5286                 1.4914                 1.3711
 IR Inten    --     22.9625                 8.4750                21.4397

                     58                     59                     60
                      A                      A                      A
 Frequencies --   1481.4757              1491.1668              1502.6132
 Red. masses --      1.8451                 1.0417                 1.3648
 Frc consts  --      2.3859                 1.3648                 1.8155
 IR Inten    --     17.1699                14.4447                23.0211

                     61                     62                     63
                      A                      A                      A
 Frequencies --   1506.6285              1509.1051              1541.1728
 Red. masses --      1.0498                 1.4445                 2.3069
 Frc consts  --      1.4039                 1.9383                 3.2284
 IR Inten    --     38.4107                48.9556               124.8043

                     64                     65                     66
                      A                      A                      A
 Frequencies --   1556.8415              1629.2386              1640.3044
 Red. masses --      1.8342                 5.0337                 5.7108
 Frc consts  --      2.6193                 7.8723                 9.0531
 IR Inten    --    597.1090               407.0958               523.4075

                     67                     68                     69
                      A                      A                      A
 Frequencies --   1650.0024              1668.4784              3034.9393
 Red. masses --      1.1115                 5.6911                 1.0444
 Frc consts  --      1.7829                 9.3344                 5.6680
 IR Inten    --     68.9187                13.8696               103.5464

                     70                     71                     72
                      A                      A                      A
 Frequencies --   3065.1628              3106.3214              3142.0645
 Red. masses --      1.0335                 1.0926                 1.1010
 Frc consts  --      5.7210                 6.2116                 6.4041
 IR Inten    --     64.7511                48.2925                28.1725

                     73                     74                     75
                      A                      A                      A
 Frequencies --   3146.9306              3152.1345              3159.3238
 Red. masses --      1.0628                 1.1029                 1.1056
 Frc consts  --      6.2015                 6.4567                 6.5017
 IR Inten    --     34.4059                26.9525                19.5393

                     76                     77                     78
                      A                      A                      A
 Frequencies --   3185.1695              3189.7728              3202.0682
 Red. masses --      1.0850                 1.0875                 1.0909
 Frc consts  --      6.4857                 6.5193                 6.5904
 IR Inten    --     16.1285                 1.0443                22.3368

                     79                     80                     81
                      A                      A                      A
 Frequencies --   3205.7250              3217.7620              3233.2078
 Red. masses --      1.0943                 1.0984                 1.1153
 Frc consts  --      6.6260                 6.7009                 6.8695
 IR Inten    --     55.9292                18.9428                 3.6433

                     82                     83                     84
                      A                      A                      A
 Frequencies --   3533.7603              3615.9419              3675.3652
 Red. masses --      1.0507                 1.0966                 1.0775
 Frc consts  --      7.7306                 8.4476                 8.5755
 IR Inten    --     18.8406                46.4557                67.9187

 - Thermochemistry -
 -------------------
 Temperature   298.150 Kelvin.  Pressure   1.00000 Atm.
 Atom     1 has atomic number  6 and mass  12.00000

 Molecular mass:   192.12626 amu.
 Principal axes and moments of inertia in atomic units:
                           1         2         3
     Eigenvalues --  2462.927853388.100595452.56666
           X            0.99670   0.08104  -0.00333
           Y           -0.08102   0.99669   0.00595
           Z            0.00380  -0.00566   0.99998
 This molecule is an asymmetric top.
 Rotational symmetry number  1.
 Warning -- assumption of classical behavior for rotation
           may cause significant error
 Rotational temperatures (Kelvin)      0.03517     0.02556     0.01588
 Rotational constants (GHZ):           0.73276     0.53267     0.33099
    1 imaginary frequencies ignored.
 Zero-point vibrational energy     677246.2 (Joules/Mol)
                                  161.86573 (Kcal/Mol)
 Warning -- explicit consideration of  20 degrees of freedom as
           vibrations may cause significant error
 Vibrational temperatures:     51.77    75.61    91.58   108.41   137.87
          (Kelvin)            156.96   171.69   214.13   248.86   282.47
                              331.16   414.02   454.29   513.79   596.68
                              602.47   625.54   685.11   812.75   882.05
                              910.54   920.53   957.25  1051.20  1134.54
                             1147.52  1163.39  1255.80  1292.35  1351.47
                             1424.06  1446.89  1462.64  1463.87  1467.54
                             1517.91  1539.53  1550.60  1594.16  1610.35
                             1657.95  1682.30  1699.24  1701.07  1737.17
                             1751.44  1766.49  1829.50  1863.86  1929.93
                             1934.72  1977.35  1998.39  2092.85  2105.42
                             2123.96  2131.51  2145.46  2161.93  2167.70
                             2171.27  2217.40  2239.95  2344.11  2360.03
                             2373.99  2400.57  4366.60  4410.09  4469.30
                             4520.73  4527.73  4535.22  4545.56  4582.75
                             4589.37  4607.06  4612.32  4629.64  4651.86
                             5084.29  5202.53  5288.03

 Zero-point correction=                           0.257949 (Hartree/Particle)
 Thermal correction to Energy=                    0.272644
 Thermal correction to Enthalpy=                  0.273588
 Thermal correction to Gibbs Free Energy=         0.214890
 Sum of electronic and zero-point Energies=           -613.277899
 Sum of electronic and thermal Energies=              -613.263204
 Sum of electronic and thermal Enthalpies=            -613.262260
 Sum of electronic and thermal Free Energies=         -613.320958

                     E (Thermal)             CV                S
                      KCal/Mol        Cal/Mol-Kelvin    Cal/Mol-Kelvin
 Total                  171.087             53.221            123.540
 Electronic               0.000              0.000              0.000
 Translational            0.889              2.981             41.664
 Rotational               0.889              2.981             32.187
 Vibrational            169.309             47.260             49.689
 Vibration     1          0.594              1.982              5.469
 Vibration     2          0.596              1.977              4.719
 Vibration     3          0.597              1.972              4.341
 Vibration     4          0.599              1.965              4.009
 Vibration     5          0.603              1.952              3.537
 Vibration     6          0.606              1.942              3.285
 Vibration     7          0.609              1.933              3.111
 Vibration     8          0.618              1.904              2.687
 Vibration     9          0.626              1.876              2.403
 Vibration    10          0.636              1.845              2.167
 Vibration    11          0.652              1.795              1.878
 Vibration    12          0.685              1.696              1.487
 Vibration    13          0.703              1.644              1.332
 Vibration    14          0.732              1.561              1.135
 Vibration    15          0.778              1.438              0.910
 Vibration    16          0.782              1.430              0.896
 Vibration    17          0.795              1.394              0.843
 Vibration    18          0.833              1.303              0.720
 Vibration    19          0.921              1.107              0.514
 Vibration    20          0.972              1.004              0.428

 Optimization completed.
    -- Stationary point found.
 Normal termination of Gaussian 16 at Thu Mar 25 12:35:30 2021.
