 Gaussian 16, Revision A.03,
 Gaussian 16:  ES64L-G16RevA.03 25-Dec-2016

 ----------------------------------------------------------------------
 # wB97XD def2tzvp, opt=(ts, noeigen, calcfc, maxcycles=70, maxstep=1),
  freq=noraman, scrf=(iefpcm, solvent=water)
 ----------------------------------------------------------------------

 ------------------------
 0_iteration/TS-252-0.out
 ------------------------
 Symbolic Z-matrix:
 Charge =  0 Multiplicity = 1

 SCF Done:  E(RwB97XD) =  -402.347153926     A.U. after   14 cycles
 SCF Done:  E(RwB97XD) =  -402.347135875     A.U. after   10 cycles
 SCF Done:  E(RwB97XD) =  -402.347121304     A.U. after   10 cycles
 SCF Done:  E(RwB97XD) =  -402.347110260     A.U. after   10 cycles
 SCF Done:  E(RwB97XD) =  -402.347102825     A.U. after   10 cycles
 SCF Done:  E(RwB97XD) =  -402.347099421     A.U. after   10 cycles
 SCF Done:  E(RwB97XD) =  -402.347102406     A.U. after   10 cycles
 SCF Done:  E(RwB97XD) =  -402.347117673     A.U. after    9 cycles
 SCF Done:  E(RwB97XD) =  -402.347143889     A.U. after    9 cycles
 SCF Done:  E(RwB97XD) =  -402.347179150     A.U. after    9 cycles
 SCF Done:  E(RwB97XD) =  -402.349854363     A.U. after   10 cycles
 SCF Done:  E(RwB97XD) =  -402.349907292     A.U. after   10 cycles
 SCF Done:  E(RwB97XD) =  -402.349953196     A.U. after   10 cycles
 SCF Done:  E(RwB97XD) =  -402.349991025     A.U. after    9 cycles
 SCF Done:  E(RwB97XD) =  -402.350019477     A.U. after   10 cycles
 SCF Done:  E(RwB97XD) =  -402.350039557     A.U. after   10 cycles
 SCF Done:  E(RwB97XD) =  -402.350052932     A.U. after   10 cycles
 SCF Done:  E(RwB97XD) =  -402.350059320     A.U. after   10 cycles
 SCF Done:  E(RwB97XD) =  -402.350059799     A.U. after    9 cycles
 Optimization completed.
    -- Stationary point found.
 Normal termination of Gaussian 16 at Wed Feb 10 03:14:00 2021.

 ---------------------------------------------------------------------
 #N Geom=AllCheck Guess=TCheck SCRF=Check GenChk RwB97XD/def2TZVP Freq
 ---------------------------------------------------------------------

 Structure from the checkpoint file:  "/beegfs/scratch/user/q/tla25/Gau-47337.chk"
 ------------------------
 0_iteration/TS-252-0.out
 ------------------------
 Charge =  0 Multiplicity = 1

                         Standard orientation:
 ---------------------------------------------------------------------
 Center     Atomic      Atomic             Coordinates (Angstroms)
 Number     Number       Type             X           Y           Z
 ---------------------------------------------------------------------
      1          6           0        0.166791    0.236622    0.970224
      2          6           0       -0.957272    0.276309    0.098559
      3          8           0       -1.069949    0.932309   -0.933379
      4          6           0        1.289273    1.005662    0.694919
      5          6           0        2.725228   -1.217930   -0.190036
      6          1           0        3.197016   -1.780107   -0.995753
      7          1           0        3.371197   -1.232138    0.686320
      8          1           0        1.774311   -1.687194    0.067683
      9          7           0        2.461317    0.164018   -0.566466
     10          1           0        3.312226    0.705052   -0.662689
     11          1           0        1.951704    0.218106   -1.439955
     12          1           0        2.041851    1.105143    1.468172
     13          1           0        1.164496    1.889864    0.080591
     14          1           0        0.161784   -0.467091    1.790366
     15          8           0       -1.976173   -0.524203    0.522315
     16          6           0       -3.140080   -0.546341   -0.288075
     17          1           0       -3.828334   -1.236854    0.194434
     18          1           0       -3.596299    0.442590   -0.352572
     19          1           0       -2.913835   -0.896266   -1.296359
 ---------------------------------------------------------------------

 SCF Done:  E(RwB97XD) =  -402.350059799     A.U. after    1 cycles

 The electronic state is 1-A.
 Alpha  occ. eigenvalues --  -19.27283 -19.20368 -14.47648 -10.38422 -10.32190
 Alpha  occ. eigenvalues --  -10.31983 -10.31237 -10.24156  -1.18357  -1.08799
 Alpha  occ. eigenvalues --   -1.03085  -0.87136  -0.81221  -0.78383  -0.71218
 Alpha  occ. eigenvalues --   -0.63366  -0.62266  -0.58733  -0.56404  -0.55764
 Alpha  occ. eigenvalues --   -0.55345  -0.52509  -0.51550  -0.47961  -0.47292
 Alpha  occ. eigenvalues --   -0.46896  -0.45210  -0.42642  -0.42109  -0.37314
 Alpha  occ. eigenvalues --   -0.34573  -0.27252
 Alpha virt. eigenvalues --    0.07025   0.10629   0.13643   0.14145   0.15739
 Alpha virt. eigenvalues --    0.16785   0.17227   0.18015   0.19203   0.19377
 Alpha virt. eigenvalues --    0.20473   0.20709   0.21614   0.23167   0.23664

 Mulliken charges:
               1
     1  C   -0.474337
     2  C    0.442986
     3  O   -0.538793
     4  C   -0.142414
     5  C   -0.273017
     6  H    0.148126
     7  H    0.147850
     8  H    0.141674
     9  N   -0.326743
    10  H    0.281290
    11  H    0.277874
    12  H    0.157251
    13  H    0.155122
    14  H    0.131860
    15  O   -0.319877
    16  C   -0.182773
    17  H    0.133335
    18  H    0.120580
    19  H    0.120007
 Sum of Mulliken charges =  -0.00000

 Dipole moment (field-independent basis, Debye):
    X=              7.2149    Y=             -1.7501    Z=             -0.9879  Tot=              7.4896
 Quadrupole moment (field-independent basis, Debye-Ang):
   XX=            -28.2434   YY=            -50.0792   ZZ=            -51.3620
   XY=              4.0403   XZ=             -2.9800   YZ=              2.2384

  Exact polarizability: 146.090   3.662  91.280  -1.827  -2.175  96.223
 Approx polarizability: 103.328   3.744  77.223  -1.546  -4.446  83.216

 ******    1 imaginary frequencies (negative Signs) ******

                      1                      2                      3
                      A                      A                      A
 Frequencies --   -369.9280                47.8221                77.1090
 Red. masses --      6.1212                 3.0582                 4.9153
 Frc consts  --      0.4935                 0.0041                 0.0172
 IR Inten    --    927.6899                 0.5715                16.1644

                      4                      5                      6
                      A                      A                      A
 Frequencies --     84.7135               134.1437               162.3836
 Red. masses --      2.0935                 1.8392                 1.3518
 Frc consts  --      0.0089                 0.0195                 0.0210
 IR Inten    --     19.9476                14.2723                 4.4031

                      7                      8                      9
                      A                      A                      A
 Frequencies --    183.0786               228.5359               257.0583
 Red. masses --      1.2954                 3.0562                 2.5376
 Frc consts  --      0.0256                 0.0940                 0.0988
 IR Inten    --      5.5682                 5.1010                37.1421

                     10                     11                     12
                      A                      A                      A
 Frequencies --    352.1280               414.6724               504.0356
 Red. masses --      3.4696                 3.1286                 2.7063
 Frc consts  --      0.2535                 0.3170                 0.4051
 IR Inten    --     18.1836                20.9930                 5.8011

                     13                     14                     15
                      A                      A                      A
 Frequencies --    651.6972               678.9268               722.8160
 Red. masses --      1.2332                 3.3323                 1.4871
 Frc consts  --      0.3086                 0.9050                 0.4578
 IR Inten    --     39.8602                 4.5796                75.8046

                     16                     17                     18
                      A                      A                      A
 Frequencies --    802.4396               858.5731               987.4347
 Red. masses --      8.8847                 2.5629                 1.3703
 Frc consts  --      3.3707                 1.1131                 0.7872
 IR Inten    --     75.6264                58.6526               139.0687

                     19                     20                     21
                      A                      A                      A
 Frequencies --    997.6267              1052.1847              1061.1206
 Red. masses --      1.1093                 1.6057                 3.4456
 Frc consts  --      0.6505                 1.0474                 2.2858
 IR Inten    --     20.6198                13.5420               167.6449

                     22                     23                     24
                      A                      A                      A
 Frequencies --   1088.6033              1166.3688              1181.4152
 Red. masses --      3.0480                 1.1443                 1.2836
 Frc consts  --      2.1282                 0.9172                 1.0556
 IR Inten    --     19.7352                18.5307                 1.7896

                     25                     26                     27
                      A                      A                      A
 Frequencies --   1190.4659              1211.6828              1214.0075
 Red. masses --      1.7954                 1.4679                 1.5136
 Frc consts  --      1.4991                 1.2698                 1.3144
 IR Inten    --    785.5463                25.2372                 9.4496

                     28                     29                     30
                      A                      A                      A
 Frequencies --   1234.4822              1271.4814              1347.6199
 Red. masses --      1.8723                 1.7165                 1.3231
 Frc consts  --      1.6811                 1.6350                 1.4157
 IR Inten    --    157.0570                 7.6140                 1.1076

                     31                     32                     33
                      A                      A                      A
 Frequencies --   1430.9230              1453.1349              1477.5375
 Red. masses --      1.4223                 1.1742                 1.1553
 Frc consts  --      1.7158                 1.4609                 1.4860
 IR Inten    --    271.0089                 3.8444                42.2893

                     34                     35                     36
                      A                      A                      A
 Frequencies --   1481.0193              1492.7780              1497.3150
 Red. masses --      1.0834                 1.0394                 1.0696
 Frc consts  --      1.4001                 1.3646                 1.4128
 IR Inten    --     15.6647                15.6829                31.0305

                     37                     38                     39
                      A                      A                      A
 Frequencies --   1502.3678              1529.6729              1649.3170
 Red. masses --      1.0385                 2.3208                 1.0898
 Frc consts  --      1.3810                 3.1995                 1.7467
 IR Inten    --     17.6310               508.9306                63.1206

                     40                     41                     42
                      A                      A                      A
 Frequencies --   1681.7350              3054.5085              3059.4782
 Red. masses --      9.6272                 1.0310                 1.0332
 Frc consts  --     16.0422                 5.6677                 5.6981
 IR Inten    --    657.4134                68.7713                42.9878

                     43                     44                     45
                      A                      A                      A
 Frequencies --   3126.1952              3135.9142              3144.9195
 Red. masses --      1.1062                 1.1041                 1.0590
 Frc consts  --      6.3698                 6.3974                 6.1710
 IR Inten    --     47.3615                11.1788                44.1744

                     46                     47                     48
                      A                      A                      A
 Frequencies --   3155.2933              3160.5989              3214.8499
 Red. masses --      1.1056                 1.1048                 1.0952
 Frc consts  --      6.4853                 6.5022                 6.6689
 IR Inten    --     19.1296                31.3633                 2.6869

                     49                     50                     51
                      A                      A                      A
 Frequencies --   3232.4773              3533.5127              3617.6482
 Red. masses --      1.1115                 1.0503                 1.0967
 Frc consts  --      6.8427                 7.7266                 8.4565
 IR Inten    --     15.4990                29.7861                42.3265

 - Thermochemistry -
 -------------------
 Temperature   298.150 Kelvin.  Pressure   1.00000 Atm.
 Atom     1 has atomic number  6 and mass  12.00000

 Molecular mass:   117.07898 amu.
 Principal axes and moments of inertia in atomic units:
                           1         2         3
     Eigenvalues --   436.187391922.190271983.27579
           X            0.99999  -0.00071   0.00432
           Y            0.00027   0.99484   0.10149
           Z           -0.00437  -0.10149   0.99483
 This molecule is an asymmetric top.
 Rotational symmetry number  1.
 Warning -- assumption of classical behavior for rotation
           may cause significant error
 Rotational temperatures (Kelvin)      0.19857     0.04506     0.04367
 Rotational constants (GHZ):           4.13754     0.93890     0.90998
    1 imaginary frequencies ignored.
 Zero-point vibrational energy     429434.4 (Joules/Mol)
                                  102.63728 (Kcal/Mol)
 Warning -- explicit consideration of  11 degrees of freedom as
           vibrations may cause significant error
 Vibrational temperatures:     68.81   110.94   121.88   193.00   233.63
          (Kelvin)            263.41   328.81   369.85   506.63   596.62
                              725.19   937.65   976.82  1039.97  1154.53
                             1235.30  1420.70  1435.36  1513.86  1526.72
                             1566.26  1678.14  1699.79  1712.81  1743.34
                             1746.69  1776.14  1829.38  1938.92  2058.78
                             2090.74  2125.85  2130.86  2147.77  2154.30
                             2161.57  2200.86  2373.00  2419.64  4394.76
                             4401.91  4497.90  4511.88  4524.84  4539.76
                             4547.40  4625.45  4650.81  5083.94  5204.99

 Zero-point correction=                           0.163563 (Hartree/Particle)
 Thermal correction to Energy=                    0.173360
 Thermal correction to Enthalpy=                  0.174304
 Thermal correction to Gibbs Free Energy=         0.127789
 Sum of electronic and zero-point Energies=           -402.186497
 Sum of electronic and thermal Energies=              -402.176700
 Sum of electronic and thermal Enthalpies=            -402.175755
 Sum of electronic and thermal Free Energies=         -402.222271

                     E (Thermal)             CV                S
                      KCal/Mol        Cal/Mol-Kelvin    Cal/Mol-Kelvin
 Total                  108.785             33.064             97.900
 Electronic               0.000              0.000              0.000
 Translational            0.889              2.981             40.188
 Rotational               0.889              2.981             28.899
 Vibrational            107.008             27.103             28.813
 Vibration     1          0.595              1.978              4.905
 Vibration     2          0.599              1.964              3.963
 Vibration     3          0.601              1.960              3.779
 Vibration     4          0.613              1.919              2.886
 Vibration     5          0.622              1.889              2.522
 Vibration     6          0.631              1.863              2.297
 Vibration     7          0.651              1.797              1.890
 Vibration     8          0.667              1.751              1.682
 Vibration     9          0.729              1.571              1.157
 Vibration    10          0.778              1.438              0.910
 Vibration    11          0.859              1.241              0.648

 Optimization completed.
    -- Stationary point found.
 Normal termination of Gaussian 16 at Wed Feb 10 03:20:52 2021.
