 Gaussian 16, Revision A.03,
 Gaussian 16:  ES64L-G16RevA.03 25-Dec-2016

 ----------------------------------------------------------------------
 # wB97XD def2tzvp, opt=(ts, noeigen, calcfc, maxcycles=70, maxstep=8),
  freq=noraman, scrf=(iefpcm, solvent=water)
 ----------------------------------------------------------------------

 ------------------------
 1_iteration/TS-235-1.out
 ------------------------
 Symbolic Z-matrix:
 Charge =  0 Multiplicity = 1

 SCF Done:  E(RwB97XD) =  -1033.82613472     A.U. after   15 cycles
 SCF Done:  E(RwB97XD) =  -1033.82846574     A.U. after   13 cycles
 SCF Done:  E(RwB97XD) =  -1033.83053556     A.U. after   13 cycles
 SCF Done:  E(RwB97XD) =  -1033.83213291     A.U. after   13 cycles
 SCF Done:  E(RwB97XD) =  -1033.83304837     A.U. after   12 cycles
 SCF Done:  E(RwB97XD) =  -1033.83353709     A.U. after   12 cycles
 SCF Done:  E(RwB97XD) =  -1033.83370235     A.U. after   13 cycles
 SCF Done:  E(RwB97XD) =  -1033.83376531     A.U. after   12 cycles
 SCF Done:  E(RwB97XD) =  -1033.83372927     A.U. after   12 cycles
 SCF Done:  E(RwB97XD) =  -1033.83380823     A.U. after   12 cycles
 SCF Done:  E(RwB97XD) =  -1033.83518513     A.U. after   13 cycles
 SCF Done:  E(RwB97XD) =  -1033.83538734     A.U. after   12 cycles
 SCF Done:  E(RwB97XD) =  -1033.83538815     A.U. after   12 cycles
 SCF Done:  E(RwB97XD) =  -1033.83539333     A.U. after   10 cycles
 SCF Done:  E(RwB97XD) =  -1033.83539549     A.U. after   10 cycles
 SCF Done:  E(RwB97XD) =  -1033.83539674     A.U. after    9 cycles
 SCF Done:  E(RwB97XD) =  -1033.83539666     A.U. after    8 cycles
 SCF Done:  E(RwB97XD) =  -1033.83539684     A.U. after    7 cycles
 SCF Done:  E(RwB97XD) =  -1033.83539685     A.U. after    7 cycles
 Optimization completed.
    -- Stationary point found.
 Normal termination of Gaussian 16 at Wed Feb 10 13:23:59 2021.

 ---------------------------------------------------------------------
 #N Geom=AllCheck Guess=TCheck SCRF=Check GenChk RwB97XD/def2TZVP Freq
 ---------------------------------------------------------------------

 Structure from the checkpoint file:  "/beegfs/scratch/user/q/tla25/Gau-23263.chk"
 ------------------------
 1_iteration/TS-235-1.out
 ------------------------
 Charge =  0 Multiplicity = 1

                         Standard orientation:
 ---------------------------------------------------------------------
 Center     Atomic      Atomic             Coordinates (Angstroms)
 Number     Number       Type             X           Y           Z
 ---------------------------------------------------------------------
      1          6           0       -1.255757   -0.271894   -0.451807
      2          6           0       -1.555125   -1.118654    0.672396
      3          8           0       -0.837564   -1.117274    1.688355
      4          6           0       -0.148276    0.573865   -0.504398
      5          6           0       -1.566013    2.465381    1.085829
      6          1           0       -1.742594    2.917864    2.062514
      7          1           0       -1.610262    3.235619    0.317862
      8          1           0       -2.348271    1.730682    0.893993
      9          7           0       -0.277227    1.792423    1.023940
     10          1           0        0.501369    2.435339    1.092148
     11          1           0       -0.192127    1.084762    1.748346
     12          1           0       -0.226688    1.333006   -1.276417
     13          6           0        1.271976    0.143002   -0.314931
     14          6           0        2.284725    1.091981   -0.453779
     15          6           0        3.618928    0.734728   -0.346112
     16          6           0        3.964322   -0.587797   -0.108702
     17          6           0        2.966135   -1.544941    0.005042
     18          6           0        1.632020   -1.183972   -0.102644
     19          1           0        2.027880    2.124699   -0.662147
     20          1           0        4.388196    1.488345   -0.456572
     21          1           0        5.005427   -0.872946   -0.025945
     22          1           0        3.226785   -2.582407    0.172848
     23          1           0        0.864417   -1.940235   -0.028324
     24         17           0       -2.571177    0.076250   -1.591360
     25          7           0       -2.649363   -1.927491    0.614916
     26          1           0       -3.321599   -1.829016   -0.123995
     27          1           0       -2.953494   -2.348485    1.474609
 ---------------------------------------------------------------------

 SCF Done:  E(RwB97XD) =  -1033.83539685     A.U. after    1 cycles

 The electronic state is 1-A.
 Alpha  occ. eigenvalues -- -101.68739 -19.20221 -14.47354 -14.43850 -10.38222
 Alpha  occ. eigenvalues --  -10.34588 -10.31298 -10.30593 -10.30505 -10.29414
 Alpha  occ. eigenvalues --  -10.29212 -10.29154 -10.29091 -10.29030  -9.57269
 Alpha  occ. eigenvalues --   -7.31880  -7.31088  -7.31038  -1.12694  -1.03015
 Alpha  occ. eigenvalues --   -0.99765  -0.97286  -0.95204  -0.88639  -0.85372
 Alpha  occ. eigenvalues --   -0.82135  -0.78384  -0.75199  -0.70771  -0.69430
 Alpha  occ. eigenvalues --   -0.64960  -0.62737  -0.62254  -0.60051  -0.56695
 Alpha  occ. eigenvalues --   -0.56475  -0.55528  -0.53970  -0.53308  -0.51685
 Alpha  occ. eigenvalues --   -0.50989  -0.50089  -0.49163  -0.47873  -0.47398
 Alpha  occ. eigenvalues --   -0.47147  -0.43957  -0.43219  -0.42520  -0.41339
 Alpha  occ. eigenvalues --   -0.39940  -0.35243  -0.34693  -0.33732  -0.32806
 Alpha  occ. eigenvalues --   -0.26768
 Alpha virt. eigenvalues --    0.01784   0.05244   0.08017   0.10488   0.12005
 Alpha virt. eigenvalues --    0.12990   0.13748   0.14872   0.15732   0.16437
 Alpha virt. eigenvalues --    0.17210   0.17504   0.18211   0.18887   0.19503

 Mulliken charges:
               1
     1  C   -0.202711
     2  C    0.302929
     3  O   -0.556831
     4  C    0.082162
     5  C   -0.280409
     6  H    0.148350
     7  H    0.149882
     8  H    0.151287
     9  N   -0.345287
    10  H    0.274221
    11  H    0.276175
    12  H    0.167262
    13  C    0.137070
    14  C   -0.301665
    15  C   -0.131848
    16  C   -0.154559
    17  C   -0.123838
    18  C   -0.205659
    19  H    0.160776
    20  H    0.144450
    21  H    0.145228
    22  H    0.142836
    23  H    0.160087
    24  Cl  -0.194767
    25  N   -0.475605
    26  H    0.262459
    27  H    0.268003
 Sum of Mulliken charges =   0.00000

 Dipole moment (field-independent basis, Debye):
    X=              0.8386    Y=              5.1458    Z=              1.0722  Tot=              5.3228
 Quadrupole moment (field-independent basis, Debye-Ang):
   XX=            -77.8602   YY=            -75.1231   ZZ=            -97.5277
   XY=              3.6679   XZ=             -4.7220   YZ=              4.4836

  Exact polarizability: 254.627  15.693 222.506  10.414  -5.989 159.658
 Approx polarizability: 193.491  10.817 183.518  10.624  -6.408 141.191

 ******    1 imaginary frequencies (negative Signs) ******

                      1                      2                      3
                      A                      A                      A
 Frequencies --   -379.0031                45.8120                67.5162
 Red. masses --      5.3616                 4.1178                 3.1255
 Frc consts  --      0.4538                 0.0051                 0.0084
 IR Inten    --    818.7776                 1.7321                 2.8085

                      4                      5                      6
                      A                      A                      A
 Frequencies --     77.8082                83.5108                99.4296
 Red. masses --      6.2714                 3.6922                 2.9013
 Frc consts  --      0.0224                 0.0152                 0.0169
 IR Inten    --     11.5897                 2.0372                12.9787

                      7                      8                      9
                      A                      A                      A
 Frequencies --    137.2305               154.3454               208.7851
 Red. masses --      3.9679                 4.0766                 1.3342
 Frc consts  --      0.0440                 0.0572                 0.0343
 IR Inten    --     44.1754                14.5421                11.5511

                     10                     11                     12
                      A                      A                      A
 Frequencies --    220.9629               233.6929               264.4240
 Red. masses --      4.3660                 6.3478                 2.1689
 Frc consts  --      0.1256                 0.2043                 0.0893
 IR Inten    --      5.7514                 1.4010               161.0334

                     13                     14                     15
                      A                      A                      A
 Frequencies --    278.5534               307.1054               338.0081
 Red. masses --      1.6843                 5.0756                 4.7980
 Frc consts  --      0.0770                 0.2820                 0.3230
 IR Inten    --    176.3386                 4.6489                18.1433

                     16                     17                     18
                      A                      A                      A
 Frequencies --    411.1313               425.8571               463.0703
 Red. masses --      3.5321                 2.9401                 4.3416
 Frc consts  --      0.3518                 0.3142                 0.5485
 IR Inten    --     21.0720                 0.1241                27.5336

                     19                     20                     21
                      A                      A                      A
 Frequencies --    519.8099               532.8406               556.2242
 Red. masses --      1.4258                 2.7278                 2.3831
 Frc consts  --      0.2270                 0.4563                 0.4344
 IR Inten    --      6.9176                90.8812                14.6728

                     22                     23                     24
                      A                      A                      A
 Frequencies --    623.2452               637.7620               664.1240
 Red. masses --      6.2096                 6.3020                 1.6383
 Frc consts  --      1.4211                 1.5102                 0.4257
 IR Inten    --     32.0584                 0.3968                79.6855

                     25                     26                     27
                      A                      A                      A
 Frequencies --    728.1566               770.8530               780.2963
 Red. masses --      1.6825                 2.5716                 7.0300
 Frc consts  --      0.5256                 0.9003                 2.5219
 IR Inten    --     73.2812                21.6774                74.0098

                     28                     29                     30
                      A                      A                      A
 Frequencies --    815.8446               849.2744               880.6406
 Red. masses --      2.8978                 4.8912                 1.2430
 Frc consts  --      1.1364                 2.0786                 0.5680
 IR Inten    --     30.7625                27.2468                 0.4439

                     31                     32                     33
                      A                      A                      A
 Frequencies --    966.4496               988.4247              1002.9401
 Red. masses --      1.4051                 1.1376                 2.2890
 Frc consts  --      0.7733                 0.6548                 1.3566
 IR Inten    --     10.1126               110.1094                12.4064

                     34                     35                     36
                      A                      A                      A
 Frequencies --   1016.5181              1027.9041              1031.3979
 Red. masses --      1.3550                 4.5339                 1.4034
 Frc consts  --      0.8249                 2.8224                 0.8796
 IR Inten    --      1.3601                 0.2915                 1.4081

                     37                     38                     39
                      A                      A                      A
 Frequencies --   1049.4714              1065.5628              1086.8643
 Red. masses --      1.2911                 2.0598                 3.4736
 Frc consts  --      0.8378                 1.3780                 2.4176
 IR Inten    --     53.9409                12.7728                87.5083

                     40                     41                     42
                      A                      A                      A
 Frequencies --   1094.0433              1113.3322              1120.7058
 Red. masses --      1.9093                 1.2804                 1.5760
 Frc consts  --      1.3465                 0.9350                 1.1663
 IR Inten    --     38.4062                37.8845                24.3023

                     43                     44                     45
                      A                      A                      A
 Frequencies --   1184.2204              1205.5205              1213.0195
 Red. masses --      1.1342                 1.4062                 1.2977
 Frc consts  --      0.9371                 1.2041                 1.1250
 IR Inten    --      0.2126                27.7378                 7.3134

                     46                     47                     48
                      A                      A                      A
 Frequencies --   1219.0081              1286.3429              1337.2080
 Red. masses --      2.4033                 1.7786                 3.9544
 Frc consts  --      2.1041                 1.7340                 4.1660
 IR Inten    --     15.5179                 8.6553                 8.7948

                     49                     50                     51
                      A                      A                      A
 Frequencies --   1349.2702              1365.4302              1412.7248
 Red. masses --      1.3194                 1.4189                 3.7285
 Frc consts  --      1.4152                 1.5586                 4.3843
 IR Inten    --      3.8261                 4.5284               976.9481

                     52                     53                     54
                      A                      A                      A
 Frequencies --   1448.7886              1468.8051              1490.5478
 Red. masses --      1.8917                 1.5456                 1.0406
 Frc consts  --      2.3394                 1.9647                 1.3621
 IR Inten    --    117.0532                76.1295                15.6277

                     55                     56                     57
                      A                      A                      A
 Frequencies --   1504.2362              1508.4383              1546.9788
 Red. masses --      2.0884                 1.1061                 2.3727
 Frc consts  --      2.7842                 1.4829                 3.3456
 IR Inten    --    121.0970                 2.8641                21.7395

                     58                     59                     60
                      A                      A                      A
 Frequencies --   1602.7467              1633.1209              1652.8663
 Red. masses --      1.7240                 1.3821                 2.3226
 Frc consts  --      2.6092                 2.1719                 3.7385
 IR Inten    --    261.4240               441.1299                81.7250

                     61                     62                     63
                      A                      A                      A
 Frequencies --   1656.1768              1675.9633              3062.8509
 Red. masses --      3.5479                 5.8348                 1.0336
 Frc consts  --      5.7337                 9.6561                 5.7130
 IR Inten    --     76.1492                 0.3154                49.6242

                     64                     65                     66
                      A                      A                      A
 Frequencies --   3137.2805              3159.8117              3169.1721
 Red. masses --      1.1036                 1.1054                 1.0886
 Frc consts  --      6.3999                 6.5027                 6.4416
 IR Inten    --     15.2208                19.9333                 3.3359

                     67                     68                     69
                      A                      A                      A
 Frequencies --   3184.3938              3198.4140              3208.7758
 Red. masses --      1.0887                 1.0876                 1.0927
 Frc consts  --      6.5043                 6.5552                 6.6288
 IR Inten    --     11.2076                 0.4335                26.4192

                     70                     71                     72
                      A                      A                      A
 Frequencies --   3221.2311              3251.2630              3495.3115
 Red. masses --      1.0978                 1.0915                 1.0548
 Frc consts  --      6.7116                 6.7980                 7.5926
 IR Inten    --     25.2481                 7.4342                35.3753

                     73                     74                     75
                      A                      A                      A
 Frequencies --   3603.6845              3624.8958              3748.8795
 Red. masses --      1.0929                 1.0455                 1.1043
 Frc consts  --      8.3624                 8.0938                 9.1437
 IR Inten    --     75.6045                85.6865                85.3958

 - Thermochemistry -
 -------------------
 Temperature   298.150 Kelvin.  Pressure   1.00000 Atm.
 Atom     1 has atomic number  6 and mass  12.00000

 Molecular mass:   212.07164 amu.
 Principal axes and moments of inertia in atomic units:
                           1         2         3
     Eigenvalues --  1916.085404550.331895053.68127
           X            0.99982  -0.00416  -0.01868
           Y            0.00496   0.99905   0.04329
           Z            0.01849  -0.04338   0.99889
 This molecule is an asymmetric top.
 Rotational symmetry number  1.
 Warning -- assumption of classical behavior for rotation
           may cause significant error
 Rotational temperatures (Kelvin)      0.04520     0.01903     0.01714
 Rotational constants (GHZ):           0.94189     0.39662     0.35711
    1 imaginary frequencies ignored.
 Zero-point vibrational energy     577600.8 (Joules/Mol)
                                  138.04990 (Kcal/Mol)
 Warning -- explicit consideration of  20 degrees of freedom as
           vibrations may cause significant error
 Vibrational temperatures:     65.91    97.14   111.95   120.15   143.06
          (Kelvin)            197.44   222.07   300.40   317.92   336.23
                              380.45   400.78   441.86   486.32   591.53
                              612.71   666.25   747.89   766.64   800.28
                              896.71   917.60   955.53  1047.65  1109.09
                             1122.67  1173.82  1221.92  1267.05  1390.51
                             1422.12  1443.01  1462.54  1478.92  1483.95
                             1509.96  1533.11  1563.76  1574.08  1601.84
                             1612.45  1703.83  1734.48  1745.26  1753.88
                             1850.76  1923.94  1941.30  1964.55  2032.60
                             2084.48  2113.28  2144.57  2164.26  2170.31
                             2225.76  2305.99  2349.70  2378.11  2382.87
                             2411.34  4406.76  4513.85  4546.26  4559.73
                             4581.63  4601.80  4616.71  4634.63  4677.84
                             5028.97  5184.90  5215.42  5393.80

 Zero-point correction=                           0.219997 (Hartree/Particle)
 Thermal correction to Energy=                    0.234189
 Thermal correction to Enthalpy=                  0.235133
 Thermal correction to Gibbs Free Energy=         0.178291
 Sum of electronic and zero-point Energies=          -1033.615400
 Sum of electronic and thermal Energies=             -1033.601208
 Sum of electronic and thermal Enthalpies=           -1033.600263
 Sum of electronic and thermal Free Energies=        -1033.657106

                     E (Thermal)             CV                S
                      KCal/Mol        Cal/Mol-Kelvin    Cal/Mol-Kelvin
 Total                  146.956             52.257            119.635
 Electronic               0.000              0.000              0.000
 Translational            0.889              2.981             41.959
 Rotational               0.889              2.981             32.155
 Vibrational            145.179             46.295             45.521
 Vibration     1          0.595              1.979              4.990
 Vibration     2          0.598              1.970              4.224
 Vibration     3          0.599              1.964              3.945
 Vibration     4          0.600              1.961              3.807
 Vibration     5          0.604              1.950              3.465
 Vibration     6          0.614              1.916              2.842
 Vibration     7          0.620              1.898              2.618
 Vibration     8          0.642              1.827              2.054
 Vibration     9          0.648              1.809              1.951
 Vibration    10          0.654              1.789              1.850
 Vibration    11          0.671              1.738              1.632
 Vibration    12          0.679              1.713              1.543
 Vibration    13          0.697              1.660              1.378
 Vibration    14          0.718              1.600              1.222
 Vibration    15          0.775              1.446              0.923
 Vibration    16          0.788              1.414              0.872
 Vibration    17          0.821              1.332              0.757
 Vibration    18          0.875              1.206              0.610
 Vibration    19          0.888              1.177              0.581
 Vibration    20          0.912              1.126              0.531

 Optimization completed.
    -- Stationary point found.
 Normal termination of Gaussian 16 at Wed Feb 10 14:10:11 2021.
