 Gaussian 16, Revision A.03,
 Gaussian 16:  ES64L-G16RevA.03 25-Dec-2016

 ----------------------------------------------------------------------
 # wB97XD def2tzvp, opt=(ts, noeigen, calcfc, maxcycles=70, maxstep=1),
  freq=noraman, scrf=(iefpcm, solvent=water)
 ----------------------------------------------------------------------

 ------------------------
 0_iteration/TS-297-0.out
 ------------------------
 Symbolic Z-matrix:
 Charge =  0 Multiplicity = 1

 SCF Done:  E(RwB97XD) =  -366.420079519     A.U. after   14 cycles
 SCF Done:  E(RwB97XD) =  -366.420023029     A.U. after   10 cycles
 SCF Done:  E(RwB97XD) =  -366.419970477     A.U. after   10 cycles
 SCF Done:  E(RwB97XD) =  -366.419921990     A.U. after   10 cycles
 SCF Done:  E(RwB97XD) =  -366.419877757     A.U. after   10 cycles
 SCF Done:  E(RwB97XD) =  -366.419838081     A.U. after   10 cycles
 SCF Done:  E(RwB97XD) =  -366.419803450     A.U. after   10 cycles
 SCF Done:  E(RwB97XD) =  -366.419774545     A.U. after   10 cycles
 SCF Done:  E(RwB97XD) =  -366.419752284     A.U. after   10 cycles
 SCF Done:  E(RwB97XD) =  -366.419737997     A.U. after   10 cycles
 SCF Done:  E(RwB97XD) =  -366.420524904     A.U. after   10 cycles
 SCF Done:  E(RwB97XD) =  -366.420539749     A.U. after   10 cycles
 SCF Done:  E(RwB97XD) =  -366.420548983     A.U. after   10 cycles
 SCF Done:  E(RwB97XD) =  -366.420555835     A.U. after   11 cycles
 SCF Done:  E(RwB97XD) =  -366.420561107     A.U. after   11 cycles
 SCF Done:  E(RwB97XD) =  -366.420563196     A.U. after   11 cycles
 SCF Done:  E(RwB97XD) =  -366.420563423     A.U. after    8 cycles
 SCF Done:  E(RwB97XD) =  -366.420563449     A.U. after    7 cycles
 SCF Done:  E(RwB97XD) =  -366.420563457     A.U. after    6 cycles
 Optimization completed.
    -- Stationary point found.
 Normal termination of Gaussian 16 at Tue Feb  9 07:14:08 2021.

 ---------------------------------------------------------------------
 #N Geom=AllCheck Guess=TCheck SCRF=Check GenChk RwB97XD/def2TZVP Freq
 ---------------------------------------------------------------------

 Structure from the checkpoint file:  "/beegfs/scratch/user/q/tla25/Gau-114366.chk"
 ------------------------
 0_iteration/TS-297-0.out
 ------------------------
 Charge =  0 Multiplicity = 1

                         Standard orientation:
 ---------------------------------------------------------------------
 Center     Atomic      Atomic             Coordinates (Angstroms)
 Number     Number       Type             X           Y           Z
 ---------------------------------------------------------------------
      1          6           0       -0.901438   -0.190840    0.324902
      2          6           0       -1.801524    0.607507   -0.398848
      3          8           0       -2.947247    0.281982   -0.761491
      4          6           0        0.391032    0.262591    0.641865
      5          6           0        3.047769   -0.449538   -0.361627
      6          1           0        3.198380   -0.856137    0.638087
      7          1           0        3.622819   -1.041820   -1.074534
      8          1           0        3.411017    0.575452   -0.382875
      9          7           0        1.618195   -0.464539   -0.667733
     10          1           0        1.407850    0.027805   -1.528430
     11          1           0        1.274499   -1.411909   -0.769297
     12          1           0        0.881146   -0.289644    1.440926
     13          6           0        0.801756    1.711551    0.609910
     14          1           0        0.261933    2.252956    1.388125
     15          1           0        1.866164    1.816686    0.814392
     16          1           0        0.586951    2.190730   -0.343902
     17          6           0       -1.300325   -1.601430    0.672765
     18          1           0       -0.626603   -2.028599    1.419121
     19          1           0       -2.315252   -1.637724    1.075294
     20          1           0       -1.288613   -2.268440   -0.197257
     21          1           0       -1.453303    1.627514   -0.647391
 ---------------------------------------------------------------------

 SCF Done:  E(RwB97XD) =  -366.420563457     A.U. after    1 cycles

 The electronic state is 1-A.
 Alpha  occ. eigenvalues --  -19.19142 -14.47866 -10.33669 -10.32544 -10.31752
 Alpha  occ. eigenvalues --  -10.28067 -10.26403 -10.24734  -1.08911  -1.03372
 Alpha  occ. eigenvalues --   -0.90623  -0.83009  -0.78872  -0.74949  -0.71185
 Alpha  occ. eigenvalues --   -0.62650  -0.59659  -0.57656  -0.54626  -0.54343
 Alpha  occ. eigenvalues --   -0.52868  -0.49698  -0.48795  -0.48346  -0.47602
 Alpha  occ. eigenvalues --   -0.45708  -0.44310  -0.43394  -0.42907  -0.40928
 Alpha  occ. eigenvalues --   -0.30886  -0.26290
 Alpha virt. eigenvalues --    0.05454   0.09862   0.12778   0.13408   0.14782
 Alpha virt. eigenvalues --    0.16365   0.16763   0.17831   0.18121   0.19223
 Alpha virt. eigenvalues --    0.19941   0.20479   0.21493   0.21735   0.23081

 Mulliken charges:
               1
     1  C   -0.068389
     2  C    0.068120
     3  O   -0.559546
     4  C   -0.060895
     5  C   -0.285166
     6  H    0.149435
     7  H    0.153345
     8  H    0.153900
     9  N   -0.330023
    10  H    0.276388
    11  H    0.281951
    12  H    0.147102
    13  C   -0.363335
    14  H    0.149918
    15  H    0.141777
    16  H    0.139132
    17  C   -0.397377
    18  H    0.121658
    19  H    0.115686
    20  H    0.115553
    21  H    0.050768
 Sum of Mulliken charges =  -0.00000

 Dipole moment (field-independent basis, Debye):
    X=             12.3113    Y=             -0.8383    Z=              0.1601  Tot=             12.3408
 Quadrupole moment (field-independent basis, Debye-Ang):
   XX=            -65.6191   YY=            -47.5272   ZZ=            -49.7184
   XY=             -0.7910   XZ=             -8.2121   YZ=              1.1288

  Exact polarizability: 175.529  -5.565 110.624   8.106  -2.059  99.574
 Approx polarizability: 127.836  -3.355  88.593   6.909  -1.312  85.459

 ******    1 imaginary frequencies (negative Signs) ******

                      1                      2                      3
                      A                      A                      A
 Frequencies --   -365.9489                52.3373                76.5560
 Red. masses --      6.0085                 2.5300                 2.3287
 Frc consts  --      0.4741                 0.0041                 0.0080
 IR Inten    --   1077.1287                 4.5830                 4.1606

                      4                      5                      6
                      A                      A                      A
 Frequencies --     86.0356               132.0833               167.2131
 Red. masses --      1.1337                 2.4350                 1.1909
 Frc consts  --      0.0049                 0.0250                 0.0196
 IR Inten    --      2.6918                 5.4055                 1.4209

                      7                      8                      9
                      A                      A                      A
 Frequencies --    202.2098               224.0237               254.0865
 Red. masses --      1.9471                 1.6979                 2.4071
 Frc consts  --      0.0469                 0.0502                 0.0916
 IR Inten    --      7.3981                 0.5842                11.3385

                     10                     11                     12
                      A                      A                      A
 Frequencies --    282.5873               328.8916               346.7493
 Red. masses --      2.3192                 2.8070                 2.2769
 Frc consts  --      0.1091                 0.1789                 0.1613
 IR Inten    --      4.5814                10.3768                29.2997

                     13                     14                     15
                      A                      A                      A
 Frequencies --    479.4548               492.4575               635.3829
 Red. masses --      3.0892                 2.9263                 1.6202
 Frc consts  --      0.4184                 0.4181                 0.3854
 IR Inten    --    106.4521                96.3506                41.8850

                     16                     17                     18
                      A                      A                      A
 Frequencies --    678.2893               819.0130               966.3956
 Red. masses --      2.3589                 2.8170                 1.6255
 Frc consts  --      0.6394                 1.1133                 0.8944
 IR Inten    --     13.1951                 9.2056               104.2392

                     19                     20                     21
                      A                      A                      A
 Frequencies --    988.0732              1015.7456              1029.7355
 Red. masses --      1.2345                 1.3711                 1.3188
 Frc consts  --      0.7101                 0.8335                 0.8239
 IR Inten    --     51.3592                 2.9846                34.9187

                     22                     23                     24
                      A                      A                      A
 Frequencies --   1039.7268              1057.0441              1070.0846
 Red. masses --      1.2453                 1.5411                 2.1918
 Frc consts  --      0.7932                 1.0145                 1.4787
 IR Inten    --     20.5298                29.0448                29.8551

                     25                     26                     27
                      A                      A                      A
 Frequencies --   1078.0173              1127.6564              1189.3061
 Red. masses --      1.8221                 2.5377                 1.1748
 Frc consts  --      1.2476                 1.9013                 0.9790
 IR Inten    --    240.6329                31.8078               213.8779

                     28                     29                     30
                      A                      A                      A
 Frequencies --   1223.3840              1288.2295              1344.5220
 Red. masses --      1.4238                 1.6370                 1.3163
 Frc consts  --      1.2555                 1.6006                 1.4019
 IR Inten    --     16.5485                11.2385                 0.6740

                     31                     32                     33
                      A                      A                      A
 Frequencies --   1372.1050              1408.4719              1412.4200
 Red. masses --      1.5914                 1.2579                 1.2587
 Frc consts  --      1.7652                 1.4703                 1.4795
 IR Inten    --    468.0274                35.7568                14.5534

                     34                     35                     36
                      A                      A                      A
 Frequencies --   1452.6939              1461.1609              1468.9520
 Red. masses --      2.1723                 1.2073                 1.0607
 Frc consts  --      2.7009                 1.5187                 1.3485
 IR Inten    --     17.9752                19.3356                11.0898

                     37                     38                     39
                      A                      A                      A
 Frequencies --   1478.2312              1492.2842              1494.8085
 Red. masses --      1.1747                 1.0784                 1.1170
 Frc consts  --      1.5124                 1.4150                 1.4706
 IR Inten    --     30.1756                17.1914                29.3043

                     40                     41                     42
                      A                      A                      A
 Frequencies --   1497.1173              1508.0578              1539.2268
 Red. masses --      1.0556                 1.0403                 2.1698
 Frc consts  --      1.3940                 1.3940                 3.0288
 IR Inten    --     34.3706                16.5782               219.9971

                     43                     44                     45
                      A                      A                      A
 Frequencies --   1634.1599              1645.5267              2933.1828
 Red. masses --      3.8887                 1.1649                 1.0805
 Frc consts  --      6.1186                 1.8585                 5.4772
 IR Inten    --   1219.4636                37.2530               176.1165

                     46                     47                     48
                      A                      A                      A
 Frequencies --   3013.4366              3065.3031              3071.3948
 Red. masses --      1.0457                 1.0346                 1.0374
 Frc consts  --      5.5950                 5.7278                 5.7660
 IR Inten    --     78.9272                60.5780                19.2693

                     49                     50                     51
                      A                      A                      A
 Frequencies --   3072.4204              3110.6304              3126.4940
 Red. masses --      1.0894                 1.1019                 1.0905
 Frc consts  --      6.0591                 6.2818                 6.2806
 IR Inten    --     52.0511                35.4501                31.2466

                     52                     53                     54
                      A                      A                      A
 Frequencies --   3139.3890              3141.0513              3157.9380
 Red. masses --      1.1040                 1.1005                 1.1023
 Frc consts  --      6.4106                 6.3973                 6.4769
 IR Inten    --     20.9540                18.2404                44.9512

                     55                     56                     57
                      A                      A                      A
 Frequencies --   3167.5870              3526.4847              3608.6050
 Red. masses --      1.1045                 1.0511                 1.0961
 Frc consts  --      6.5294                 7.7016                 8.4094
 IR Inten    --     14.8958                16.7496                40.2760

 - Thermochemistry -
 -------------------
 Temperature   298.150 Kelvin.  Pressure   1.00000 Atm.
 Atom     1 has atomic number  6 and mass  12.00000

 Molecular mass:   115.09971 amu.
 Principal axes and moments of inertia in atomic units:
                           1         2         3
     Eigenvalues --   566.614691664.446281887.19973
           X            0.99981   0.01349  -0.01441
           Y           -0.01361   0.99988  -0.00783
           Z            0.01430   0.00802   0.99987
 This molecule is an asymmetric top.
 Rotational symmetry number  1.
 Warning -- assumption of classical behavior for rotation
           may cause significant error
 Rotational temperatures (Kelvin)      0.15286     0.05204     0.04590
 Rotational constants (GHZ):           3.18513     1.08429     0.95631
    1 imaginary frequencies ignored.
 Zero-point vibrational energy     488521.5 (Joules/Mol)
                                  116.75945 (Kcal/Mol)
 Warning -- explicit consideration of  13 degrees of freedom as
           vibrations may cause significant error
 Vibrational temperatures:     75.30   110.15   123.79   190.04   240.58
          (Kelvin)            290.93   322.32   365.57   406.58   473.20
                              498.89   689.83   708.54   914.17   975.91
                             1178.38  1390.43  1421.62  1461.43  1481.56
                             1495.93  1520.85  1539.61  1551.03  1622.45
                             1711.15  1760.18  1853.47  1934.47  1974.15
                             2026.48  2032.16  2090.10  2102.28  2113.49
                             2126.84  2147.06  2150.70  2154.02  2169.76
                             2214.60  2351.19  2367.55  4220.20  4335.66
                             4410.29  4419.05  4420.53  4475.50  4498.33
                             4516.88  4519.27  4543.57  4557.45  5073.82
                             5191.98

 Zero-point correction=                           0.186068 (Hartree/Particle)
 Thermal correction to Energy=                    0.196537
 Thermal correction to Enthalpy=                  0.197482
 Thermal correction to Gibbs Free Energy=         0.149975
 Sum of electronic and zero-point Energies=           -366.234495
 Sum of electronic and thermal Energies=              -366.224026
 Sum of electronic and thermal Enthalpies=            -366.223082
 Sum of electronic and thermal Free Energies=         -366.270589

                     E (Thermal)             CV                S
                      KCal/Mol        Cal/Mol-Kelvin    Cal/Mol-Kelvin
 Total                  123.329             35.812             99.987
 Electronic               0.000              0.000              0.000
 Translational            0.889              2.981             40.137
 Rotational               0.889              2.981             28.966
 Vibrational            121.552             29.850             30.883
 Vibration     1          0.596              1.977              4.727
 Vibration     2          0.599              1.965              3.977
 Vibration     3          0.601              1.959              3.748
 Vibration     4          0.612              1.921              2.915
 Vibration     5          0.624              1.883              2.467
 Vibration     6          0.639              1.837              2.113
 Vibration     7          0.649              1.804              1.926
 Vibration     8          0.665              1.756              1.702
 Vibration     9          0.682              1.706              1.518
 Vibration    10          0.712              1.618              1.266
 Vibration    11          0.725              1.582              1.181
 Vibration    12          0.836              1.296              0.712
 Vibration    13          0.848              1.267              0.677

 Optimization completed.
    -- Stationary point found.
 Normal termination of Gaussian 16 at Tue Feb  9 07:22:59 2021.
