 Gaussian 16, Revision A.03,
 Gaussian 16:  ES64L-G16RevA.03 25-Dec-2016

 ----------------------------------------------------------------------
 # wB97XD def2tzvp, opt=(ts, noeigen, calcfc, maxcycles=70, maxstep=5),
  freq=noraman, scrf=(iefpcm, solvent=water)
 ----------------------------------------------------------------------

 ------------------------
 2_iteration/TS-287-2.out
 ------------------------
 Symbolic Z-matrix:
 Charge =  0 Multiplicity = 1

 SCF Done:  E(RwB97XD) =  -844.592482319     A.U. after   14 cycles
 SCF Done:  E(RwB97XD) =  -844.592482328     A.U. after    6 cycles
 Optimization completed.
    -- Stationary point found.
 Normal termination of Gaussian 16 at Thu Feb 11 10:21:53 2021.

 ---------------------------------------------------------------------
 #N Geom=AllCheck Guess=TCheck SCRF=Check GenChk RwB97XD/def2TZVP Freq
 ---------------------------------------------------------------------

 Structure from the checkpoint file:  "/beegfs/scratch/user/q/tla25/Gau-93698.chk"
 ------------------------
 2_iteration/TS-287-2.out
 ------------------------
 Charge =  0 Multiplicity = 1

                         Standard orientation:
 ---------------------------------------------------------------------
 Center     Atomic      Atomic             Coordinates (Angstroms)
 Number     Number       Type             X           Y           Z
 ---------------------------------------------------------------------
      1          6           0        1.189991   -0.332520   -0.479345
      2          6           0       -0.141474   -0.878951   -0.345905
      3          8           0       -0.380089   -2.066928   -0.089378
      4          6           0        2.273310   -1.205877   -0.666326
      5          6           0        3.775557   -2.878372    1.299947
      6          1           0        3.894179   -3.131912    2.355069
      7          1           0        3.628452   -3.796668    0.735360
      8          1           0        4.685364   -2.392661    0.948490
      9          7           0        2.641210   -1.986606    1.076414
     10          1           0        1.749256   -2.436817    1.251805
     11          1           0        2.691622   -1.161051    1.659949
     12          1           0        3.232775   -0.702852   -0.742159
     13          6           0        2.224465   -2.455157   -1.502607
     14          1           0        2.154643   -2.153142   -2.550203
     15          1           0        3.136973   -3.040416   -1.393526
     16          1           0        1.362593   -3.071515   -1.264724
     17          6           0        1.476703    1.089900   -0.186294
     18          6           0        0.863630    1.771771    0.874995
     19          6           0        1.160873    3.096087    1.156390
     20          6           0        2.098697    3.782786    0.397809
     21          6           0        2.726196    3.126247   -0.651722
     22          6           0        2.411009    1.808305   -0.943807
     23          1           0        0.148881    1.248146    1.498939
     24          1           0        0.667711    3.589121    1.985510
     25          1           0        2.335942    4.815317    0.620504
     26          1           0        3.454939    3.648721   -1.259793
     27          1           0        2.888953    1.324948   -1.787973
     28          7           0       -1.177231    0.020875   -0.543981
     29          6           0       -2.533040   -0.094976   -0.244323
     30          6           0       -3.154578   -1.285695    0.139998
     31          6           0       -4.514160   -1.295491    0.419747
     32          6           0       -5.280555   -0.144789    0.319515
     33          6           0       -4.664324    1.038253   -0.067760
     34          6           0       -3.309891    1.065547   -0.344137
     35          1           0       -0.884469    0.948999   -0.800253
     36          1           0       -2.569515   -2.187524    0.212721
     37          1           0       -4.978189   -2.228009    0.717832
     38          1           0       -6.340443   -0.167352    0.536916
     39          1           0       -5.241120    1.950889   -0.153300
     40          1           0       -2.840142    1.996913   -0.640218
 ---------------------------------------------------------------------

 SCF Done:  E(RwB97XD) =  -844.592482328     A.U. after    1 cycles

 The electronic state is 1-A.
 Alpha  occ. eigenvalues --  -19.20102 -14.47066 -14.45637 -10.37743 -10.33538
 Alpha  occ. eigenvalues --  -10.33257 -10.31417 -10.29734 -10.28894 -10.28736
 Alpha  occ. eigenvalues --  -10.28604 -10.28562 -10.28549 -10.28193 -10.28166
 Alpha  occ. eigenvalues --  -10.28103 -10.28039 -10.27918 -10.27168 -10.25278
 Alpha  occ. eigenvalues --   -1.12777  -1.03446  -1.02640  -0.96317  -0.95083
 Alpha  occ. eigenvalues --   -0.90356  -0.85494  -0.84882  -0.84449  -0.84101
 Alpha  occ. eigenvalues --   -0.79171  -0.78092  -0.73363  -0.71329  -0.69773
 Alpha  occ. eigenvalues --   -0.69104  -0.67543  -0.64293  -0.62215  -0.61973
 Alpha  occ. eigenvalues --   -0.61203  -0.58040  -0.56627  -0.55897  -0.54929
 Alpha  occ. eigenvalues --   -0.53872  -0.53288  -0.52672  -0.52436  -0.51619
 Alpha  occ. eigenvalues --   -0.50946  -0.50506  -0.49987  -0.49349  -0.48724
 Alpha  occ. eigenvalues --   -0.47751  -0.47074  -0.45968  -0.45746  -0.44638
 Alpha  occ. eigenvalues --   -0.44465  -0.42621  -0.42220  -0.41989  -0.40566
 Alpha  occ. eigenvalues --   -0.38991  -0.34902  -0.33599  -0.33343  -0.32795
 Alpha  occ. eigenvalues --   -0.29820  -0.25031
 Alpha virt. eigenvalues --    0.04462   0.05053   0.05434   0.05756   0.08953
 Alpha virt. eigenvalues --    0.10220   0.12534   0.13417   0.13686   0.14408
 Alpha virt. eigenvalues --    0.14605   0.15260   0.16325   0.16867   0.17248

 Mulliken charges:
               1
     1  C   -0.131887
     2  C    0.383237
     3  O   -0.567047
     4  C   -0.024858
     5  C   -0.288958
     6  H    0.148041
     7  H    0.153647
     8  H    0.149613
     9  N   -0.336657
    10  H    0.271110
    11  H    0.275977
    12  H    0.143783
    13  C   -0.375610
    14  H    0.134635
    15  H    0.134569
    16  H    0.148746
    17  C    0.101197
    18  C   -0.293004
    19  C   -0.129648
    20  C   -0.167061
    21  C   -0.143347
    22  C   -0.270293
    23  H    0.148285
    24  H    0.138097
    25  H    0.139915
    26  H    0.137208
    27  H    0.148111
    28  N   -0.259960
    29  C    0.294551
    30  C   -0.305401
    31  C   -0.109187
    32  C   -0.201006
    33  C   -0.097526
    34  C   -0.316725
    35  H    0.251297
    36  H    0.156303
    37  H    0.139474
    38  H    0.139069
    39  H    0.141770
    40  H    0.139539
 Sum of Mulliken charges =  -0.00000

 Dipole moment (field-independent basis, Debye):
    X=              6.7318    Y=             -0.3808    Z=              2.4097  Tot=              7.1602
 Quadrupole moment (field-independent basis, Debye-Ang):
   XX=           -100.6720   YY=           -110.6845   ZZ=           -116.6504
   XY=            -16.4744   XZ=              2.1693   YZ=             -6.0071

  Exact polarizability: 380.294  -7.464 358.079 -24.285  -6.136 231.229
 Approx polarizability: 275.637  -0.018 280.117 -22.377  -5.832 200.687

 ******    1 imaginary frequencies (negative Signs) ******

                      1                      2                      3
                      A                      A                      A
 Frequencies --   -370.3315                20.1589                27.8790
 Red. masses --      6.2392                 3.7853                 4.6808
 Frc consts  --      0.5042                 0.0009                 0.0021
 IR Inten    --   1158.5783                 2.1144                 0.8877

                      4                      5                      6
                      A                      A                      A
 Frequencies --     36.7201                48.1406                49.8409
 Red. masses --      3.3891                 4.1257                 4.3836
 Frc consts  --      0.0027                 0.0056                 0.0064
 IR Inten    --      5.1347                 4.0590                 4.8250

                      7                      8                      9
                      A                      A                      A
 Frequencies --     72.5208                89.1605               120.7292
 Red. masses --      2.3043                 3.1628                 4.3714
 Frc consts  --      0.0071                 0.0148                 0.0375
 IR Inten    --      1.0561                20.0468                 1.2791

                     10                     11                     12
                      A                      A                      A
 Frequencies --    135.7982               153.3410               185.6885
 Red. masses --      3.6039                 1.0986                 2.7667
 Frc consts  --      0.0392                 0.0152                 0.0562
 IR Inten    --      2.9159                 0.4169                 7.1218

                     13                     14                     15
                      A                      A                      A
 Frequencies --    209.4161               221.3112               237.8965
 Red. masses --      1.8911                 4.6533                 2.2947
 Frc consts  --      0.0489                 0.1343                 0.0765
 IR Inten    --     27.5143                 5.3845                 5.9080

                     16                     17                     18
                      A                      A                      A
 Frequencies --    257.7328               261.4516               321.9732
 Red. masses --      4.2064                 3.8772                 2.7616
 Frc consts  --      0.1646                 0.1562                 0.1687
 IR Inten    --     22.0575                36.1261                 9.6845

                     19                     20                     21
                      A                      A                      A
 Frequencies --    363.1800               389.1076               423.3388
 Red. masses --      7.2097                 4.0927                 3.1477
 Frc consts  --      0.5603                 0.3651                 0.3324
 IR Inten    --      9.2051                16.7273                 0.5571

                     22                     23                     24
                      A                      A                      A
 Frequencies --    425.3131               426.6991               480.1053
 Red. masses --      3.5462                 3.0489                 4.3591
 Frc consts  --      0.3779                 0.3271                 0.5920
 IR Inten    --      0.9593                 3.2767                66.3072

                     25                     26                     27
                      A                      A                      A
 Frequencies --    490.2387               530.4035               564.8481
 Red. masses --      4.3251                 2.8133                 3.0139
 Frc consts  --      0.6124                 0.4663                 0.5666
 IR Inten    --     14.6029                40.1783                41.7862

                     28                     29                     30
                      A                      A                      A
 Frequencies --    590.2849               631.1067               636.5642
 Red. masses --      1.2545                 2.3753                 4.7127
 Frc consts  --      0.2575                 0.5574                 1.1251
 IR Inten    --    106.4385                29.4914                 3.7494

                     31                     32                     33
                      A                      A                      A
 Frequencies --    639.2067               655.5701               685.5794
 Red. masses --      6.1587                 2.0282                 5.3363
 Frc consts  --      1.4826                 0.5136                 1.4778
 IR Inten    --      1.7099                 5.0500                19.2848

                     34                     35                     36
                      A                      A                      A
 Frequencies --    719.4340               728.8013               780.7877
 Red. masses --      1.8758                 1.5840                 4.7471
 Frc consts  --      0.5720                 0.4957                 1.7051
 IR Inten    --     69.0174                82.9915                33.3063

                     37                     38                     39
                      A                      A                      A
 Frequencies --    783.1888               796.6414               850.3689
 Red. masses --      1.8903                 2.7089                 3.6988
 Frc consts  --      0.6832                 1.0129                 1.5759
 IR Inten    --    100.8583                97.7080                 2.1601

                     40                     41                     42
                      A                      A                      A
 Frequencies --    861.8622               874.2767               878.5352
 Red. masses --      1.2625                 1.4934                 3.1130
 Frc consts  --      0.5525                 0.6725                 1.4156
 IR Inten    --      0.2113                 3.0174                 1.5720

                     43                     44                     45
                      A                      A                      A
 Frequencies --    930.2156               943.1556               960.1662
 Red. masses --      1.4758                 1.5299                 1.8083
 Frc consts  --      0.7524                 0.8018                 0.9822
 IR Inten    --     15.5398                 4.0526                74.3238

                     46                     47                     48
                      A                      A                      A
 Frequencies --    996.8405              1000.8355              1009.2677
 Red. masses --      1.6423                 1.3439                 1.3870
 Frc consts  --      0.9615                 0.7931                 0.8324
 IR Inten    --     17.0386                 0.0471                 0.7878

                     49                     50                     51
                      A                      A                      A
 Frequencies --   1012.9784              1015.7137              1019.0714
 Red. masses --      1.9421                 1.2825                 1.6015
 Frc consts  --      1.1741                 0.7796                 0.9799
 IR Inten    --     13.3767                 1.1812                 2.8352

                     52                     53                     54
                      A                      A                      A
 Frequencies --   1020.1752              1022.2962              1035.9387
 Red. masses --      2.9328                 4.9148                 1.2223
 Frc consts  --      1.7984                 3.0263                 0.7728
 IR Inten    --      6.8941                 5.3107               113.4135

                     55                     56                     57
                      A                      A                      A
 Frequencies --   1049.9163              1062.6670              1068.3234
 Red. masses --      1.6115                 1.9456                 1.9053
 Frc consts  --      1.0466                 1.2945                 1.2812
 IR Inten    --     67.3623                21.1610                28.5725

                     58                     59                     60
                      A                      A                      A
 Frequencies --   1072.4645              1112.9500              1118.1397
 Red. masses --      3.1736                 1.5819                 1.5150
 Frc consts  --      2.1506                 1.1544                 1.1159
 IR Inten    --    281.9906                14.0161                25.2190

                     61                     62                     63
                      A                      A                      A
 Frequencies --   1150.0484              1165.7889              1180.6433
 Red. masses --      2.2483                 1.3540                 1.1232
 Frc consts  --      1.7520                 1.0842                 0.9225
 IR Inten    --     14.3970               241.4874                 4.8424

                     64                     65                     66
                      A                      A                      A
 Frequencies --   1182.4811              1204.6559              1207.9621
 Red. masses --      1.1237                 1.3243                 1.3293
 Frc consts  --      0.9257                 1.1323                 1.1428
 IR Inten    --      4.3550                61.5194                27.7731

                     67                     68                     69
                      A                      A                      A
 Frequencies --   1214.6293              1220.2726              1274.3020
 Red. masses --      1.1411                 2.1243                 2.5690
 Frc consts  --      0.9919                 1.8637                 2.4579
 IR Inten    --     11.6520                91.3605               375.8961

                     70                     71                     72
                      A                      A                      A
 Frequencies --   1303.3530              1305.9062              1342.5088
 Red. masses --      3.6405                 2.7191                 2.2655
 Frc consts  --      3.6436                 2.7321                 2.4058
 IR Inten    --     78.6186                56.3980               337.2031

                     73                     74                     75
                      A                      A                      A
 Frequencies --   1345.4420              1351.6144              1360.3924
 Red. masses --      1.5562                 2.1123                 1.7823
 Frc consts  --      1.6598                 2.2736                 1.9434
 IR Inten    --    175.8035               177.9294                 1.7410

                     76                     77                     78
                      A                      A                      A
 Frequencies --   1379.4264              1400.7682              1451.5422
 Red. masses --      1.8978                 1.2706                 1.3557
 Frc consts  --      2.1277                 1.4689                 1.6830
 IR Inten    --    343.2656                13.4095                65.8223

                     79                     80                     81
                      A                      A                      A
 Frequencies --   1467.4567              1474.2664              1487.7893
 Red. masses --      1.3298                 1.9584                 1.8657
 Frc consts  --      1.6872                 2.5078                 2.4332
 IR Inten    --     12.6247               361.0233                11.6016

                     82                     83                     84
                      A                      A                      A
 Frequencies --   1492.6689              1494.3048              1502.3642
 Red. masses --      1.1073                 1.0593                 1.3074
 Frc consts  --      1.4536                 1.3936                 1.7386
 IR Inten    --     19.7289                14.5767               150.1568

                     85                     86                     87
                      A                      A                      A
 Frequencies --   1509.7215              1539.0663              1545.4900
 Red. masses --      1.2444                 2.2946                 2.5247
 Frc consts  --      1.6710                 3.2023                 3.5529
 IR Inten    --    134.3928               114.9227               288.9284

                     88                     89                     90
                      A                      A                      A
 Frequencies --   1561.1787              1635.8328              1649.0363
 Red. masses --      2.0487                 5.4362                 1.1166
 Frc consts  --      2.9419                 8.5709                 1.7890
 IR Inten    --    474.8190                61.6760                52.4779

                     91                     92                     93
                      A                      A                      A
 Frequencies --   1651.9101              1661.6056              1670.5337
 Red. masses --      6.2373                 4.4005                 4.8154
 Frc consts  --     10.0281                 7.1583                 7.9176
 IR Inten    --    471.7585               192.1452                11.6143

                     94                     95                     96
                      A                      A                      A
 Frequencies --   1680.5657              3059.4923              3066.1341
 Red. masses --      5.7858                 1.0363                 1.0420
 Frc consts  --      9.6278                 5.7155                 5.7714
 IR Inten    --    366.4063                75.3015                31.1398

                     97                     98                     99
                      A                      A                      A
 Frequencies --   3130.0344              3133.9538              3159.3264
 Red. masses --      1.0981                 1.1021                 1.0893
 Frc consts  --      6.3383                 6.3774                 6.4062
 IR Inten    --     38.6979                23.9682                20.4752

                    100                    101                    102
                      A                      A                      A
 Frequencies --   3164.2393              3184.0989              3184.6961
 Red. masses --      1.1041                 1.0857                 1.0878
 Frc consts  --      6.5134                 6.4854                 6.5005
 IR Inten    --     15.8128                15.4460                14.9882

                    103                    104                    105
                      A                      A                      A
 Frequencies --   3187.2396              3193.5394              3194.6597
 Red. masses --      1.0875                 1.0986                 1.0883
 Frc consts  --      6.5091                 6.6013                 6.5439
 IR Inten    --      1.2040                 9.8667                 3.5505

                    106                    107                    108
                      A                      A                      A
 Frequencies --   3198.5462              3203.7825              3204.2759
 Red. masses --      1.0910                 1.0948                 1.0931
 Frc consts  --      6.5763                 6.6209                 6.6126
 IR Inten    --      9.2878                54.9804                30.6737

                    109                    110                    111
                      A                      A                      A
 Frequencies --   3217.3105              3220.4969              3271.8480
 Red. masses --      1.0985                 1.0978                 1.0920
 Frc consts  --      6.6996                 6.7083                 6.8876
 IR Inten    --     22.9704                24.4185                 5.5909

                    112                    113                    114
                      A                      A                      A
 Frequencies --   3522.5287              3607.6272              3637.2612
 Red. masses --      1.0518                 1.0957                 1.0763
 Frc consts  --      7.6895                 8.4018                 8.3894
 IR Inten    --     18.3972                47.3479                68.8946

 - Thermochemistry -
 -------------------
 Temperature   298.150 Kelvin.  Pressure   1.00000 Atm.
 Atom     1 has atomic number  6 and mass  12.00000

 Molecular mass:   268.15756 amu.
 Principal axes and moments of inertia in atomic units:
                           1         2         3
     Eigenvalues --  4211.757568020.12110**********
           X            0.99949  -0.03186  -0.00082
           Y            0.03186   0.99949  -0.00318
           Z            0.00092   0.00315   0.99999
 This molecule is an asymmetric top.
 Rotational symmetry number  1.
 Warning -- assumption of classical behavior for rotation
           may cause significant error
 Rotational temperatures (Kelvin)      0.02056     0.01080     0.00782
 Rotational constants (GHZ):           0.42850     0.22503     0.16295
    1 imaginary frequencies ignored.
 Zero-point vibrational energy     890697.2 (Joules/Mol)
                                  212.88173 (Kcal/Mol)
 Warning -- explicit consideration of  27 degrees of freedom as
           vibrations may cause significant error
 Vibrational temperatures:     29.00    40.11    52.83    69.26    71.71
          (Kelvin)            104.34   128.28   173.70   195.38   220.62
                              267.16   301.30   318.42   342.28   370.82
                              376.17   463.25   522.54   559.84   609.09
                              611.93   613.92   690.76   705.34   763.13
                              812.69   849.29   908.02   915.87   919.68
                              943.22   986.40  1035.11  1048.58  1123.38
                             1126.83  1146.19  1223.49  1240.03  1257.89
                             1264.02  1338.37  1356.99  1381.47  1434.23
                             1439.98  1452.11  1457.45  1461.39  1466.22
                             1467.80  1470.86  1490.48  1510.60  1528.94
                             1537.08  1543.04  1601.29  1608.75  1654.66
                             1677.31  1698.68  1701.33  1733.23  1737.99
                             1747.58  1755.70  1833.44  1875.23  1878.91
                             1931.57  1935.79  1944.67  1957.30  1984.69
                             2015.39  2088.45  2111.34  2121.14  2140.60
                             2147.62  2149.97  2161.57  2172.15  2214.37
                             2223.62  2246.19  2353.60  2372.60  2376.73
                             2390.68  2403.53  2417.96  4401.93  4411.48
                             4503.42  4509.06  4545.57  4552.63  4581.21
                             4582.07  4585.73  4594.79  4596.40  4601.99
                             4609.53  4610.24  4628.99  4633.58  4707.46
                             5068.13  5190.57  5233.21

 Zero-point correction=                           0.339249 (Hartree/Particle)
 Thermal correction to Energy=                    0.358271
 Thermal correction to Enthalpy=                  0.359215
 Thermal correction to Gibbs Free Energy=         0.289171
 Sum of electronic and zero-point Energies=           -844.253234
 Sum of electronic and thermal Energies=              -844.234212
 Sum of electronic and thermal Enthalpies=            -844.233267
 Sum of electronic and thermal Free Energies=         -844.303311

                     E (Thermal)             CV                S
                      KCal/Mol        Cal/Mol-Kelvin    Cal/Mol-Kelvin
 Total                  224.818             71.873            147.420
 Electronic               0.000              0.000              0.000
 Translational            0.889              2.981             42.658
 Rotational               0.889              2.981             34.280
 Vibrational            223.041             65.911             70.481
 Vibration     1          0.593              1.986              6.618
 Vibration     2          0.593              1.984              5.975
 Vibration     3          0.594              1.982              5.429
 Vibration     4          0.595              1.978              4.892
 Vibration     5          0.595              1.978              4.824
 Vibration     6          0.599              1.967              4.084
 Vibration     7          0.602              1.957              3.678
 Vibration     8          0.609              1.932              3.089
 Vibration     9          0.614              1.918              2.862
 Vibration    10          0.619              1.899              2.630
 Vibration    11          0.632              1.859              2.270
 Vibration    12          0.642              1.826              2.049
 Vibration    13          0.648              1.809              1.948
 Vibration    14          0.656              1.783              1.819
 Vibration    15          0.667              1.750              1.677
 Vibration    16          0.669              1.743              1.652
 Vibration    17          0.707              1.631              1.300
 Vibration    18          0.737              1.548              1.108
 Vibration    19          0.757              1.493              1.004
 Vibration    20          0.785              1.419              0.881
 Vibration    21          0.787              1.415              0.874
 Vibration    22          0.788              1.412              0.870
 Vibration    23          0.836              1.294              0.710
 Vibration    24          0.846              1.272              0.683
 Vibration    25          0.885              1.183              0.586
 Vibration    26          0.921              1.107              0.514
 Vibration    27          0.948              1.052              0.467

 Optimization completed.
    -- Stationary point found.
 Normal termination of Gaussian 16 at Thu Feb 11 12:34:24 2021.
