 Gaussian 16, Revision A.03,
 Gaussian 16:  ES64L-G16RevA.03 25-Dec-2016

 ----------------------------------------------------------------------
 # wB97XD def2tzvp, opt=(ts, noeigen, calcfc, maxcycles=70, maxstep=5),
  freq=noraman, scrf=(iefpcm, solvent=water)
 ----------------------------------------------------------------------

 ------------------------
 2_iteration/TS-240-2.out
 ------------------------
 Symbolic Z-matrix:
 Charge =  0 Multiplicity = 1

 SCF Done:  E(RwB97XD) =  -1209.50128767     A.U. after   15 cycles
 SCF Done:  E(RwB97XD) =  -1209.50132164     A.U. after   12 cycles
 SCF Done:  E(RwB97XD) =  -1209.50132177     A.U. after    8 cycles
 SCF Done:  E(RwB97XD) =  -1209.50132174     A.U. after    8 cycles
 SCF Done:  E(RwB97XD) =  -1209.50132178     A.U. after    8 cycles
 Optimization completed.
    -- Stationary point found.
 Normal termination of Gaussian 16 at Thu Feb 11 05:46:23 2021.

 ---------------------------------------------------------------------
 #N Geom=AllCheck Guess=TCheck SCRF=Check GenChk RwB97XD/def2TZVP Freq
 ---------------------------------------------------------------------

 Structure from the checkpoint file:  "/beegfs/scratch/user/q/tla25/Gau-80270.chk"
 ------------------------
 2_iteration/TS-240-2.out
 ------------------------
 Charge =  0 Multiplicity = 1

                         Standard orientation:
 ---------------------------------------------------------------------
 Center     Atomic      Atomic             Coordinates (Angstroms)
 Number     Number       Type             X           Y           Z
 ---------------------------------------------------------------------
      1          6           0        0.078485    0.673288    0.450592
      2          6           0        0.817424   -0.064466   -0.525515
      3          8           0        0.313845   -0.408450   -1.600608
      4          6           0       -1.302817    0.854762    0.491559
      5          6           0       -0.816270    3.225700   -1.076694
      6          1           0       -1.016690    3.845699   -1.951510
      7          1           0       -0.737923    3.859493   -0.195816
      8          1           0        0.133795    2.709222   -1.218156
      9          7           0       -1.857219    2.230526   -0.863437
     10          1           0       -2.728707    2.641576   -0.552793
     11          1           0       -2.042177    1.703098   -1.707203
     12          1           0       -1.603489    1.477188    1.326150
     13          6           0       -2.340899   -0.181812    0.219422
     14          6           0       -2.503860   -0.871994   -0.980499
     15          6           0       -3.504856   -1.822613   -1.113721
     16          6           0       -4.357762   -2.103434   -0.056597
     17          6           0       -4.212171   -1.415081    1.138625
     18          6           0       -3.219866   -0.456931    1.269056
     19          1           0       -1.834753   -0.669150   -1.802341
     20          1           0       -3.617630   -2.347120   -2.054286
     21          1           0       -5.136028   -2.847989   -0.166116
     22          1           0       -4.876210   -1.616662    1.969524
     23          1           0       -3.121026    0.082684    2.203551
     24         17           0        0.995040    1.672040    1.596924
     25          6           0        2.245537   -0.449932   -0.264366
     26          6           0        2.629561   -1.054275    0.928590
     27          6           0        3.935234   -1.484402    1.106494
     28          6           0        4.873615   -1.293812    0.101131
     29          6           0        4.497689   -0.686779   -1.089229
     30          6           0        3.185656   -0.279052   -1.275156
     31          1           0        1.900166   -1.197379    1.716188
     32          1           0        4.221949   -1.967468    2.032041
     33          1           0        5.895813   -1.620855    0.244330
     34          1           0        5.226422   -0.536286   -1.875727
     35          1           0        2.882397    0.178178   -2.208783
 ---------------------------------------------------------------------

 SCF Done:  E(RwB97XD) =  -1209.50132178     A.U. after    1 cycles

 The electronic state is 1-A.
 Alpha  occ. eigenvalues -- -101.68621 -19.22013 -14.47369 -10.36705 -10.34788
 Alpha  occ. eigenvalues --  -10.31593 -10.31269 -10.30910 -10.29780 -10.29465
 Alpha  occ. eigenvalues --  -10.29339 -10.29269 -10.29245 -10.29235 -10.29174
 Alpha  occ. eigenvalues --  -10.29119 -10.29105 -10.29104 -10.28884  -9.57165
 Alpha  occ. eigenvalues --   -7.31790  -7.30959  -7.30937  -1.12804  -1.02922
 Alpha  occ. eigenvalues --   -0.97555  -0.96934  -0.95755  -0.88838  -0.86450
 Alpha  occ. eigenvalues --   -0.85350  -0.85294  -0.82261  -0.78426  -0.76334
 Alpha  occ. eigenvalues --   -0.71665  -0.70595  -0.70423  -0.68397  -0.63635
 Alpha  occ. eigenvalues --   -0.62776  -0.61627  -0.58691  -0.56885  -0.56537
 Alpha  occ. eigenvalues --   -0.55679  -0.54919  -0.54644  -0.53814  -0.53055
 Alpha  occ. eigenvalues --   -0.52304  -0.51193  -0.51139  -0.50002  -0.48320
 Alpha  occ. eigenvalues --   -0.47479  -0.47465  -0.46989  -0.45806  -0.44451
 Alpha  occ. eigenvalues --   -0.43912  -0.43292  -0.42747  -0.42398  -0.40729
 Alpha  occ. eigenvalues --   -0.39567  -0.34867  -0.34016  -0.33778  -0.33436
 Alpha  occ. eigenvalues --   -0.32441  -0.27742
 Alpha virt. eigenvalues --    0.00702   0.04252   0.05058   0.05219   0.07004
 Alpha virt. eigenvalues --    0.10418   0.11581   0.13020   0.13689   0.14515
 Alpha virt. eigenvalues --    0.14565   0.15480   0.15920   0.16620   0.17367

 Mulliken charges:
               1
     1  C   -0.150737
     2  C    0.278854
     3  O   -0.492294
     4  C   -0.043721
     5  C   -0.282325
     6  H    0.150009
     7  H    0.152356
     8  H    0.147997
     9  N   -0.358423
    10  H    0.282317
    11  H    0.275394
    12  H    0.166570
    13  C    0.247640
    14  C   -0.290819
    15  C   -0.139328
    16  C   -0.155514
    17  C   -0.137369
    18  C   -0.245033
    19  H    0.176148
    20  H    0.143239
    21  H    0.145379
    22  H    0.144834
    23  H    0.141802
    24  Cl  -0.171966
    25  C    0.192485
    26  C   -0.261159
    27  C   -0.129074
    28  C   -0.142970
    29  C   -0.137130
    30  C   -0.239809
    31  H    0.157399
    32  H    0.144365
    33  H    0.146163
    34  H    0.143623
    35  H    0.141096
 Sum of Mulliken charges =  -0.00000

 Dipole moment (field-independent basis, Debye):
    X=             -5.2158    Y=              4.1290    Z=             -0.3142  Tot=              6.6598
 Quadrupole moment (field-independent basis, Debye-Ang):
   XX=            -96.7816   YY=           -107.4183   ZZ=           -114.8862
   XY=             -9.5057   XZ=             -0.3989   YZ=             -9.4652

  Exact polarizability: 360.124  -1.174 254.989  -5.381  -0.089 284.120
 Approx polarizability: 264.588   2.967 208.537  -4.922   2.393 250.569

 ******    1 imaginary frequencies (negative Signs) ******

                      1                      2                      3
                      A                      A                      A
 Frequencies --   -332.1782                23.1750                31.1143
 Red. masses --      5.9377                 5.0950                 3.0650
 Frc consts  --      0.3860                 0.0016                 0.0017
 IR Inten    --    874.2868                 0.4867                 4.7127

                      4                      5                      6
                      A                      A                      A
 Frequencies --     42.9425                51.1697                65.5226
 Red. masses --      3.4759                 4.8506                 3.2570
 Frc consts  --      0.0038                 0.0075                 0.0082
 IR Inten    --      0.6642                 3.0782                19.9906

                      7                      8                      9
                      A                      A                      A
 Frequencies --     92.2580                98.7271               125.2594
 Red. masses --      5.1726                 4.7486                 5.0087
 Frc consts  --      0.0259                 0.0273                 0.0463
 IR Inten    --      5.0785                 6.8220                 7.6277

                     10                     11                     12
                      A                      A                      A
 Frequencies --    139.6874               173.8862               202.0385
 Red. masses --      4.3914                 1.1971                 4.8444
 Frc consts  --      0.0505                 0.0213                 0.1165
 IR Inten    --      0.8472                 1.6617                 1.1836

                     13                     14                     15
                      A                      A                      A
 Frequencies --    211.4226               242.9716               244.0690
 Red. masses --      6.0578                 5.0118                 3.9573
 Frc consts  --      0.1595                 0.1743                 0.1389
 IR Inten    --      4.8092                 3.2795                 9.3874

                     16                     17                     18
                      A                      A                      A
 Frequencies --    263.2758               314.9861               359.7914
 Red. masses --      5.2472                 5.5977                 8.0914
 Frc consts  --      0.2143                 0.3272                 0.6171
 IR Inten    --     13.1452                43.0063                14.1521

                     19                     20                     21
                      A                      A                      A
 Frequencies --    420.4214               422.2454               426.0206
 Red. masses --      3.3883                 3.6175                 3.1943
 Frc consts  --      0.3529                 0.3800                 0.3416
 IR Inten    --      4.6476                11.6504                 3.9193

                     22                     23                     24
                      A                      A                      A
 Frequencies --    459.9504               511.2713               557.8475
 Red. masses --      4.7484                 2.3850                 4.4785
 Frc consts  --      0.5919                 0.3673                 0.8211
 IR Inten    --     16.8517                43.0052                92.2352

                     25                     26                     27
                      A                      A                      A
 Frequencies --    574.4162               614.2800               634.1026
 Red. masses --      2.9019                 4.7157                 4.6192
 Frc consts  --      0.5641                 1.0484                 1.0943
 IR Inten    --     48.2331                30.0723                 7.7134

                     28                     29                     30
                      A                      A                      A
 Frequencies --    635.1328               652.0056               723.6469
 Red. masses --      6.2347                 3.3177                 2.2248
 Frc consts  --      1.4818                 0.8310                 0.6864
 IR Inten    --      0.6135                29.1928                41.8120

                     31                     32                     33
                      A                      A                      A
 Frequencies --    726.0317               729.5542               748.9712
 Red. masses --      1.6259                 2.9171                 3.3478
 Frc consts  --      0.5050                 0.9148                 1.1065
 IR Inten    --     67.2653                56.6869                94.0724

                     34                     35                     36
                      A                      A                      A
 Frequencies --    796.9166               821.6157               840.4401
 Red. masses --      2.0136                 3.1811                 4.7517
 Frc consts  --      0.7534                 1.2652                 1.9775
 IR Inten    --     14.4499                14.8918                35.4923

                     37                     38                     39
                      A                      A                      A
 Frequencies --    880.1199               881.6802               936.7217
 Red. masses --      1.2455                 1.2482                 4.1219
 Frc consts  --      0.5684                 0.5717                 2.1309
 IR Inten    --      1.6883                 0.8031                54.7444

                     40                     41                     42
                      A                      A                      A
 Frequencies --    966.3348               970.4385               986.0656
 Red. masses --      1.4519                 1.5594                 1.1188
 Frc consts  --      0.7988                 0.8652                 0.6409
 IR Inten    --      3.0793                 7.5343               116.3290

                     43                     44                     45
                      A                      A                      A
 Frequencies --   1007.4404              1015.1371              1018.8535
 Red. masses --      1.1587                 1.3771                 1.4023
 Frc consts  --      0.6929                 0.8361                 0.8577
 IR Inten    --     49.1604                 1.2354                15.8926

                     46                     47                     48
                      A                      A                      A
 Frequencies --   1026.1796              1026.2925              1031.4981
 Red. masses --      6.0421                 4.4034                 1.3168
 Frc consts  --      3.7487                 2.7326                 0.8255
 IR Inten    --      1.6795                 2.1079                 0.2428

                     49                     50                     51
                      A                      A                      A
 Frequencies --   1035.2910              1057.4294              1064.9982
 Red. masses --      1.3442                 2.5524                 2.2564
 Frc consts  --      0.8489                 1.6815                 1.5079
 IR Inten    --      7.4304                17.0245                10.3950

                     52                     53                     54
                      A                      A                      A
 Frequencies --   1081.4580              1098.6303              1114.1004
 Red. masses --      3.4855                 2.0677                 1.5898
 Frc consts  --      2.4018                 1.4704                 1.1627
 IR Inten    --     72.3246                23.7758                22.3999

                     55                     56                     57
                      A                      A                      A
 Frequencies --   1118.2940              1128.3325              1183.8446
 Red. masses --      1.6248                 1.3676                 1.1381
 Frc consts  --      1.1972                 1.0258                 0.9398
 IR Inten    --     18.8952                73.0726                 0.2862

                     58                     59                     60
                      A                      A                      A
 Frequencies --   1185.7695              1200.2615              1205.4585
 Red. masses --      1.1296                 1.4079                 1.1272
 Frc consts  --      0.9358                 1.1951                 0.9651
 IR Inten    --      1.2370                15.4939                 4.8226

                     61                     62                     63
                      A                      A                      A
 Frequencies --   1213.6841              1217.3483              1271.6401
 Red. masses --      3.1968                 1.1415                 2.3660
 Frc consts  --      2.7745                 0.9966                 2.2542
 IR Inten    --     50.8398                 2.9770                60.8962

                     64                     65                     66
                      A                      A                      A
 Frequencies --   1326.0506              1334.3603              1342.9454
 Red. masses --      4.2288                 4.8038                 1.3363
 Frc consts  --      4.3811                 5.0394                 1.4199
 IR Inten    --      7.8757                 4.1027                 4.4532

                     67                     68                     69
                      A                      A                      A
 Frequencies --   1357.5816              1364.8676              1404.3394
 Red. masses --      1.4922                 1.4841                 2.4669
 Frc consts  --      1.6204                 1.6289                 2.8664
 IR Inten    --     11.1217                15.2326               877.7506

                     70                     71                     72
                      A                      A                      A
 Frequencies --   1444.2721              1464.2175              1489.1666
 Red. masses --      1.7475                 1.5988                 1.0422
 Frc consts  --      2.1476                 2.0196                 1.3617
 IR Inten    --    270.6075               180.3997                11.7802

                     73                     74                     75
                      A                      A                      A
 Frequencies --   1490.7053              1501.2754              1505.5917
 Red. masses --      2.2500                 1.0411                 2.2967
 Frc consts  --      2.9459                 1.3825                 3.0674
 IR Inten    --     29.9080                25.8560               139.9336

                     76                     77                     78
                      A                      A                      A
 Frequencies --   1541.0911              1543.7990              1636.1515
 Red. masses --      2.3284                 2.3405                 5.6692
 Frc consts  --      3.2581                 3.2866                 8.9416
 IR Inten    --      4.9486                28.3453               277.9432

                     79                     80                     81
                      A                      A                      A
 Frequencies --   1643.7105              1651.2207              1657.5717
 Red. masses --      1.1971                 5.2355                 6.5559
 Frc consts  --      1.9056                 8.4105                10.6128
 IR Inten    --     27.3943                 6.6153                73.9207

                     82                     83                     84
                      A                      A                      A
 Frequencies --   1674.2333              1675.2210              3061.5169
 Red. masses --      5.8609                 5.8226                 1.0341
 Frc consts  --      9.6794                 9.6275                 5.7105
 IR Inten    --      8.7044                 3.3644                41.5196

                     85                     86                     87
                      A                      A                      A
 Frequencies --   3133.9102              3163.7831              3187.2302
 Red. masses --      1.1043                 1.1045                 1.0886
 Frc consts  --      6.3902                 6.5138                 6.5156
 IR Inten    --     16.0336                16.7462                 1.6324

                     88                     89                     90
                      A                      A                      A
 Frequencies --   3192.0922              3194.0564              3198.6922
 Red. masses --      1.0872                 1.0857                 1.0886
 Frc consts  --      6.5268                 6.5261                 6.5625
 IR Inten    --      8.3953                 0.9772                 2.3414

                     91                     92                     93
                      A                      A                      A
 Frequencies --   3200.4347              3207.5163              3209.0049
 Red. masses --      1.0880                 1.0917                 1.0933
 Frc consts  --      6.5661                 6.6177                 6.6332
 IR Inten    --      0.8212                12.5220                32.0544

                     94                     95                     96
                      A                      A                      A
 Frequencies --   3214.5433              3220.9018              3222.4242
 Red. masses --      1.0953                 1.0981                 1.0989
 Frc consts  --      6.6684                 6.7122                 6.7232
 IR Inten    --     35.5050                22.6531                18.3503

                     97                     98                     99
                      A                      A                      A
 Frequencies --   3251.7653              3539.0037              3623.0077
 Red. masses --      1.0927                 1.0502                 1.0963
 Frc consts  --      6.8073                 7.7497                 8.4783
 IR Inten    --     12.3185                45.1284                41.9112

 - Thermochemistry -
 -------------------
 Temperature   298.150 Kelvin.  Pressure   1.00000 Atm.
 Atom     1 has atomic number  6 and mass  12.00000

 Molecular mass:   273.09204 amu.
 Principal axes and moments of inertia in atomic units:
                           1         2         3
     Eigenvalues --  3245.099948800.655669719.43495
           X            0.99997  -0.00756  -0.00191
           Y            0.00740   0.99729  -0.07316
           Z            0.00246   0.07314   0.99732
 This molecule is an asymmetric top.
 Rotational symmetry number  1.
 Warning -- assumption of classical behavior for rotation
           may cause significant error
 Rotational temperatures (Kelvin)      0.02669     0.00984     0.00891
 Rotational constants (GHZ):           0.55614     0.20507     0.18568
    1 imaginary frequencies ignored.
 Zero-point vibrational energy     746282.7 (Joules/Mol)
                                  178.36585 (Kcal/Mol)
 Warning -- explicit consideration of  25 degrees of freedom as
           vibrations may cause significant error
 Vibrational temperatures:     33.34    44.77    61.78    73.62    94.27
          (Kelvin)            132.74   142.05   180.22   200.98   250.18
                              290.69   304.19   349.58   351.16   378.80
                              453.19   517.66   604.89   607.52   612.95
                              661.77   735.61   802.62   826.46   883.81
                              912.33   913.81   938.09  1041.17  1044.60
                             1049.67  1077.60  1146.59  1182.12  1209.21
                             1266.30  1268.54  1347.73  1390.34  1396.24
                             1418.73  1449.48  1460.56  1465.90  1476.44
                             1476.61  1484.10  1489.55  1521.41  1532.29
                             1555.98  1580.68  1602.94  1608.98  1623.42
                             1703.29  1706.06  1726.91  1734.39  1746.22
                             1751.49  1829.61  1907.89  1919.85  1932.20
                             1953.26  1963.74  2020.53  2077.99  2106.68
                             2142.58  2144.79  2160.00  2166.21  2217.29
                             2221.18  2354.06  2364.93  2375.74  2384.88
                             2408.85  2410.27  4404.84  4509.00  4551.98
                             4585.71  4592.71  4595.53  4602.20  4604.71
                             4614.90  4617.04  4625.01  4634.16  4636.35
                             4678.56  5091.84  5212.70

 Zero-point correction=                           0.284244 (Hartree/Particle)
 Thermal correction to Energy=                    0.301887
 Thermal correction to Enthalpy=                  0.302831
 Thermal correction to Gibbs Free Energy=         0.235977
 Sum of electronic and zero-point Energies=          -1209.217078
 Sum of electronic and thermal Energies=             -1209.199435
 Sum of electronic and thermal Enthalpies=           -1209.198491
 Sum of electronic and thermal Free Energies=        -1209.265345

                     E (Thermal)             CV                S
                      KCal/Mol        Cal/Mol-Kelvin    Cal/Mol-Kelvin
 Total                  189.437             65.628            140.706
 Electronic               0.000              0.000              0.000
 Translational            0.889              2.981             42.713
 Rotational               0.889              2.981             33.984
 Vibrational            187.659             59.667             64.009
 Vibration     1          0.593              1.985              6.342
 Vibration     2          0.594              1.983              5.757
 Vibration     3          0.595              1.980              5.118
 Vibration     4          0.595              1.977              4.772
 Vibration     5          0.597              1.971              4.284
 Vibration     6          0.602              1.955              3.612
 Vibration     7          0.604              1.950              3.479
 Vibration     8          0.610              1.928              3.018
 Vibration     9          0.615              1.914              2.808
 Vibration    10          0.627              1.875              2.393
 Vibration    11          0.639              1.837              2.114
 Vibration    12          0.643              1.823              2.031
 Vibration    13          0.659              1.774              1.781
 Vibration    14          0.659              1.773              1.773
 Vibration    15          0.670              1.740              1.640
 Vibration    16          0.702              1.645              1.336
 Vibration    17          0.734              1.555              1.123
 Vibration    18          0.783              1.426              0.891
 Vibration    19          0.785              1.422              0.884
 Vibration    20          0.788              1.414              0.872
 Vibration    21          0.818              1.339              0.766
 Vibration    22          0.866              1.225              0.631
 Vibration    23          0.913              1.123              0.528
 Vibration    24          0.931              1.087              0.496
 Vibration    25          0.974              1.002              0.426

 Optimization completed.
    -- Stationary point found.
 Normal termination of Gaussian 16 at Thu Feb 11 07:33:54 2021.
