 Gaussian 16, Revision A.03,
 Gaussian 16:  ES64L-G16RevA.03 25-Dec-2016

 ----------------------------------------------------------------------
 # wB97XD def2tzvp, opt=(ts, noeigen, calcfc, maxcycles=70, maxstep=1),
  freq=noraman, scrf=(iefpcm, solvent=water)
 ----------------------------------------------------------------------

 ------------------------
 0_iteration/TS-293-0.out
 ------------------------
 Symbolic Z-matrix:
 Charge =  0 Multiplicity = 1

 SCF Done:  E(RwB97XD) =  -421.788874877     A.U. after   14 cycles
 SCF Done:  E(RwB97XD) =  -421.788797021     A.U. after   10 cycles
 SCF Done:  E(RwB97XD) =  -421.788723096     A.U. after   10 cycles
 SCF Done:  E(RwB97XD) =  -421.788653040     A.U. after   10 cycles
 SCF Done:  E(RwB97XD) =  -421.788586898     A.U. after   10 cycles
 SCF Done:  E(RwB97XD) =  -421.788524703     A.U. after   10 cycles
 SCF Done:  E(RwB97XD) =  -421.788466497     A.U. after   10 cycles
 SCF Done:  E(RwB97XD) =  -421.788412331     A.U. after   10 cycles
 SCF Done:  E(RwB97XD) =  -421.788362261     A.U. after   10 cycles
 SCF Done:  E(RwB97XD) =  -421.788316378     A.U. after   10 cycles
 SCF Done:  E(RwB97XD) =  -421.791039039     A.U. after    9 cycles
 SCF Done:  E(RwB97XD) =  -421.791035838     A.U. after   10 cycles
 SCF Done:  E(RwB97XD) =  -421.791039623     A.U. after   10 cycles
 SCF Done:  E(RwB97XD) =  -421.791036861     A.U. after    9 cycles
 SCF Done:  E(RwB97XD) =  -421.791039076     A.U. after    9 cycles
 SCF Done:  E(RwB97XD) =  -421.791040228     A.U. after    8 cycles
 SCF Done:  E(RwB97XD) =  -421.791039504     A.U. after    8 cycles
 SCF Done:  E(RwB97XD) =  -421.791040376     A.U. after    8 cycles
 SCF Done:  E(RwB97XD) =  -421.791039641     A.U. after    8 cycles
 Optimization completed.
    -- Stationary point found.
 Normal termination of Gaussian 16 at Tue Feb  9 19:49:01 2021.

 ---------------------------------------------------------------------
 #N Geom=AllCheck Guess=TCheck SCRF=Check GenChk RwB97XD/def2TZVP Freq
 ---------------------------------------------------------------------

 Structure from the checkpoint file:  "/beegfs/scratch/user/q/tla25/Gau-17015.chk"
 ------------------------
 0_iteration/TS-293-0.out
 ------------------------
 Charge =  0 Multiplicity = 1

                         Standard orientation:
 ---------------------------------------------------------------------
 Center     Atomic      Atomic             Coordinates (Angstroms)
 Number     Number       Type             X           Y           Z
 ---------------------------------------------------------------------
      1          6           0       -0.127616   -1.245901   -0.203916
      2          6           0        1.170332   -0.663733   -0.236936
      3          8           0        2.118321   -1.180261   -0.869673
      4          6           0       -1.316330   -0.843113    0.468506
      5          6           0       -1.685913    1.314505   -1.145616
      6          1           0       -0.707277    0.998314   -1.506789
      7          1           0       -2.260556    1.733289   -1.969262
      8          1           0       -1.568174    2.070129   -0.372659
      9          7           0       -2.354817    0.139004   -0.584783
     10          1           0       -3.210549    0.394250   -0.100570
     11          1           0       -2.607741   -0.501829   -1.328954
     12          1           0       -2.018471   -1.670434    0.547370
     13          6           0       -1.323954   -0.037152    1.756093
     14          1           0       -0.619525   -0.474326    2.462530
     15          1           0       -1.050518    1.009404    1.620841
     16          1           0       -2.315800   -0.049069    2.208335
     17          1           0       -0.214762   -2.124634   -0.831754
     18          7           0        1.438995    0.490814    0.479400
     19          6           0        2.676473    1.207532    0.277525
     20          1           0        0.658262    1.050497    0.763401
     21          1           0        2.798011    1.565517   -0.750765
     22          1           0        2.692898    2.066514    0.947534
     23          1           0        3.530445    0.572913    0.511877
 ---------------------------------------------------------------------

 SCF Done:  E(RwB97XD) =  -421.791039641     A.U. after    1 cycles

 The electronic state is 1-A.
 Alpha  occ. eigenvalues --  -19.17363 -14.50228 -14.42583 -10.35082 -10.33690
 Alpha  occ. eigenvalues --  -10.32117 -10.29707 -10.28257 -10.22565  -1.09744
 Alpha  occ. eigenvalues --   -1.05615  -0.98934  -0.88756  -0.80756  -0.79721
 Alpha  occ. eigenvalues --   -0.76830  -0.68803  -0.64482  -0.64039  -0.59511
 Alpha  occ. eigenvalues --   -0.56560  -0.55491  -0.53708  -0.52245  -0.50858
 Alpha  occ. eigenvalues --   -0.49511  -0.49385  -0.47786  -0.46541  -0.44668
 Alpha  occ. eigenvalues --   -0.43766  -0.43051  -0.42117  -0.32371  -0.31396
 Alpha  occ. eigenvalues --   -0.25097
 Alpha virt. eigenvalues --    0.09301   0.10028   0.11820   0.13705   0.14689
 Alpha virt. eigenvalues --    0.15322   0.16450   0.17353   0.18099   0.18941
 Alpha virt. eigenvalues --    0.19879   0.20250   0.20822   0.21383   0.21868

 Mulliken charges:
               1
     1  C   -0.539404
     2  C    0.336722
     3  O   -0.611935
     4  C    0.009678
     5  C   -0.338427
     6  H    0.161552
     7  H    0.167366
     8  H    0.164404
     9  N   -0.213530
    10  H    0.290048
    11  H    0.286358
    12  H    0.142219
    13  C   -0.391253
    14  H    0.150200
    15  H    0.119399
    16  H    0.150764
    17  H    0.097415
    18  N   -0.303265
    19  C   -0.252243
    20  H    0.215844
    21  H    0.107749
    22  H    0.129520
    23  H    0.120818
 Sum of Mulliken charges =  -0.00000

 Dipole moment (field-independent basis, Debye):
    X=            -12.3671    Y=              6.5110    Z=              1.2900  Tot=             14.0358
 Quadrupole moment (field-independent basis, Debye-Ang):
   XX=            -48.5874   YY=            -59.4093   ZZ=            -56.6753
   XY=              8.3667   XZ=              9.1027   YZ=             -2.7723

  Exact polarizability: 162.174  -3.769 121.442  -4.454   3.187 112.911
 Approx polarizability: 121.861  -4.125  99.371  -4.651   3.626  93.889

 ******    1 imaginary frequencies (negative Signs) ******

                      1                      2                      3
                      A                      A                      A
 Frequencies --   -329.9174                64.7374                84.3073
 Red. masses --      5.8040                 3.0025                 3.5335
 Frc consts  --      0.3722                 0.0074                 0.0148
 IR Inten    --    833.5648                 1.4793                10.7463

                      4                      5                      6
                      A                      A                      A
 Frequencies --     98.8695               140.9930               162.1972
 Red. masses --      2.0668                 2.2553                 2.1139
 Frc consts  --      0.0119                 0.0264                 0.0328
 IR Inten    --      5.2530                10.3030                 0.7279

                      7                      8                      9
                      A                      A                      A
 Frequencies --    174.1617               228.9478               248.4189
 Red. masses --      1.3251                 1.2066                 1.5049
 Frc consts  --      0.0237                 0.0373                 0.0547
 IR Inten    --      4.2727                 3.1591                 3.6947

                     10                     11                     12
                      A                      A                      A
 Frequencies --    280.5694               292.4016               339.5912
 Red. masses --      2.3721                 2.1593                 2.7409
 Frc consts  --      0.1100                 0.1088                 0.1862
 IR Inten    --     15.0214                47.0233                16.9945

                     13                     14                     15
                      A                      A                      A
 Frequencies --    382.4822               442.5570               505.6976
 Red. masses --      2.2613                 1.7464                 2.9818
 Frc consts  --      0.1949                 0.2015                 0.4493
 IR Inten    --     39.3323               118.7433                78.4410

                     16                     17                     18
                      A                      A                      A
 Frequencies --    600.1389               649.3972               721.0805
 Red. masses --      2.3597                 1.3954                 2.6284
 Frc consts  --      0.5007                 0.3467                 0.8052
 IR Inten    --     35.2753                44.6066                 5.0293

                     19                     20                     21
                      A                      A                      A
 Frequencies --    765.5582               792.4194               852.3767
 Red. masses --      1.6405                 5.9093                 3.1087
 Frc consts  --      0.5665                 2.1862                 1.3307
 IR Inten    --     57.0209                69.0941                18.6034

                     22                     23                     24
                      A                      A                      A
 Frequencies --    951.9047              1014.0294              1039.7281
 Red. masses --      2.1960                 1.5559                 1.1906
 Frc consts  --      1.1724                 0.9426                 0.7583
 IR Inten    --     24.3297                12.1138                36.2644

                     25                     26                     27
                      A                      A                      A
 Frequencies --   1053.0396              1077.0753              1102.6723
 Red. masses --      2.3044                 1.3931                 1.3695
 Frc consts  --      1.5056                 0.9522                 0.9811
 IR Inten    --     90.2071                21.7502                74.7321

                     28                     29                     30
                      A                      A                      A
 Frequencies --   1140.0557              1155.6605              1187.0902
 Red. masses --      1.5735                 1.5459                 2.2021
 Frc consts  --      1.2049                 1.2165                 1.8283
 IR Inten    --     29.8457                48.0118                15.1276

                     31                     32                     33
                      A                      A                      A
 Frequencies --   1238.5594              1267.2006              1293.8441
 Red. masses --      1.4974                 1.3434                 1.5012
 Frc consts  --      1.3534                 1.2710                 1.4807
 IR Inten    --    133.0501               141.1081               195.3764

                     34                     35                     36
                      A                      A                      A
 Frequencies --   1321.5950              1358.3005              1408.2406
 Red. masses --      1.4374                 1.2644                 1.2750
 Frc consts  --      1.4792                 1.3744                 1.4897
 IR Inten    --    176.7206                 2.3394                11.8941

                     37                     38                     39
                      A                      A                      A
 Frequencies --   1428.6150              1438.3226              1453.9628
 Red. masses --      1.7767                 1.8367                 1.2190
 Frc consts  --      2.1364                 2.2387                 1.5183
 IR Inten    --    104.6272               125.6424                 8.3708

                     40                     41                     42
                      A                      A                      A
 Frequencies --   1460.7867              1477.5617              1494.3138
 Red. masses --      1.3273                 1.0824                 1.1403
 Frc consts  --      1.6688                 1.3922                 1.5002
 IR Inten    --     66.2965                35.2490                 4.4758

                     43                     44                     45
                      A                      A                      A
 Frequencies --   1500.1639              1506.2880              1509.2562
 Red. masses --      1.0682                 1.1904                 1.0681
 Frc consts  --      1.4164                 1.5914                 1.4334
 IR Inten    --     33.2021                33.6608                12.4301

                     46                     47                     48
                      A                      A                      A
 Frequencies --   1511.5282              1533.8278              1613.9141
 Red. masses --      1.0516                 1.5052                 4.0499
 Frc consts  --      1.4156                 2.0865                 6.2151
 IR Inten    --     37.8831               308.9099              1106.7590

                     49                     50                     51
                      A                      A                      A
 Frequencies --   1645.6422              3022.2110              3068.1327
 Red. masses --      1.0902                 1.0490                 1.0371
 Frc consts  --      1.7396                 5.6452                 5.7521
 IR Inten    --     43.1715               119.1088                20.2448

                     52                     53                     54
                      A                      A                      A
 Frequencies --   3076.7431              3103.5478              3114.1283
 Red. masses --      1.0331                 1.0859                 1.0906
 Frc consts  --      5.7620                 6.1623                 6.2315
 IR Inten    --     29.4481                54.5335                 8.1343

                     55                     56                     57
                      A                      A                      A
 Frequencies --   3138.5383              3144.7092              3151.8235
 Red. masses --      1.0999                 1.1038                 1.1026
 Frc consts  --      6.3833                 6.4316                 6.4532
 IR Inten    --     63.2579                31.1320                18.4146

                     58                     59                     60
                      A                      A                      A
 Frequencies --   3160.7643              3175.4409              3183.5549
 Red. masses --      1.1047                 1.1063                 1.0872
 Frc consts  --      6.5022                 6.5728                 6.4924
 IR Inten    --      2.6732                13.1199                31.1294

                     61                     62                     63
                      A                      A                      A
 Frequencies --   3508.7782              3589.3615              3704.7101
 Red. masses --      1.0520                 1.0955                 1.0758
 Frc consts  --      7.6311                 8.3159                 8.6993
 IR Inten    --     33.7866                48.6737                21.2940

 - Thermochemistry -
 -------------------
 Temperature   298.150 Kelvin.  Pressure   1.00000 Atm.
 Atom     1 has atomic number  6 and mass  12.00000

 Molecular mass:   130.11061 amu.
 Principal axes and moments of inertia in atomic units:
                           1         2         3
     Eigenvalues --   801.112571870.976831940.13583
           X            0.99963   0.02620   0.00790
           Y           -0.02537   0.99549  -0.09141
           Z           -0.01026   0.09118   0.99578
 This molecule is an asymmetric top.
 Rotational symmetry number  1.
 Warning -- assumption of classical behavior for rotation
           may cause significant error
 Rotational temperatures (Kelvin)      0.10812     0.04629     0.04464
 Rotational constants (GHZ):           2.25279     0.96460     0.93021
    1 imaginary frequencies ignored.
 Zero-point vibrational energy     539231.9 (Joules/Mol)
                                  128.87951 (Kcal/Mol)
 Warning -- explicit consideration of  15 degrees of freedom as
           vibrations may cause significant error
 Vibrational temperatures:     93.14   121.30   142.25   202.86   233.37
          (Kelvin)            250.58   329.40   357.42   403.68   420.70
                              488.60   550.31   636.74   727.59   863.47
                              934.34  1037.47  1101.47  1140.11  1226.38
                             1369.58  1458.96  1495.94  1515.09  1549.67
                             1586.50  1640.29  1662.74  1707.96  1782.01
                             1823.22  1861.55  1901.48  1954.29  2026.14
                             2055.46  2069.43  2091.93  2101.75  2125.88
                             2149.98  2158.40  2167.21  2171.48  2174.75
                             2206.84  2322.06  2367.71  4348.29  4414.36
                             4426.75  4465.31  4480.54  4515.66  4524.54
                             4534.77  4547.63  4568.75  4580.43  5048.35
                             5164.29  5330.25

 Zero-point correction=                           0.205383 (Hartree/Particle)
 Thermal correction to Energy=                    0.216489
 Thermal correction to Enthalpy=                  0.217434
 Thermal correction to Gibbs Free Energy=         0.168862
 Sum of electronic and zero-point Energies=           -421.585657
 Sum of electronic and thermal Energies=              -421.574550
 Sum of electronic and thermal Enthalpies=            -421.573606
 Sum of electronic and thermal Free Energies=         -421.622177

                     E (Thermal)             CV                S
                      KCal/Mol        Cal/Mol-Kelvin    Cal/Mol-Kelvin
 Total                  135.849             39.450            102.227
 Electronic               0.000              0.000              0.000
 Translational            0.889              2.981             40.503
 Rotational               0.889              2.981             29.454
 Vibrational            134.072             33.488             32.270
 Vibration     1          0.597              1.971              4.307
 Vibration     2          0.601              1.960              3.788
 Vibration     3          0.604              1.950              3.476
 Vibration     4          0.615              1.912              2.790
 Vibration     5          0.622              1.889              2.524
 Vibration     6          0.627              1.874              2.390
 Vibration     7          0.652              1.797              1.887
 Vibration     8          0.662              1.765              1.742
 Vibration     9          0.680              1.710              1.530
 Vibration    10          0.688              1.688              1.460
 Vibration    11          0.720              1.596              1.214
 Vibration    12          0.752              1.508              1.029
 Vibration    13          0.802              1.377              0.819
 Vibration    14          0.861              1.237              0.644
 Vibration    15          0.958              1.031              0.449

 Optimization completed.
    -- Stationary point found.
 Normal termination of Gaussian 16 at Tue Feb  9 20:01:34 2021.
