 Gaussian 16, Revision A.03,
 Gaussian 16:  ES64L-G16RevA.03 25-Dec-2016

 ----------------------------------------------------------------------
 # wB97XD def2tzvp, opt=(ts, noeigen, calcfc, maxcycles=70, maxstep=3),
  freq=noraman, scrf=(iefpcm, solvent=water)
 ----------------------------------------------------------------------

 -----------------------
 3_iteration/TS-24-3.out
 -----------------------
 Symbolic Z-matrix:
 Charge =  0 Multiplicity = 1

 SCF Done:  E(RwB97XD) =  -1020.25690725     A.U. after   15 cycles
 Optimization completed.
    -- Stationary point found.
 Normal termination of Gaussian 16 at Sun Jun 13 22:44:28 2021.

 ---------------------------------------------------------------------
 #N Geom=AllCheck Guess=TCheck SCRF=Check GenChk RwB97XD/def2TZVP Freq
 ---------------------------------------------------------------------

 Structure from the checkpoint file:  "/beegfs/scratch/user/q/tla25/Gau-337124.chk"
 -----------------------
 3_iteration/TS-24-3.out
 -----------------------
 Charge =  0 Multiplicity = 1

                         Standard orientation:
 ---------------------------------------------------------------------
 Center     Atomic      Atomic             Coordinates (Angstroms)
 Number     Number       Type             X           Y           Z
 ---------------------------------------------------------------------
      1          6           0        0.474980   -0.573310    0.046709
      2          6           0        1.565290    0.222330    0.482849
      3          8           0        1.445439    1.192120    1.267229
      4          6           0       -0.836920   -0.096751    0.303259
      5          6           0       -0.305569   -1.146151    2.948479
      6          1           0       -1.043909   -1.928791    3.107219
      7          1           0        0.496181   -1.535880    2.318569
      8          1           0        0.120311   -0.855641    3.909519
      9          7           0       -0.902950   -0.005851    2.268159
     10          1           0       -1.780480    0.278428    2.683359
     11          1           0       -0.246600    0.775329    2.278949
     12          6           0       -1.976919   -0.990092   -0.127901
     13          6           0       -2.834679   -1.663922    0.729239
     14          6           0       -3.868408   -2.446963    0.228219
     15          6           0       -4.060058   -2.566773   -1.136951
     16          6           0       -3.210699   -1.890903   -2.004041
     17          6           0       -2.184999   -1.109972   -1.503361
     18          1           0       -2.716229   -1.592502    1.799399
     19          1           0       -4.524408   -2.963383    0.917549
     20          1           0       -4.864968   -3.177554   -1.525181
     21          1           0       -3.349649   -1.970233   -3.074871
     22          1           0       -1.529830   -0.582112   -2.185831
     23          6           0       -1.197971    1.349159    0.018969
     24          6           0       -0.480941    2.080839   -0.923051
     25          6           0       -0.862062    3.368159   -1.266411
     26          6           0       -1.977202    3.948478   -0.680101
     27          6           0       -2.717302    3.219838    0.239029
     28          6           0       -2.336861    1.929658    0.573069
     29          1           0        0.382559    1.630480   -1.393521
     30          1           0       -0.285142    3.918189   -1.999331
     31          1           0       -2.275133    4.954378   -0.947291
     32          1           0       -3.601922    3.650637    0.690729
     33          1           0       -2.956451    1.368098    1.260849
     34          6           0        0.683811   -1.991930   -0.442051
     35          1           0       -0.007038   -2.681471    0.048169
     36          1           0        0.528091   -2.105640   -1.519571
     37          1           0        1.691531   -2.340260   -0.220751
     38          6           0        2.959830   -0.101939    0.022389
     39          6           0        3.234260   -0.381959   -1.312851
     40          6           0        4.536520   -0.608218   -1.733131
     41          6           0        5.577920   -0.574527   -0.816281
     42          6           0        5.312600   -0.299337    0.518839
     43          6           0        4.012390   -0.052518    0.931499
     44          1           0        2.421530   -0.413709   -2.028481
     45          1           0        4.738731   -0.812008   -2.777231
     46          1           0        6.594100   -0.759426   -1.141421
     47          1           0        6.121950   -0.272637    1.237859
     48          1           0        3.801850    0.180532    1.967839
 ---------------------------------------------------------------------

 SCF Done:  E(RwB97XD) =  -1020.25690725     A.U. after    1 cycles

 The electronic state is 1-A.
 Alpha  occ. eigenvalues --  -19.20303 -14.47251 -10.35612 -10.34595 -10.31170
 Alpha  occ. eigenvalues --  -10.30830 -10.30521 -10.29409 -10.29267 -10.29245
 Alpha  occ. eigenvalues --  -10.29241 -10.29237 -10.29204 -10.29083 -10.29052
 Alpha  occ. eigenvalues --  -10.29044 -10.29017 -10.29002 -10.28954 -10.28945
 Alpha  occ. eigenvalues --  -10.28937 -10.28877 -10.28876 -10.26817 -10.25885
 Alpha  occ. eigenvalues --   -1.10727  -1.03036  -0.98021  -0.96525  -0.96462
 Alpha  occ. eigenvalues --   -0.91731  -0.87118  -0.85522  -0.85254  -0.85206
 Alpha  occ. eigenvalues --   -0.85045  -0.84279  -0.78865  -0.77407  -0.74701
 Alpha  occ. eigenvalues --   -0.71513  -0.70862  -0.70248  -0.69983  -0.69718
 Alpha  occ. eigenvalues --   -0.66630  -0.64366  -0.62433  -0.61861  -0.59935
 Alpha  occ. eigenvalues --   -0.58036  -0.56819  -0.56266  -0.55650  -0.54937
 Alpha  occ. eigenvalues --   -0.54371  -0.54066  -0.53446  -0.52685  -0.52374
 Alpha  occ. eigenvalues --   -0.51936  -0.51108  -0.50875  -0.50837  -0.50135
 Alpha  occ. eigenvalues --   -0.48559  -0.47928  -0.47224  -0.46987  -0.46701
 Alpha  occ. eigenvalues --   -0.45885  -0.45472  -0.44395  -0.44246  -0.43666
 Alpha  occ. eigenvalues --   -0.43271  -0.42535  -0.42032  -0.41874  -0.40693
 Alpha  occ. eigenvalues --   -0.35170  -0.34145  -0.33975  -0.33732  -0.33170
 Alpha  occ. eigenvalues --   -0.32391  -0.31428  -0.26674
 Alpha virt. eigenvalues --    0.01395   0.03760   0.04519   0.05258   0.05395
 Alpha virt. eigenvalues --    0.06040   0.08187   0.10414   0.12024   0.13112
 Alpha virt. eigenvalues --    0.13493   0.13991   0.14782   0.15112   0.15649

 Mulliken charges:
               1
     1  C   -0.418427
     2  C    0.338817
     3  O   -0.562788
     4  C    0.558986
     5  C   -0.282264
     6  H    0.146266
     7  H    0.148199
     8  H    0.153632
     9  N   -0.356733
    10  H    0.274159
    11  H    0.276407
    12  C    0.038424
    13  C   -0.177821
    14  C   -0.168187
    15  C   -0.139001
    16  C   -0.130631
    17  C   -0.311302
    18  H    0.136103
    19  H    0.141462
    20  H    0.143888
    21  H    0.142022
    22  H    0.164367
    23  C    0.155563
    24  C   -0.221963
    25  C   -0.165975
    26  C   -0.134685
    27  C   -0.170022
    28  C   -0.258767
    29  H    0.166652
    30  H    0.138852
    31  H    0.143117
    32  H    0.141103
    33  H    0.154993
    34  C   -0.400369
    35  H    0.143131
    36  H    0.127811
    37  H    0.147346
    38  C    0.107032
    39  C   -0.239947
    40  C   -0.140331
    41  C   -0.130214
    42  C   -0.152962
    43  C   -0.245970
    44  H    0.158079
    45  H    0.141101
    46  H    0.144251
    47  H    0.140701
    48  H    0.135896
 Sum of Mulliken charges =  -0.00000

 Dipole moment (field-independent basis, Debye):
    X=             -4.3602    Y=             -2.8281    Z=              1.7463  Tot=              5.4826
 Quadrupole moment (field-independent basis, Debye-Ang):
   XX=           -135.1872   YY=           -148.2998   ZZ=           -127.4197
   XY=             -3.1281   XZ=            -11.1995   YZ=             -5.3541

  Exact polarizability: 450.952  12.729 343.902 -25.134  -0.793 376.148
 Approx polarizability: 338.623   9.507 279.260 -21.050   1.568 323.956

 ******    1 imaginary frequencies (negative Signs) ******

                      1                      2                      3
                      A                      A                      A
 Frequencies --   -373.1970                28.7319                38.0249
 Red. masses --      5.0917                 4.0109                 4.2920
 Frc consts  --      0.4178                 0.0020                 0.0037
 IR Inten    --    622.5166                 0.1398                 1.9689

                      4                      5                      6
                      A                      A                      A
 Frequencies --     45.1929                50.2394                60.8092
 Red. masses --      3.9720                 4.2938                 4.6876
 Frc consts  --      0.0048                 0.0064                 0.0102
 IR Inten    --      0.2524                 0.6533                 0.9172

                      7                      8                      9
                      A                      A                      A
 Frequencies --     63.6230               105.4112               120.9108
 Red. masses --      4.2225                 3.5011                 4.4411
 Frc consts  --      0.0101                 0.0229                 0.0383
 IR Inten    --      1.4267                 7.8007                 4.9645

                     10                     11                     12
                      A                      A                      A
 Frequencies --    139.5929               145.0583               159.0299
 Red. masses --      2.3852                 3.5537                 3.5984
 Frc consts  --      0.0274                 0.0441                 0.0536
 IR Inten    --      3.6883                 5.7190                 2.9791

                     13                     14                     15
                      A                      A                      A
 Frequencies --    177.3964               201.3752               216.5527
 Red. masses --      1.6956                 1.5849                 2.6036
 Frc consts  --      0.0314                 0.0379                 0.0719
 IR Inten    --      7.1242                 8.0814                 1.9465

                     16                     17                     18
                      A                      A                      A
 Frequencies --    225.1851               247.9366               250.8148
 Red. masses --      2.1969                 3.3675                 3.4589
 Frc consts  --      0.0656                 0.1220                 0.1282
 IR Inten    --      1.1430                 8.8548                 0.5762

                     19                     20                     21
                      A                      A                      A
 Frequencies --    263.9546               292.5846               306.5821
 Red. masses --      3.8103                 4.8625                 3.8792
 Frc consts  --      0.1564                 0.2453                 0.2148
 IR Inten    --      2.2013                 7.6252                10.7585

                     22                     23                     24
                      A                      A                      A
 Frequencies --    318.4089               350.0960               384.3020
 Red. masses --      3.4004                 3.3276                 5.1334
 Frc consts  --      0.2031                 0.2403                 0.4467
 IR Inten    --     16.4368                35.3971                12.3616

                     25                     26                     27
                      A                      A                      A
 Frequencies --    406.9447               421.8933               422.6850
 Red. masses --      5.4563                 2.9104                 2.8925
 Frc consts  --      0.5324                 0.3052                 0.3045
 IR Inten    --      3.4399                 0.7705                 0.7042

                     28                     29                     30
                      A                      A                      A
 Frequencies --    426.7371               484.1769               497.7627
 Red. masses --      2.9475                 3.7083                 3.6605
 Frc consts  --      0.3163                 0.5122                 0.5344
 IR Inten    --      0.1888                 7.7059                 9.1511

                     31                     32                     33
                      A                      A                      A
 Frequencies --    541.4223               597.4046               613.5516
 Red. masses --      3.5127                 3.3647                 3.5495
 Frc consts  --      0.6067                 0.7075                 0.7873
 IR Inten    --     10.9179                79.0653                10.3534

                     34                     35                     36
                      A                      A                      A
 Frequencies --    631.1748               636.0040               638.2952
 Red. masses --      5.3499                 6.3736                 6.2272
 Frc consts  --      1.2557                 1.5190                 1.4948
 IR Inten    --     72.7600                 0.8133                 4.9736

                     37                     38                     39
                      A                      A                      A
 Frequencies --    649.0611               657.4519               695.9019
 Red. masses --      4.4377                 5.2920                 2.2230
 Frc consts  --      1.1015                 1.3477                 0.6343
 IR Inten    --    142.9165                28.4797                58.8204

                     40                     41                     42
                      A                      A                      A
 Frequencies --    715.6133               725.4118               727.5259
 Red. masses --      4.8894                 1.5936                 1.6822
 Frc consts  --      1.4752                 0.4941                 0.5246
 IR Inten    --     20.4911                88.4324                63.9031

                     43                     44                     45
                      A                      A                      A
 Frequencies --    729.7801               759.8064               774.0805
 Red. masses --      1.5025                 3.1108                 3.1331
 Frc consts  --      0.4715                 1.0581                 1.1061
 IR Inten    --    112.0200                75.7572                42.5289

                     46                     47                     48
                      A                      A                      A
 Frequencies --    783.6571               814.5377               831.6514
 Red. masses --      2.1969                 2.6184                 2.9491
 Frc consts  --      0.7949                 1.0235                 1.2018
 IR Inten    --     59.8503                26.6795                20.8959

                     49                     50                     51
                      A                      A                      A
 Frequencies --    874.9958               879.7305               881.6517
 Red. masses --      1.2468                 1.2442                 1.2486
 Frc consts  --      0.5624                 0.5674                 0.5718
 IR Inten    --      0.3800                 2.0889                 0.7397

                     52                     53                     54
                      A                      A                      A
 Frequencies --    922.2937               959.5356               963.4888
 Red. masses --      2.7860                 1.5348                 1.5460
 Frc consts  --      1.3963                 0.8326                 0.8456
 IR Inten    --     10.3482                26.0997                 4.5660

                     55                     56                     57
                      A                      A                      A
 Frequencies --    967.0358               997.7266              1012.1869
 Red. masses --      1.5188                 1.1916                 1.3667
 Frc consts  --      0.8368                 0.6989                 0.8250
 IR Inten    --      6.9727                64.2647                 1.5487

                     58                     59                     60
                      A                      A                      A
 Frequencies --   1015.8175              1019.8395              1025.4254
 Red. masses --      1.3847                 1.5036                 4.9064
 Frc consts  --      0.8418                 0.9214                 3.0396
 IR Inten    --      4.8431                10.8644                28.5132

                     61                     62                     63
                      A                      A                      A
 Frequencies --   1025.9334              1026.7748              1028.3328
 Red. masses --      4.6358                 4.0787                 1.9932
 Frc consts  --      2.8748                 2.5335                 1.2418
 IR Inten    --      9.3567                 3.2854                 7.9383

                     64                     65                     66
                      A                      A                      A
 Frequencies --   1029.5152              1030.6150              1032.7755
 Red. masses --      1.3266                 1.3909                 1.8495
 Frc consts  --      0.8284                 0.8705                 1.1623
 IR Inten    --     13.9083                 9.5020                71.3066

                     67                     68                     69
                      A                      A                      A
 Frequencies --   1039.5679              1061.9335              1068.7561
 Red. masses --      2.4688                 1.9631                 1.4500
 Frc consts  --      1.5720                 1.3043                 0.9759
 IR Inten    --    109.7213                 0.4460                 5.9424

                     70                     71                     72
                      A                      A                      A
 Frequencies --   1068.9546              1073.3026              1084.7976
 Red. masses --      1.9591                 1.9265                 3.9224
 Frc consts  --      1.3190                 1.3075                 2.7196
 IR Inten    --     18.4902                 1.1853                55.2344

                     73                     74                     75
                      A                      A                      A
 Frequencies --   1103.3395              1108.2834              1123.3317
 Red. masses --      1.2355                 1.5114                 1.5841
 Frc consts  --      0.8861                 1.0938                 1.1777
 IR Inten    --     60.8300                 6.6633                 0.1926

                     76                     77                     78
                      A                      A                      A
 Frequencies --   1128.1386              1181.9639              1184.9997
 Red. masses --      1.5889                 1.1373                 1.1317
 Frc consts  --      1.1915                 0.9361                 0.9363
 IR Inten    --     18.0504                 0.3313                 0.1120

                     79                     80                     81
                      A                      A                      A
 Frequencies --   1185.3825              1196.3536              1201.7400
 Red. masses --      1.1452                 1.7719                 1.5300
 Frc consts  --      0.9481                 1.4942                 1.3019
 IR Inten    --      0.5684                 4.8859                21.2023

                     82                     83                     84
                      A                      A                      A
 Frequencies --   1212.8214              1218.1044              1224.0667
 Red. masses --      1.3080                 3.4000                 1.1814
 Frc consts  --      1.1336                 2.9723                 1.0429
 IR Inten    --     21.1085                14.3178                17.4951

                     85                     86                     87
                      A                      A                      A
 Frequencies --   1226.2800              1275.0012              1319.7617
 Red. masses --      1.2276                 4.2928                 4.5286
 Frc consts  --      1.0877                 4.1116                 4.6474
 IR Inten    --     23.7312                53.5614                 8.0532

                     88                     89                     90
                      A                      A                      A
 Frequencies --   1325.1386              1326.0196              1351.8028
 Red. masses --      3.9985                 4.8954                 1.5917
 Frc consts  --      4.1369                 5.0715                 1.7138
 IR Inten    --     21.3614                13.7466                 3.4343

                     91                     92                     93
                      A                      A                      A
 Frequencies --   1358.1285              1366.7534              1372.2341
 Red. masses --      1.9097                 2.0515                 1.4847
 Frc consts  --      2.0753                 2.2579                 1.6471
 IR Inten    --     85.3712                29.4272                 7.2019

                     94                     95                     96
                      A                      A                      A
 Frequencies --   1377.1931              1412.2787              1427.2530
 Red. masses --      1.4730                 3.7354                 1.2905
 Frc consts  --      1.6460                 4.3896                 1.5489
 IR Inten    --      1.7085               939.7666                97.6004

                     97                     98                     99
                      A                      A                      A
 Frequencies --   1455.6700              1486.6322              1487.5896
 Red. masses --      1.1951                 1.7018                 1.9373
 Frc consts  --      1.4920                 2.2159                 2.5258
 IR Inten    --     17.9379                 0.3126                30.7360

                    100                    101                    102
                      A                      A                      A
 Frequencies --   1488.7301              1490.4619              1492.5713
 Red. masses --      1.2731                 1.0915                 2.1158
 Frc consts  --      1.6624                 1.4287                 2.7772
 IR Inten    --     11.7807                13.2385                42.8190

                    103                    104                    105
                      A                      A                      A
 Frequencies --   1505.2466              1510.0302              1539.4458
 Red. masses --      1.1151                 1.0506                 2.3740
 Frc consts  --      1.4886                 1.4114                 3.3148
 IR Inten    --    168.3552                 8.9524                 8.0663

                    106                    107                    108
                      A                      A                      A
 Frequencies --   1541.7865              1546.6804              1574.7764
 Red. masses --      2.2320                 2.2768                 5.5217
 Frc consts  --      3.1261                 3.2091                 8.0679
 IR Inten    --     27.6304                 4.2234               521.2718

                    109                    110                    111
                      A                      A                      A
 Frequencies --   1636.3546              1651.1987              1652.5116
 Red. masses --      1.2446                 5.4858                 5.8228
 Frc consts  --      1.9635                 8.8122                 9.3685
 IR Inten    --     52.3355                 3.3728                 4.3185

                    112                    113                    114
                      A                      A                      A
 Frequencies --   1654.6051              1672.9786              1673.1881
 Red. masses --      5.1051                 5.8943                 5.9373
 Frc consts  --      8.2346                 9.7200                 9.7933
 IR Inten    --     13.6669                 5.8735                 5.5254

                    115                    116                    117
                      A                      A                      A
 Frequencies --   1677.7601              3028.7312              3059.5578
 Red. masses --      5.8496                 1.0454                 1.0343
 Frc consts  --      9.7014                 5.6503                 5.7045
 IR Inten    --      3.2313                96.3170                53.4936

                    118                    119                    120
                      A                      A                      A
 Frequencies --   3085.9239              3127.6392              3137.6684
 Red. masses --      1.0947                 1.1033                 1.0976
 Frc consts  --      6.1423                 6.3588                 6.3665
 IR Inten    --     37.2284                12.1438                41.8720

                    121                    122                    123
                      A                      A                      A
 Frequencies --   3164.0783              3191.3246              3193.6643
 Red. masses --      1.1040                 1.0857                 1.0864
 Frc consts  --      6.5121                 6.5146                 6.5288
 IR Inten    --     22.4181                 2.2070                 2.6214

                    124                    125                    126
                      A                      A                      A
 Frequencies --   3194.4229              3197.1614              3201.0935
 Red. masses --      1.0856                 1.0880                 1.0884
 Frc consts  --      6.5269                 6.5524                 6.5712
 IR Inten    --      2.3249                 0.7858                 3.5691

                    127                    128                    129
                      A                      A                      A
 Frequencies --   3201.2575              3205.1497              3210.1688
 Red. masses --      1.0888                 1.0916                 1.0936
 Frc consts  --      6.5741                 6.6071                 6.6399
 IR Inten    --      2.1208                12.1592                15.3372

                    130                    131                    132
                      A                      A                      A
 Frequencies --   3210.3838              3212.0904              3219.6334
 Red. masses --      1.0925                 1.0949                 1.0951
 Frc consts  --      6.6340                 6.6559                 6.6883
 IR Inten    --     38.6602                39.4937                29.9941

                    133                    134                    135
                      A                      A                      A
 Frequencies --   3220.4273              3221.5359              3225.7044
 Red. masses --      1.0988                 1.0980                 1.0966
 Frc consts  --      6.7142                 6.7140                 6.7226
 IR Inten    --     22.1935                25.1268                11.8624

                    136                    137                    138
                      A                      A                      A
 Frequencies --   3253.2332              3423.5648              3602.4558
 Red. masses --      1.0910                 1.0637                 1.0845
 Frc consts  --      6.8029                 7.3454                 8.2924
 IR Inten    --     14.9075                93.9040                68.7795

 - Thermochemistry -
 -------------------
 Temperature   298.150 Kelvin.  Pressure   1.00000 Atm.
 Atom     1 has atomic number  6 and mass  12.00000

 Molecular mass:   329.17796 amu.
 Principal axes and moments of inertia in atomic units:
                           1         2         3
     Eigenvalues --  5535.83758********************
           X            0.99998  -0.00235  -0.00499
           Y            0.00228   0.99991  -0.01318
           Z            0.00502   0.01317   0.99990
 This molecule is an asymmetric top.
 Rotational symmetry number  1.
 Warning -- assumption of classical behavior for rotation
           may cause significant error
 Rotational temperatures (Kelvin)      0.01565     0.00770     0.00662
 Rotational constants (GHZ):           0.32601     0.16043     0.13792
    1 imaginary frequencies ignored.
 Zero-point vibrational energy    1059872.2 (Joules/Mol)
                                  253.31553 (Kcal/Mol)
 Warning -- explicit consideration of  32 degrees of freedom as
           vibrations may cause significant error
 Vibrational temperatures:     41.34    54.71    65.02    72.28    87.49
          (Kelvin)             91.54   151.66   173.96   200.84   208.71
                              228.81   255.23   289.73   311.57   323.99
                              356.73   360.87   379.77   420.96   441.10
                              458.12   503.71   552.92   585.50   607.01
                              608.15   613.98   696.62   716.17   778.99
                              859.53   882.76   908.12   915.07   918.36
                              933.85   945.93  1001.25  1029.61  1043.71
                             1046.75  1049.99  1093.19  1113.73  1127.51
                             1171.94  1196.56  1258.92  1265.74  1268.50
                             1326.97  1380.56  1386.25  1391.35  1435.51
                             1456.31  1461.53  1467.32  1475.36  1476.09
                             1477.30  1479.54  1481.24  1482.83  1485.93
                             1495.71  1527.89  1537.70  1537.99  1544.24
                             1560.78  1587.46  1594.57  1616.22  1623.14
                             1700.58  1704.95  1705.50  1721.29  1729.04
                             1744.98  1752.58  1761.16  1764.34  1834.44
                             1898.84  1906.58  1907.85  1944.94  1954.04
                             1966.45  1974.34  1981.47  2031.95  2053.50
                             2094.38  2138.93  2140.31  2141.95  2144.44
                             2147.48  2165.71  2172.60  2214.92  2218.29
                             2225.33  2265.75  2354.35  2375.71  2377.60
                             2380.61  2407.04  2407.34  2413.92  4357.67
                             4402.02  4439.96  4499.98  4514.40  4552.40
                             4591.60  4594.97  4596.06  4600.00  4605.66
                             4605.90  4611.50  4618.72  4619.03  4621.48
                             4632.33  4633.48  4635.07  4641.07  4680.68
                             4925.75  5183.13

 Zero-point correction=                           0.403684 (Hartree/Particle)
 Thermal correction to Energy=                    0.425566
 Thermal correction to Enthalpy=                  0.426510
 Thermal correction to Gibbs Free Energy=         0.352074
 Sum of electronic and zero-point Energies=          -1019.853223
 Sum of electronic and thermal Energies=             -1019.831341
 Sum of electronic and thermal Enthalpies=           -1019.830397
 Sum of electronic and thermal Free Energies=        -1019.904833

                     E (Thermal)             CV                S
                      KCal/Mol        Cal/Mol-Kelvin    Cal/Mol-Kelvin
 Total                  267.047             86.032            156.663
 Electronic               0.000              0.000              0.000
 Translational            0.889              2.981             43.269
 Rotational               0.889              2.981             35.054
 Vibrational            265.269             80.070             78.340
 Vibration     1          0.593              1.984              5.915
 Vibration     2          0.594              1.982              5.359
 Vibration     3          0.595              1.979              5.017
 Vibration     4          0.595              1.977              4.808
 Vibration     5          0.597              1.973              4.431
 Vibration     6          0.597              1.972              4.342
 Vibration     7          0.605              1.945              3.352
 Vibration     8          0.609              1.932              3.086
 Vibration     9          0.615              1.914              2.809
 Vibration    10          0.616              1.908              2.736
 Vibration    11          0.621              1.892              2.561
 Vibration    12          0.628              1.870              2.356
 Vibration    13          0.638              1.838              2.120
 Vibration    14          0.645              1.816              1.988
 Vibration    15          0.650              1.803              1.917
 Vibration    16          0.662              1.766              1.745
 Vibration    17          0.663              1.761              1.725
 Vibration    18          0.671              1.739              1.635
 Vibration    19          0.688              1.688              1.459
 Vibration    20          0.697              1.661              1.381
 Vibration    21          0.705              1.638              1.318
 Vibration    22          0.727              1.575              1.166
 Vibration    23          0.753              1.504              1.022
 Vibration    24          0.772              1.455              0.937
 Vibration    25          0.784              1.423              0.886
 Vibration    26          0.785              1.421              0.883
 Vibration    27          0.788              1.412              0.869
 Vibration    28          0.840              1.285              0.699
 Vibration    29          0.853              1.255              0.664
 Vibration    30          0.897              1.158              0.562
 Vibration    31          0.955              1.037              0.454
 Vibration    32          0.973              1.003              0.427

 Optimization completed.
    -- Stationary point found.
 Normal termination of Gaussian 16 at Mon Jun 14 01:01:13 2021.
