 Gaussian 16, Revision A.03,
 Gaussian 16:  ES64L-G16RevA.03 25-Dec-2016

 ----------------------------------------------------------------------
 # wB97XD def2tzvp, opt=(ts, noeigen, calcfc, maxcycles=70, maxstep=8),
  freq=noraman, scrf=(iefpcm, solvent=water)
 ----------------------------------------------------------------------

 ------------------------
 1_iteration/TS-272-1.out
 ------------------------
 Symbolic Z-matrix:
 Charge =  0 Multiplicity = 1

 SCF Done:  E(RwB97XD) =  -3092.45873132     A.U. after   14 cycles
 SCF Done:  E(RwB97XD) =  -3092.45907486     A.U. after   12 cycles
 SCF Done:  E(RwB97XD) =  -3092.45927067     A.U. after   12 cycles
 SCF Done:  E(RwB97XD) =  -3092.45932122     A.U. after   12 cycles
 SCF Done:  E(RwB97XD) =  -3092.45931166     A.U. after   11 cycles
 SCF Done:  E(RwB97XD) =  -3092.45927924     A.U. after   11 cycles
 SCF Done:  E(RwB97XD) =  -3092.45926027     A.U. after   12 cycles
 SCF Done:  E(RwB97XD) =  -3092.45930694     A.U. after   11 cycles
 SCF Done:  E(RwB97XD) =  -3092.45928833     A.U. after   12 cycles
 SCF Done:  E(RwB97XD) =  -3092.45932831     A.U. after   12 cycles
 SCF Done:  E(RwB97XD) =  -3092.45929343     A.U. after   12 cycles
 SCF Done:  E(RwB97XD) =  -3092.45927694     A.U. after   12 cycles
 SCF Done:  E(RwB97XD) =  -3092.45930336     A.U. after   12 cycles
 SCF Done:  E(RwB97XD) =  -3092.45932567     A.U. after   12 cycles
 SCF Done:  E(RwB97XD) =  -3092.45933002     A.U. after   11 cycles
 SCF Done:  E(RwB97XD) =  -3092.45933028     A.U. after    9 cycles
 SCF Done:  E(RwB97XD) =  -3092.45933026     A.U. after    8 cycles
 SCF Done:  E(RwB97XD) =  -3092.45933029     A.U. after    7 cycles
 Optimization completed.
    -- Stationary point found.
 Normal termination of Gaussian 16 at Wed Feb 10 23:21:06 2021.

 ---------------------------------------------------------------------
 #N Geom=AllCheck Guess=TCheck SCRF=Check GenChk RwB97XD/def2TZVP Freq
 ---------------------------------------------------------------------

 Structure from the checkpoint file:  "/beegfs/scratch/user/q/tla25/Gau-3108.chk"
 ------------------------
 1_iteration/TS-272-1.out
 ------------------------
 Charge =  0 Multiplicity = 1

                         Standard orientation:
 ---------------------------------------------------------------------
 Center     Atomic      Atomic             Coordinates (Angstroms)
 Number     Number       Type             X           Y           Z
 ---------------------------------------------------------------------
      1          6           0        1.038151    0.062810   -0.683307
      2          6           0        0.001213   -0.933869   -0.685762
      3          8           0        0.244625   -2.092541   -1.033966
      4          6           0        2.271117   -0.207774   -1.224906
      5          6           0        2.963446   -1.151407    1.432932
      6          1           0        3.396893   -1.911358    2.084661
      7          1           0        3.202675   -0.164496    1.823545
      8          1           0        1.877981   -1.264226    1.431970
      9          7           0        3.448206   -1.258877    0.064671
     10          1           0        4.403113   -0.938671   -0.029094
     11          1           0        3.402285   -2.213003   -0.268670
     12          1           0        2.994597    0.585513   -1.342931
     13          1           0        2.318139   -1.006149   -1.952284
     14         35           0        0.830108    1.702482    0.289090
     15          6           0       -1.403484   -0.592921   -0.283366
     16          6           0       -2.094273    0.460625   -0.873401
     17          6           0       -3.418716    0.700826   -0.541349
     18          6           0       -4.055733   -0.095984    0.400044
     19          6           0       -3.369552   -1.145453    0.995401
     20          6           0       -2.052825   -1.400791    0.644294
     21          1           0       -1.597881    1.088113   -1.603168
     22          1           0       -3.953691    1.513542   -1.016137
     23          1           0       -5.086789    0.098931    0.666843
     24          1           0       -3.862822   -1.769720    1.729694
     25          1           0       -1.518780   -2.229242    1.092950
 ---------------------------------------------------------------------

 SCF Done:  E(RwB97XD) =  -3092.45933029     A.U. after    1 cycles

 The electronic state is 1-A.
 Alpha  occ. eigenvalues -- -483.12233 -62.67067 -56.46172 -56.45834 -56.45829
 Alpha  occ. eigenvalues --  -19.22117 -14.46802 -10.36949 -10.32986 -10.31159
 Alpha  occ. eigenvalues --  -10.31079 -10.29939 -10.29451 -10.29385 -10.29290
 Alpha  occ. eigenvalues --  -10.29195 -10.29176  -8.81177  -6.63293  -6.62211
 Alpha  occ. eigenvalues --   -6.62196  -2.73688  -2.73372  -2.73359  -2.72484
 Alpha  occ. eigenvalues --   -2.72484  -1.12943  -1.02242  -0.96919  -0.92533
 Alpha  occ. eigenvalues --   -0.86461  -0.85392  -0.83466  -0.78149  -0.75656
 Alpha  occ. eigenvalues --   -0.70835  -0.69493  -0.63558  -0.62118  -0.59071
 Alpha  occ. eigenvalues --   -0.57259  -0.56062  -0.55191  -0.53785  -0.53491
 Alpha  occ. eigenvalues --   -0.52140  -0.51256  -0.50554  -0.47940  -0.47175
 Alpha  occ. eigenvalues --   -0.45990  -0.45345  -0.44102  -0.42974  -0.41704
 Alpha  occ. eigenvalues --   -0.38959  -0.37709  -0.34829  -0.33799  -0.32460
 Alpha  occ. eigenvalues --   -0.28207
 Alpha virt. eigenvalues --    0.01505   0.05062   0.06179   0.08183   0.10633
 Alpha virt. eigenvalues --    0.12809   0.14184   0.14838   0.15356   0.16037
 Alpha virt. eigenvalues --    0.16958   0.18052   0.18726   0.19348   0.19636

 Mulliken charges:
               1
     1  C   -0.186647
     2  C    0.257827
     3  O   -0.479109
     4  C   -0.182677
     5  C   -0.271891
     6  H    0.148467
     7  H    0.150081
     8  H    0.139324
     9  N   -0.380172
    10  H    0.277639
    11  H    0.276145
    12  H    0.180237
    13  H    0.178866
    14  Br  -0.143875
    15  C    0.203328
    16  C   -0.261100
    17  C   -0.125503
    18  C   -0.144163
    19  C   -0.138410
    20  C   -0.237361
    21  H    0.159390
    22  H    0.144864
    23  H    0.146469
    24  H    0.144304
    25  H    0.143967
 Sum of Mulliken charges =  -0.00000

 Dipole moment (field-independent basis, Debye):
    X=              6.1624    Y=             -0.5155    Z=              1.6029  Tot=              6.3883
 Quadrupole moment (field-independent basis, Debye-Ang):
   XX=            -52.9818   YY=            -94.7910   ZZ=            -88.8760
   XY=            -11.5525   XZ=             -2.4647   YZ=             -8.5735

  Exact polarizability: 265.138 -16.593 202.436 -10.066 -12.990 166.725
 Approx polarizability: 194.963 -11.669 173.920  -9.496  -9.706 145.244

 ******    1 imaginary frequencies (negative Signs) ******

                      1                      2                      3
                      A                      A                      A
 Frequencies --   -333.0039                31.0085                41.3528
 Red. masses --      5.8926                 3.9608                 4.1445
 Frc consts  --      0.3850                 0.0022                 0.0042
 IR Inten    --    838.1696                 7.1571                 3.0899

                      4                      5                      6
                      A                      A                      A
 Frequencies --     53.8599                62.2906                91.0060
 Red. masses --      2.2386                 4.7340                 6.5736
 Frc consts  --      0.0038                 0.0108                 0.0321
 IR Inten    --      6.8665                 9.8947                 3.3798

                      7                      8                      9
                      A                      A                      A
 Frequencies --    117.5232               168.0389               188.7543
 Red. masses --      4.8602                 1.1493                 5.3365
 Frc consts  --      0.0396                 0.0191                 0.1120
 IR Inten    --     13.6270                 0.8069                 0.4157

                     10                     11                     12
                      A                      A                      A
 Frequencies --    197.7778               258.6431               304.2985
 Red. masses --      6.4351                 3.1325                 4.0843
 Frc consts  --      0.1483                 0.1235                 0.2228
 IR Inten    --      7.1454                 2.0492                 1.9324

                     13                     14                     15
                      A                      A                      A
 Frequencies --    360.5682               400.3390               410.7178
 Red. masses --      3.2853                 4.9231                 7.0664
 Frc consts  --      0.2517                 0.4649                 0.7023
 IR Inten    --      6.0467                49.0670                27.0373

                     16                     17                     18
                      A                      A                      A
 Frequencies --    419.2108               487.8364               566.0378
 Red. masses --      2.9532                 3.6617                 1.7138
 Frc consts  --      0.3058                 0.5134                 0.3235
 IR Inten    --      0.5860                 6.9168                15.4969

                     19                     20                     21
                      A                      A                      A
 Frequencies --    598.7116               634.8266               684.5826
 Red. masses --      2.3920                 6.4233                 5.2792
 Frc consts  --      0.5052                 1.5252                 1.4577
 IR Inten    --     45.6400                 0.2528                24.6496

                     22                     23                     24
                      A                      A                      A
 Frequencies --    724.9230               751.1061               791.4343
 Red. masses --      1.6755                 3.4446                 2.6761
 Frc consts  --      0.5188                 1.1450                 0.9876
 IR Inten    --     78.4491                66.7154                 4.9463

                     25                     26                     27
                      A                      A                      A
 Frequencies --    820.3281               880.7562               954.4639
 Red. masses --      2.9166                 1.2483                 1.5669
 Frc consts  --      1.1564                 0.5705                 0.8410
 IR Inten    --     35.5593                 0.7296                60.4775

                     28                     29                     30
                      A                      A                      A
 Frequencies --    965.9753               978.3456              1008.9461
 Red. masses --      1.4341                 1.1461                 1.1529
 Frc consts  --      0.7884                 0.6463                 0.6915
 IR Inten    --     10.2322               101.0379                30.7951

                     31                     32                     33
                      A                      A                      A
 Frequencies --   1014.1710              1025.9637              1032.0209
 Red. masses --      1.3781                 5.9613                 1.3151
 Frc consts  --      0.8351                 3.6971                 0.8253
 IR Inten    --      1.1439                 2.5808                 0.3030

                     34                     35                     36
                      A                      A                      A
 Frequencies --   1053.0832              1063.5222              1076.7988
 Red. masses --      2.3330                 2.5334                 1.6025
 Frc consts  --      1.5244                 1.6883                 1.0948
 IR Inten    --     64.3191                85.8975                36.0676

                     37                     38                     39
                      A                      A                      A
 Frequencies --   1112.9673              1153.3116              1183.9580
 Red. masses --      1.5336                 1.4129                 1.1438
 Frc consts  --      1.1193                 1.1072                 0.9447
 IR Inten    --      9.1448               135.1576                 0.5721

                     40                     41                     42
                      A                      A                      A
 Frequencies --   1187.8378              1197.3813              1206.5798
 Red. masses --      2.3254                 1.3951                 1.1324
 Frc consts  --      1.9332                 1.1785                 0.9713
 IR Inten    --     44.5540                15.4185                 2.1450

                     43                     44                     45
                      A                      A                      A
 Frequencies --   1289.1329              1325.9867              1343.8547
 Red. masses --      3.0401                 4.3435                 1.3373
 Frc consts  --      2.9767                 4.4996                 1.4230
 IR Inten    --     12.1406                 7.2085                 2.4230

                     46                     47                     48
                      A                      A                      A
 Frequencies --   1358.4808              1386.1643              1458.5175
 Red. masses --      1.4637                 2.5506                 1.1933
 Frc consts  --      1.5915                 2.8875                 1.4957
 IR Inten    --     15.0648               876.9881                26.2931

                     49                     50                     51
                      A                      A                      A
 Frequencies --   1488.1717              1488.4829              1497.0869
 Red. masses --      1.2471                 1.5947                 1.9961
 Frc consts  --      1.6273                 2.0817                 2.6359
 IR Inten    --     43.5379                18.1146               353.6870

                     52                     53                     54
                      A                      A                      A
 Frequencies --   1505.5537              1541.4687              1642.0461
 Red. masses --      1.0457                 2.3322                 4.5144
 Frc consts  --      1.3965                 3.2650                 7.1717
 IR Inten    --      9.5761                 4.9811               245.9585

                     55                     56                     57
                      A                      A                      A
 Frequencies --   1646.7723              1658.8406              1674.5110
 Red. masses --      1.2164                 7.0475                 5.8591
 Frc consts  --      1.9435                11.4259                 9.6795
 IR Inten    --     25.9196               151.5851                 7.9260

                     58                     59                     60
                      A                      A                      A
 Frequencies --   3058.4630              3127.5404              3160.6099
 Red. masses --      1.0342                 1.1043                 1.1039
 Frc consts  --      5.7001                 6.3644                 6.4970
 IR Inten    --     35.3345                21.8994                18.6115

                     61                     62                     63
                      A                      A                      A
 Frequencies --   3180.5954              3194.5539              3200.4361
 Red. masses --      1.0591                 1.0858                 1.0881
 Frc consts  --      6.3127                 6.5284                 6.5663
 IR Inten    --     16.3850                 1.0280                 0.4078

                     64                     65                     66
                      A                      A                      A
 Frequencies --   3207.4143              3214.6907              3222.8878
 Red. masses --      1.0918                 1.0954                 1.0990
 Frc consts  --      6.6178                 6.6696                 6.7255
 IR Inten    --     12.4375                34.7723                16.8726

                     67                     68                     69
                      A                      A                      A
 Frequencies --   3274.6923              3545.9666              3629.6034
 Red. masses --      1.1182                 1.0502                 1.0963
 Frc consts  --      7.0652                 7.7801                 8.5097
 IR Inten    --      0.2341                40.9285                41.1249

 - Thermochemistry -
 -------------------
 Temperature   298.150 Kelvin.  Pressure   1.00000 Atm.
 Atom     1 has atomic number  6 and mass  12.00000

 Molecular mass:   241.01023 amu.
 Principal axes and moments of inertia in atomic units:
                           1         2         3
     Eigenvalues --  1979.683604535.242125565.99171
           X            0.99900  -0.04464   0.00062
           Y            0.04460   0.99722  -0.05977
           Z            0.00205   0.05974   0.99821
 This molecule is an asymmetric top.
 Rotational symmetry number  1.
 Warning -- assumption of classical behavior for rotation
           may cause significant error
 Rotational temperatures (Kelvin)      0.04375     0.01910     0.01556
 Rotational constants (GHZ):           0.91163     0.39794     0.32424
    1 imaginary frequencies ignored.
 Zero-point vibrational energy     529848.7 (Joules/Mol)
                                  126.63688 (Kcal/Mol)
 Warning -- explicit consideration of  18 degrees of freedom as
           vibrations may cause significant error
 Vibrational temperatures:     44.61    59.50    77.49    89.62   130.94
          (Kelvin)            169.09   241.77   271.58   284.56   372.13
                              437.82   518.78   576.00   590.93   603.15
                              701.89   814.40   861.41   913.37   984.96
                             1043.00  1080.67  1138.70  1180.27  1267.21
                             1373.26  1389.82  1407.62  1451.65  1459.17
                             1476.13  1484.85  1515.15  1530.17  1549.27
                             1601.31  1659.36  1703.45  1709.03  1722.76
                             1736.00  1854.77  1907.80  1933.51  1954.55
                             1994.38  2098.48  2141.15  2141.59  2153.97
                             2166.16  2217.83  2362.54  2369.34  2386.70
                             2409.25  4400.45  4499.83  4547.41  4576.17
                             4596.25  4604.71  4614.75  4625.22  4637.02
                             4711.55  5101.86  5222.19

 Zero-point correction=                           0.201809 (Hartree/Particle)
 Thermal correction to Energy=                    0.215145
 Thermal correction to Enthalpy=                  0.216089
 Thermal correction to Gibbs Free Energy=         0.159047
 Sum of electronic and zero-point Energies=          -3092.257522
 Sum of electronic and thermal Energies=             -3092.244185
 Sum of electronic and thermal Enthalpies=           -3092.243241
 Sum of electronic and thermal Free Energies=        -3092.300284

                     E (Thermal)             CV                S
                      KCal/Mol        Cal/Mol-Kelvin    Cal/Mol-Kelvin
 Total                  135.005             47.445            120.056
 Electronic               0.000              0.000              0.000
 Translational            0.889              2.981             42.340
 Rotational               0.889              2.981             32.280
 Vibrational            133.228             41.483             45.436
 Vibration     1          0.594              1.984              5.764
 Vibration     2          0.594              1.981              5.193
 Vibration     3          0.596              1.976              4.670
 Vibration     4          0.597              1.972              4.383
 Vibration     5          0.602              1.956              3.638
 Vibration     6          0.608              1.935              3.141
 Vibration     7          0.625              1.882              2.457
 Vibration     8          0.633              1.855              2.240
 Vibration     9          0.637              1.843              2.154
 Vibration    10          0.667              1.748              1.671
 Vibration    11          0.695              1.666              1.393
 Vibration    12          0.735              1.553              1.120
 Vibration    13          0.766              1.469              0.961
 Vibration    14          0.775              1.447              0.924
 Vibration    15          0.782              1.428              0.895
 Vibration    16          0.844              1.277              0.689
 Vibration    17          0.922              1.105              0.512
 Vibration    18          0.957              1.035              0.452

 Optimization completed.
    -- Stationary point found.
 Normal termination of Gaussian 16 at Wed Feb 10 23:53:28 2021.
