 Gaussian 16, Revision A.03,
 Gaussian 16:  ES64L-G16RevA.03 25-Dec-2016

 ----------------------------------------------------------------------
 # wB97XD def2tzvp, opt=(ts, noeigen, calcfc, maxcycles=70, maxstep=1),
  freq=noraman, scrf=(iefpcm, solvent=water)
 ----------------------------------------------------------------------

 ------------------------
 0_iteration/TS-260-0.out
 ------------------------
 Symbolic Z-matrix:
 Charge =  0 Multiplicity = 1

 SCF Done:  E(RwB97XD) =  -441.661109546     A.U. after   14 cycles
 SCF Done:  E(RwB97XD) =  -441.661085429     A.U. after   10 cycles
 SCF Done:  E(RwB97XD) =  -441.661064954     A.U. after   10 cycles
 SCF Done:  E(RwB97XD) =  -441.661048197     A.U. after   10 cycles
 SCF Done:  E(RwB97XD) =  -441.661035340     A.U. after   10 cycles
 SCF Done:  E(RwB97XD) =  -441.661026820     A.U. after   10 cycles
 SCF Done:  E(RwB97XD) =  -441.661023942     A.U. after   10 cycles
 SCF Done:  E(RwB97XD) =  -441.661030845     A.U. after   10 cycles
 SCF Done:  E(RwB97XD) =  -441.661050120     A.U. after   10 cycles
 SCF Done:  E(RwB97XD) =  -441.661080278     A.U. after   10 cycles
 SCF Done:  E(RwB97XD) =  -441.662740644     A.U. after   10 cycles
 SCF Done:  E(RwB97XD) =  -441.662785207     A.U. after   10 cycles
 SCF Done:  E(RwB97XD) =  -441.662822425     A.U. after   10 cycles
 SCF Done:  E(RwB97XD) =  -441.662856703     A.U. after   10 cycles
 SCF Done:  E(RwB97XD) =  -441.662886200     A.U. after    9 cycles
 SCF Done:  E(RwB97XD) =  -441.662908311     A.U. after    9 cycles
 SCF Done:  E(RwB97XD) =  -441.662919652     A.U. after    9 cycles
 SCF Done:  E(RwB97XD) =  -441.662920793     A.U. after    9 cycles
 SCF Done:  E(RwB97XD) =  -441.662920643     A.U. after    7 cycles
 Optimization completed.
    -- Stationary point found.
 Normal termination of Gaussian 16 at Tue Feb  9 07:49:51 2021.

 ---------------------------------------------------------------------
 #N Geom=AllCheck Guess=TCheck SCRF=Check GenChk RwB97XD/def2TZVP Freq
 ---------------------------------------------------------------------

 Structure from the checkpoint file:  "/beegfs/scratch/user/q/tla25/Gau-53214.chk"
 ------------------------
 0_iteration/TS-260-0.out
 ------------------------
 Charge =  0 Multiplicity = 1

                         Standard orientation:
 ---------------------------------------------------------------------
 Center     Atomic      Atomic             Coordinates (Angstroms)
 Number     Number       Type             X           Y           Z
 ---------------------------------------------------------------------
      1          6           0        0.099695    0.983176    0.306272
      2          6           0        1.278683    0.250125    0.003300
      3          8           0        2.330271    0.718336   -0.430557
      4          6           0       -1.037430    0.338155    0.794539
      5          6           0       -3.351127   -1.003727   -0.083101
      6          1           0       -3.949569   -1.403813   -0.901785
      7          1           0       -3.068582   -1.817793    0.582781
      8          1           0       -3.947579   -0.284491    0.476010
      9          7           0       -2.139185   -0.343070   -0.561518
     10          1           0       -1.535250   -0.976987   -1.071134
     11          1           0       -2.347520    0.441774   -1.166949
     12          1           0       -1.812504    0.956016    1.238564
     13          1           0       -0.913534   -0.618834    1.286870
     14          6           0        0.070696    2.442766   -0.064665
     15          1           0       -0.840587    2.912431    0.312271
     16          1           0        0.919907    2.989273    0.354219
     17          1           0        0.097087    2.609418   -1.148058
     18          8           0        1.175797   -1.097486    0.230398
     19          6           0        2.342762   -1.866124   -0.000563
     20          1           0        2.074888   -2.894907    0.231559
     21          1           0        2.665225   -1.796479   -1.040607
     22          1           0        3.164096   -1.547147    0.643474
 ---------------------------------------------------------------------

 SCF Done:  E(RwB97XD) =  -441.662920643     A.U. after    1 cycles

 The electronic state is 1-A.
 Alpha  occ. eigenvalues --  -19.26884 -19.19830 -14.48148 -10.37722 -10.32065
 Alpha  occ. eigenvalues --  -10.31829 -10.31790 -10.26261 -10.24437  -1.17854
 Alpha  occ. eigenvalues --   -1.08232  -1.03593  -0.88994  -0.80760  -0.79218
 Alpha  occ. eigenvalues --   -0.77142  -0.70326  -0.63307  -0.62311  -0.58390
 Alpha  occ. eigenvalues --   -0.55836  -0.55714  -0.54401  -0.52808  -0.50830
 Alpha  occ. eigenvalues --   -0.49310  -0.48814  -0.47971  -0.45205  -0.44665
 Alpha  occ. eigenvalues --   -0.43550  -0.42996  -0.42072  -0.36965  -0.33958
 Alpha  occ. eigenvalues --   -0.25525
 Alpha virt. eigenvalues --    0.07599   0.10002   0.13390   0.13802   0.14938
 Alpha virt. eigenvalues --    0.16023   0.16769   0.17564   0.18295   0.19011
 Alpha virt. eigenvalues --    0.20105   0.20665   0.20871   0.21010   0.22429

 Mulliken charges:
               1
     1  C   -0.234072
     2  C    0.401759
     3  O   -0.543023
     4  C   -0.197747
     5  C   -0.273455
     6  H    0.151952
     7  H    0.149292
     8  H    0.150308
     9  N   -0.302194
    10  H    0.278337
    11  H    0.280545
    12  H    0.154721
    13  H    0.154042
    14  C   -0.355628
    15  H    0.114654
    16  H    0.109847
    17  H    0.105377
    18  O   -0.321652
    19  C   -0.190517
    20  H    0.131144
    21  H    0.118009
    22  H    0.118301
 Sum of Mulliken charges =  -0.00000

 Dipole moment (field-independent basis, Debye):
    X=             -9.7895    Y=             -4.0812    Z=             -0.9843  Tot=             10.6518
 Quadrupole moment (field-independent basis, Debye-Ang):
   XX=            -50.0339   YY=            -54.7675   ZZ=            -54.9468
   XY=             -5.5685   XZ=              5.2430   YZ=              1.4221

  Exact polarizability: 168.405   9.926 122.551  -4.586  -0.483  99.084
 Approx polarizability: 122.917   7.556  96.944  -4.247  -0.809  85.310

 ******    1 imaginary frequencies (negative Signs) ******

                      1                      2                      3
                      A                      A                      A
 Frequencies --   -369.3289                47.0298                77.1194
 Red. masses --      6.4973                 3.1775                 2.9319
 Frc consts  --      0.5222                 0.0041                 0.0103
 IR Inten    --   1122.6206                 0.5228                 2.6857

                      4                      5                      6
                      A                      A                      A
 Frequencies --     82.2765               112.8064               118.7649
 Red. masses --      1.9928                 1.1490                 2.4458
 Frc consts  --      0.0079                 0.0086                 0.0203
 IR Inten    --      7.1605                 2.5831                13.8484

                      7                      8                      9
                      A                      A                      A
 Frequencies --    146.8313               169.1966               178.0312
 Red. masses --      1.6003                 1.5164                 1.4626
 Frc consts  --      0.0203                 0.0256                 0.0273
 IR Inten    --      2.3361                 4.3633                 2.8545

                     10                     11                     12
                      A                      A                      A
 Frequencies --    214.5898               238.6625               338.7037
 Red. masses --      2.3382                 3.3508                 4.0014
 Frc consts  --      0.0634                 0.1125                 0.2705
 IR Inten    --      3.5445                19.4062                38.6500

                     13                     14                     15
                      A                      A                      A
 Frequencies --    376.6734               445.0810               523.3669
 Red. masses --      2.3880                 5.6122                 3.4879
 Frc consts  --      0.1996                 0.6550                 0.5629
 IR Inten    --      2.5774               194.8118                15.8441

                     16                     17                     18
                      A                      A                      A
 Frequencies --    644.0028               650.2540               791.7928
 Red. masses --      1.8204                 1.7351                 7.8420
 Frc consts  --      0.4448                 0.4323                 2.8967
 IR Inten    --      8.3476                18.2996                53.7824

                     19                     20                     21
                      A                      A                      A
 Frequencies --    823.9441               927.4445               973.7045
 Red. masses --      4.5711                 1.7388                 1.7815
 Frc consts  --      1.8284                 0.8812                 0.9952
 IR Inten    --     28.2296                 6.1232                52.8400

                     22                     23                     24
                      A                      A                      A
 Frequencies --   1017.5717              1034.5591              1057.6999
 Red. masses --      1.1743                 1.2161                 1.7722
 Frc consts  --      0.7164                 0.7669                 1.1681
 IR Inten    --      9.4521                65.3548                61.5734

                     25                     26                     27
                      A                      A                      A
 Frequencies --   1064.7916              1079.7158              1151.0343
 Red. masses --      1.8422                 3.5000                 2.1654
 Frc consts  --      1.2306                 2.4040                 1.6903
 IR Inten    --     28.1210               191.4959               216.9553

                     28                     29                     30
                      A                      A                      A
 Frequencies --   1179.8320              1188.2831              1208.3937
 Red. masses --      1.3049                 1.5216                 1.3816
 Frc consts  --      1.0702                 1.2659                 1.1887
 IR Inten    --     29.2137               403.6040                50.8056

                     31                     32                     33
                      A                      A                      A
 Frequencies --   1217.8182              1240.3937              1344.6009
 Red. masses --      1.3785                 1.3084                 1.3192
 Frc consts  --      1.2046                 1.1861                 1.4052
 IR Inten    --    115.9808                99.2396                 1.8204

                     34                     35                     36
                      A                      A                      A
 Frequencies --   1381.5036              1393.8188              1417.5203
 Red. masses --      1.6106                 2.9690                 1.4454
 Frc consts  --      1.8111                 3.3984                 1.7112
 IR Inten    --    111.6569               275.2471                 7.6397

                     37                     38                     39
                      A                      A                      A
 Frequencies --   1463.6878              1468.8118              1478.8449
 Red. masses --      1.1805                 1.0468                 1.1723
 Frc consts  --      1.4901                 1.3306                 1.5105
 IR Inten    --     10.1550                10.4138                48.3263

                     40                     41                     42
                      A                      A                      A
 Frequencies --   1480.3486              1491.8550              1495.0636
 Red. masses --      1.0821                 1.0399                 1.0829
 Frc consts  --      1.3972                 1.3636                 1.4262
 IR Inten    --     24.1622                14.9252                33.9367

                     43                     44                     45
                      A                      A                      A
 Frequencies --   1499.8521              1506.4167              1528.9812
 Red. masses --      1.1032                 1.0329                 1.9216
 Frc consts  --      1.4622                 1.3811                 2.6468
 IR Inten    --      6.8382                11.3244               226.5626

                     46                     47                     48
                      A                      A                      A
 Frequencies --   1650.2209              1668.1611              3010.3228
 Red. masses --      1.0984                 9.5946                 1.0455
 Frc consts  --      1.7623                15.7309                 5.5819
 IR Inten    --    101.1108              1200.0627               112.8663

                     49                     50                     51
                      A                      A                      A
 Frequencies --   3050.9646              3064.3681              3067.2128
 Red. masses --      1.0312                 1.0912                 1.0336
 Frc consts  --      5.6556                 6.0373                 5.7289
 IR Inten    --     75.9865                62.5799                50.3571

                     52                     53                     54
                      A                      A                      A
 Frequencies --   3106.8804              3121.0447              3130.5476
 Red. masses --      1.1002                 1.1061                 1.0612
 Frc consts  --      6.2571                 6.3483                 6.1274
 IR Inten    --     41.6899                51.3903                60.5231

                     55                     56                     57
                      A                      A                      A
 Frequencies --   3145.7242              3156.4584              3161.3841
 Red. masses --      1.1049                 1.1044                 1.1058
 Frc consts  --      6.4417                 6.4832                 6.5116
 IR Inten    --     17.1933                32.6191                18.9263

                     58                     59                     60
                      A                      A                      A
 Frequencies --   3217.8828              3530.9583              3614.5176
 Red. masses --      1.1138                 1.0507                 1.0969
 Frc consts  --      6.7953                 7.7185                 8.4436
 IR Inten    --     10.3865                19.7103                46.2363

 - Thermochemistry -
 -------------------
 Temperature   298.150 Kelvin.  Pressure   1.00000 Atm.
 Atom     1 has atomic number  6 and mass  12.00000

 Molecular mass:   131.09463 amu.
 Principal axes and moments of inertia in atomic units:
                           1         2         3
     Eigenvalues --   864.258381818.492862487.68294
           X            0.99992  -0.01297   0.00121
           Y            0.01297   0.99992   0.00085
           Z           -0.00123  -0.00083   1.00000
 This molecule is an asymmetric top.
 Rotational symmetry number  1.
 Warning -- assumption of classical behavior for rotation
           may cause significant error
 Rotational temperatures (Kelvin)      0.10022     0.04763     0.03482
 Rotational constants (GHZ):           2.08820     0.99244     0.72547
    1 imaginary frequencies ignored.
 Zero-point vibrational energy     502242.1 (Joules/Mol)
                                  120.03874 (Kcal/Mol)
 Warning -- explicit consideration of  14 degrees of freedom as
           vibrations may cause significant error
 Vibrational temperatures:     67.67   110.96   118.38   162.30   170.88
          (Kelvin)            211.26   243.44   256.15   308.75   343.38
                              487.32   541.95   640.37   753.01   926.58
                              935.57  1139.21  1185.47  1334.39  1400.94
                             1464.06  1488.50  1521.79  1532.00  1553.47
                             1656.08  1697.52  1709.67  1738.61  1752.17
                             1784.65  1934.58  1987.68  2005.39  2039.50
                             2105.92  2113.29  2127.73  2129.89  2146.45
                             2151.06  2157.95  2167.40  2199.86  2374.30
                             2400.11  4331.18  4389.66  4408.94  4413.04
                             4470.11  4490.49  4504.16  4526.00  4541.44
                             4548.53  4629.82  5080.26  5200.48

 Zero-point correction=                           0.191294 (Hartree/Particle)
 Thermal correction to Energy=                    0.202855
 Thermal correction to Enthalpy=                  0.203799
 Thermal correction to Gibbs Free Energy=         0.153162
 Sum of electronic and zero-point Energies=           -441.471627
 Sum of electronic and thermal Energies=              -441.460066
 Sum of electronic and thermal Enthalpies=            -441.459122
 Sum of electronic and thermal Free Energies=         -441.509759

                     E (Thermal)             CV                S
                      KCal/Mol        Cal/Mol-Kelvin    Cal/Mol-Kelvin
 Total                  127.293             38.800            106.575
 Electronic               0.000              0.000              0.000
 Translational            0.889              2.981             40.525
 Rotational               0.889              2.981             29.748
 Vibrational            125.516             32.838             36.302
 Vibration     1          0.595              1.979              4.939
 Vibration     2          0.599              1.964              3.963
 Vibration     3          0.600              1.961              3.836
 Vibration     4          0.607              1.939              3.220
 Vibration     5          0.609              1.934              3.120
 Vibration     6          0.617              1.906              2.713
 Vibration     7          0.625              1.880              2.444
 Vibration     8          0.628              1.869              2.349
 Vibration     9          0.645              1.819              2.004
 Vibration    10          0.657              1.781              1.813
 Vibration    11          0.719              1.598              1.218
 Vibration    12          0.747              1.520              1.052
 Vibration    13          0.804              1.372              0.811
 Vibration    14          0.878              1.198              0.602

 Optimization completed.
    -- Stationary point found.
 Normal termination of Gaussian 16 at Tue Feb  9 08:00:17 2021.
