 Gaussian 16, Revision A.03,
 Gaussian 16:  ES64L-G16RevA.03 25-Dec-2016

 ----------------------------------------------------------------------
 # wB97XD def2tzvp, opt=(ts, noeigen, calcfc, maxcycles=70, maxstep=8),
  freq=noraman, scrf=(iefpcm, solvent=water)
 ----------------------------------------------------------------------

 -----------------------
 1_iteration/TS-21-1.out
 -----------------------
 Symbolic Z-matrix:
 Charge =  0 Multiplicity = 1

 SCF Done:  E(RwB97XD) =  -883.882555465     A.U. after   14 cycles
 Optimization completed.
    -- Stationary point found.
 Normal termination of Gaussian 16 at Thu Apr 15 06:33:15 2021.

 ---------------------------------------------------------------------
 #N Geom=AllCheck Guess=TCheck SCRF=Check GenChk RwB97XD/def2TZVP Freq
 ---------------------------------------------------------------------

 Structure from the checkpoint file:  "/beegfs/scratch/user/q/tla25/Gau-231566.chk"
 -----------------------
 1_iteration/TS-21-1.out
 -----------------------
 Charge =  0 Multiplicity = 1

                         Standard orientation:
 ---------------------------------------------------------------------
 Center     Atomic      Atomic             Coordinates (Angstroms)
 Number     Number       Type             X           Y           Z
 ---------------------------------------------------------------------
      1          6           0        0.609400   -1.294060   -0.640281
      2          6           0        2.028290   -1.426259   -0.594091
      3          8           0        2.656161   -2.341669   -1.164551
      4          6           0       -0.101000   -0.326760    0.154419
      5          6           0        0.086821   -2.188420    2.143289
      6          1           0        0.541631   -2.424210    3.103399
      7          1           0       -0.962499   -2.470490    2.154139
      8          1           0        0.598711   -2.732090    1.352459
      9          7           0        0.219540   -0.755020    1.863789
     10          1           0       -0.277490   -0.201040    2.551929
     11          1           0        1.205820   -0.506110    1.922599
     12          6           0       -1.615090   -0.329061   -0.019191
     13          6           0       -2.539260   -0.489751    1.004389
     14          6           0       -3.904710   -0.413041    0.752029
     15          6           0       -4.369230   -0.165371   -0.526741
     16          6           0       -3.453720    0.010389   -1.557021
     17          6           0       -2.097300   -0.068521   -1.303291
     18          1           0       -2.232530   -0.679981    2.022609
     19          1           0       -4.602020   -0.548152    1.569029
     20          1           0       -5.432220   -0.105692   -0.721781
     21          1           0       -3.798520    0.211179   -2.563551
     22          1           0       -1.391770    0.072400   -2.111981
     23          6           0        0.325789    1.145790    0.114479
     24          6           0        0.916239    1.644980   -1.044821
     25          6           0        1.234719    2.988961   -1.165241
     26          6           0        0.959768    3.867160   -0.128931
     27          6           0        0.350719    3.389060    1.021569
     28          6           0        0.028459    2.046020    1.136389
     29          1           0        1.128429    0.958890   -1.854231
     30          1           0        1.698729    3.347771   -2.075181
     31          1           0        1.209108    4.916550   -0.219111
     32          1           0        0.114658    4.064640    1.833729
     33          1           0       -0.482911    1.725710    2.034389
     34          6           0       -0.135339   -2.448240   -1.275761
     35          1           0       -1.025499   -2.728760   -0.707841
     36          1           0       -0.472449   -2.246180   -2.299821
     37          1           0        0.515531   -3.321330   -1.323051
     38          7           0        2.771390   -0.553839    0.223329
     39          6           0        4.217860   -0.605478    0.151829
     40          1           0        2.421360    0.389371    0.257449
     41          1           0        4.621740    0.140432    0.835959
     42          1           0        4.577370   -1.585618    0.460329
     43          1           0        4.604540   -0.406318   -0.853061
 ---------------------------------------------------------------------

 SCF Done:  E(RwB97XD) =  -883.882555465     A.U. after    1 cycles

 The electronic state is 1-A.
 Alpha  occ. eigenvalues --  -19.17939 -14.50635 -14.42818 -10.36255 -10.35144
 Alpha  occ. eigenvalues --  -10.32048 -10.31142 -10.31039 -10.29928 -10.29636
 Alpha  occ. eigenvalues --  -10.29621 -10.29590 -10.29486 -10.29408 -10.29349
 Alpha  occ. eigenvalues --  -10.29305 -10.29228 -10.29114 -10.29053 -10.25580
 Alpha  occ. eigenvalues --  -10.23895  -1.10257  -1.06237  -0.99252  -0.98108
 Alpha  occ. eigenvalues --   -0.96814  -0.91410  -0.86006  -0.85633  -0.85449
 Alpha  occ. eigenvalues --   -0.84617  -0.80164  -0.78501  -0.77338  -0.71774
 Alpha  occ. eigenvalues --   -0.71129  -0.70342  -0.70261  -0.66909  -0.65652
 Alpha  occ. eigenvalues --   -0.63094  -0.62522  -0.60294  -0.58600  -0.57626
 Alpha  occ. eigenvalues --   -0.55981  -0.55772  -0.54670  -0.54135  -0.53422
 Alpha  occ. eigenvalues --   -0.52988  -0.51699  -0.51365  -0.51060  -0.50731
 Alpha  occ. eigenvalues --   -0.49752  -0.48803  -0.47677  -0.47386  -0.46918
 Alpha  occ. eigenvalues --   -0.46435  -0.45480  -0.44593  -0.44366  -0.43853
 Alpha  occ. eigenvalues --   -0.42989  -0.42724  -0.42089  -0.41477  -0.35155
 Alpha  occ. eigenvalues --   -0.34717  -0.33994  -0.33277  -0.32222  -0.31337
 Alpha  occ. eigenvalues --   -0.24526
 Alpha virt. eigenvalues --    0.02750   0.03951   0.05405   0.06238   0.08352
 Alpha virt. eigenvalues --    0.10576   0.11977   0.12482   0.13244   0.14103
 Alpha virt. eigenvalues --    0.14831   0.15322   0.15757   0.16342   0.17016

 Mulliken charges:
               1
     1  C   -0.347206
     2  C    0.266458
     3  O   -0.582371
     4  C    0.468351
     5  C   -0.317042
     6  H    0.167410
     7  H    0.159722
     8  H    0.175391
     9  N   -0.254548
    10  H    0.276467
    11  H    0.281736
    12  C    0.150760
    13  C   -0.270774
    14  C   -0.167990
    15  C   -0.147990
    16  C   -0.131375
    17  C   -0.288938
    18  H    0.149349
    19  H    0.142750
    20  H    0.143724
    21  H    0.141766
    22  H    0.170148
    23  C    0.052346
    24  C   -0.268365
    25  C   -0.120326
    26  C   -0.138221
    27  C   -0.165614
    28  C   -0.228704
    29  H    0.174631
    30  H    0.144978
    31  H    0.146744
    32  H    0.144948
    33  H    0.132860
    34  C   -0.405611
    35  H    0.125892
    36  H    0.107323
    37  H    0.123344
    38  N   -0.353981
    39  C   -0.278296
    40  H    0.255141
    41  H    0.130329
    42  H    0.124120
    43  H    0.110663
 Sum of Mulliken charges =  -0.00000

 Dipole moment (field-independent basis, Debye):
    X=             -4.7933    Y=              6.0922    Z=              8.4866  Tot=             11.4940
 Quadrupole moment (field-independent basis, Debye-Ang):
   XX=           -130.3892   YY=           -133.7744   ZZ=           -110.4087
   XY=             18.7096   XZ=              6.5677   YZ=            -14.3174

  Exact polarizability: 338.681   2.603 300.136 -24.597   5.772 312.324
 Approx polarizability: 259.523  -0.147 240.777 -20.665   4.111 271.569

 ******    1 imaginary frequencies (negative Signs) ******

                      1                      2                      3
                      A                      A                      A
 Frequencies --   -371.3144                31.5895                51.1414
 Red. masses --      4.8565                 3.2353                 3.6188
 Frc consts  --      0.3945                 0.0019                 0.0056
 IR Inten    --    519.6841                 1.4132                 3.0830

                      4                      5                      6
                      A                      A                      A
 Frequencies --     58.0559                64.9281                86.2206
 Red. masses --      3.7561                 4.0382                 4.6679
 Frc consts  --      0.0075                 0.0100                 0.0204
 IR Inten    --      3.8020                 0.6557                 5.3505

                      7                      8                      9
                      A                      A                      A
 Frequencies --     95.4768               120.2642               132.0707
 Red. masses --      4.2352                 2.6483                 1.2681
 Frc consts  --      0.0227                 0.0226                 0.0130
 IR Inten    --      9.4250                 6.8873                 1.3978

                     10                     11                     12
                      A                      A                      A
 Frequencies --    140.4143               157.4749               175.5680
 Red. masses --      1.3940                 2.2081                 1.3949
 Frc consts  --      0.0162                 0.0323                 0.0253
 IR Inten    --      4.7355                 1.8528                 0.0561

                     13                     14                     15
                      A                      A                      A
 Frequencies --    175.6628               196.5578               210.9123
 Red. masses --      3.0854                 2.4459                 1.9564
 Frc consts  --      0.0561                 0.0557                 0.0513
 IR Inten    --      6.1611                 3.8210                 8.7219

                     16                     17                     18
                      A                      A                      A
 Frequencies --    247.5022               258.6962               275.4016
 Red. masses --      4.0343                 3.0447                 3.7933
 Frc consts  --      0.1456                 0.1201                 0.1695
 IR Inten    --     13.8978                14.7339                 0.7998

                     19                     20                     21
                      A                      A                      A
 Frequencies --    303.4127               304.6448               328.2559
 Red. masses --      4.1668                 3.9223                 3.5647
 Frc consts  --      0.2260                 0.2145                 0.2263
 IR Inten    --      2.6859                19.0552                12.2518

                     22                     23                     24
                      A                      A                      A
 Frequencies --    354.9880               385.1933               415.7079
 Red. masses --      3.0257                 4.6635                 4.8897
 Frc consts  --      0.2246                 0.4077                 0.4979
 IR Inten    --     17.1923                23.7774                 7.7198

                     25                     26                     27
                      A                      A                      A
 Frequencies --    422.3692               426.7986               487.9865
 Red. masses --      2.9267                 2.9597                 3.9969
 Frc consts  --      0.3076                 0.3177                 0.5608
 IR Inten    --      0.1425                 1.6398                22.0876

                     28                     29                     30
                      A                      A                      A
 Frequencies --    514.0725               545.0243               588.1715
 Red. masses --      3.5490                 3.5800                 1.7165
 Frc consts  --      0.5526                 0.6266                 0.3499
 IR Inten    --      9.0396                 5.1421               186.7564

                     31                     32                     33
                      A                      A                      A
 Frequencies --    621.3390               637.3016               637.7356
 Red. masses --      3.0365                 5.4124                 6.2223
 Frc consts  --      0.6907                 1.2952                 1.4910
 IR Inten    --     84.0344                 2.4686                 1.3387

                     34                     35                     36
                      A                      A                      A
 Frequencies --    659.7728               690.8844               718.3057
 Red. masses --      5.9247                 4.4388                 2.1213
 Frc consts  --      1.5195                 1.2483                 0.6449
 IR Inten    --     27.6728                67.9908                39.6337

                     37                     38                     39
                      A                      A                      A
 Frequencies --    725.3732               732.7802               772.1250
 Red. masses --      1.6356                 1.5640                 3.0942
 Frc consts  --      0.5070                 0.4948                 1.0869
 IR Inten    --     65.7338               141.0789                 3.1797

                     40                     41                     42
                      A                      A                      A
 Frequencies --    779.2685               803.0562               814.9041
 Red. masses --      2.1777                 2.8863                 2.5139
 Frc consts  --      0.7791                 1.0967                 0.9836
 IR Inten    --     56.1012                85.0728                98.3377

                     43                     44                     45
                      A                      A                      A
 Frequencies --    873.2832               879.0625               898.1906
 Red. masses --      1.2502                 1.2539                 2.3601
 Frc consts  --      0.5618                 0.5709                 1.1218
 IR Inten    --      0.4604                 1.2944                11.5708

                     46                     47                     48
                      A                      A                      A
 Frequencies --    928.9103               957.5814               963.9776
 Red. masses --      2.7821                 1.6242                 1.5600
 Frc consts  --      1.4144                 0.8775                 0.8541
 IR Inten    --      5.0422                16.1753                13.4632

                     49                     50                     51
                      A                      A                      A
 Frequencies --    997.0967              1012.0595              1020.2071
 Red. masses --      1.7638                 1.3893                 1.4534
 Frc consts  --      1.0332                 0.8384                 0.8913
 IR Inten    --     48.5840                 5.8228                 0.4760

                     52                     53                     54
                      A                      A                      A
 Frequencies --   1024.4737              1026.0382              1030.5715
 Red. masses --      4.5733                 5.3591                 1.3185
 Frc consts  --      2.8280                 3.3241                 0.8251
 IR Inten    --      4.1198                 4.0233                 0.9569

                     55                     56                     57
                      A                      A                      A
 Frequencies --   1035.4120              1038.1656              1050.6573
 Red. masses --      1.3935                 1.6013                 2.4073
 Frc consts  --      0.8802                 1.0169                 1.5657
 IR Inten    --     38.4423                63.8261                62.2694

                     58                     59                     60
                      A                      A                      A
 Frequencies --   1067.0482              1069.5307              1072.3596
 Red. masses --      2.1304                 2.2936                 1.4442
 Frc consts  --      1.4291                 1.5458                 0.9785
 IR Inten    --     14.9381                12.2692                15.2390

                     61                     62                     63
                      A                      A                      A
 Frequencies --   1077.4326              1119.5052              1123.3993
 Red. masses --      2.6315                 1.4579                 1.4519
 Frc consts  --      1.7998                 1.0765                 1.0796
 IR Inten    --     30.6933                23.5391                 7.8193

                     64                     65                     66
                      A                      A                      A
 Frequencies --   1127.9077              1140.2803              1163.2858
 Red. masses --      1.5244                 1.3860                 1.5069
 Frc consts  --      1.1426                 1.0618                 1.2014
 IR Inten    --     42.1309                18.5731                86.6327

                     67                     68                     69
                      A                      A                      A
 Frequencies --   1184.6444              1185.6597              1198.4296
 Red. masses --      1.1429                 1.1420                 3.0853
 Frc consts  --      0.9450                 0.9459                 2.6108
 IR Inten    --      0.6863                 1.7136                61.8711

                     70                     71                     72
                      A                      A                      A
 Frequencies --   1206.9682              1219.2271              1221.2393
 Red. masses --      3.7309                 1.1509                 1.1708
 Frc consts  --      3.2022                 1.0080                 1.0288
 IR Inten    --     44.2816                 0.6939                 2.5038

                     73                     74                     75
                      A                      A                      A
 Frequencies --   1238.0937              1290.1982              1315.4382
 Red. masses --      3.7326                 1.3917                 4.0920
 Frc consts  --      3.3711                 1.3650                 4.1718
 IR Inten    --     52.0589                56.0249                 5.7565

                     76                     77                     78
                      A                      A                      A
 Frequencies --   1322.3296              1352.7974              1363.2821
 Red. masses --      4.6370                 2.3359                 1.6011
 Frc consts  --      4.7772                 2.5187                 1.7532
 IR Inten    --     18.9022               241.0251                42.7103

                     79                     80                     81
                      A                      A                      A
 Frequencies --   1371.9321              1378.0290              1388.7302
 Red. masses --      1.6798                 3.0680                 1.5625
 Frc consts  --      1.8629                 3.4326                 1.7754
 IR Inten    --    172.7969               149.4577                88.2552

                     82                     83                     84
                      A                      A                      A
 Frequencies --   1402.3888              1447.9821              1451.8831
 Red. masses --      1.2442                 1.1899                 1.2115
 Frc consts  --      1.4417                 1.4699                 1.5047
 IR Inten    --     50.9205                 2.8645                12.1629

                     85                     86                     87
                      A                      A                      A
 Frequencies --   1475.6720              1478.8973              1487.4178
 Red. masses --      1.0609                 1.0771                 2.1801
 Frc consts  --      1.3612                 1.3879                 2.8418
 IR Inten    --     14.3347                31.5765                 4.0230

                     88                     89                     90
                      A                      A                      A
 Frequencies --   1491.9011              1494.5903              1499.7811
 Red. masses --      2.0383                 1.0897                 1.1449
 Frc consts  --      2.6730                 1.4342                 1.5173
 IR Inten    --     43.9020                21.1325                 8.5853

                     91                     92                     93
                      A                      A                      A
 Frequencies --   1505.2235              1512.0508              1533.1975
 Red. masses --      1.0508                 1.0575                 1.4838
 Frc consts  --      1.4027                 1.4245                 2.0550
 IR Inten    --      9.8115                36.6950               219.8140

                     94                     95                     96
                      A                      A                      A
 Frequencies --   1540.5573              1544.5122              1612.3691
 Red. masses --      2.1470                 2.2420                 3.0136
 Frc consts  --      3.0021                 3.1511                 4.6160
 IR Inten    --      8.5820                 9.6220              1145.0486

                     97                     98                     99
                      A                      A                      A
 Frequencies --   1628.3859              1651.0588              1653.8896
 Red. masses --      1.2606                 5.0606                 5.6166
 Frc consts  --      1.9694                 8.1279                 9.0519
 IR Inten    --    121.4258                 1.7278                 8.0428

                    100                    101                    102
                      A                      A                      A
 Frequencies --   1671.9090              1676.7108              3004.5358
 Red. masses --      5.8071                 5.8789                 1.0532
 Frc consts  --      9.5638                 9.7379                 5.6016
 IR Inten    --      7.2822                 1.5679               156.8404

                    103                    104                    105
                      A                      A                      A
 Frequencies --   3028.3508              3070.7208              3087.8120
 Red. masses --      1.0470                 1.0842                 1.0328
 Frc consts  --      5.6575                 6.0232                 5.8021
 IR Inten    --    119.2479                55.1412                37.5546

                    106                    107                    108
                      A                      A                      A
 Frequencies --   3109.7533              3123.5825              3147.8048
 Red. masses --      1.0881                 1.0982                 1.1042
 Frc consts  --      6.1999                 6.3131                 6.4465
 IR Inten    --     50.3506                32.5023                31.4236

                    109                    110                    111
                      A                      A                      A
 Frequencies --   3172.7273              3187.5897              3196.8295
 Red. masses --      1.1050                 1.1059                 1.0859
 Frc consts  --      6.5538                 6.6203                 6.5386
 IR Inten    --      5.6491                10.6382                 1.3107

                    112                    113                    114
                      A                      A                      A
 Frequencies --   3198.0038              3204.3095              3204.6183
 Red. masses --      1.0858                 1.0883                 1.0888
 Frc consts  --      6.5428                 6.5834                 6.5878
 IR Inten    --      2.0748                 3.1085                 4.9645

                    115                    116                    117
                      A                      A                      A
 Frequencies --   3212.4714              3214.0801              3218.5081
 Red. masses --      1.0914                 1.0929                 1.0946
 Frc consts  --      6.6359                 6.6518                 6.6804
 IR Inten    --     17.2437                18.4790                32.5685

                    118                    119                    120
                      A                      A                      A
 Frequencies --   3221.8943              3226.1144              3231.3728
 Red. masses --      1.0963                 1.0989                 1.0947
 Frc consts  --      6.7052                 6.7384                 6.7344
 IR Inten    --     31.0758                14.9133                16.4724

                    121                    122                    123
                      A                      A                      A
 Frequencies --   3468.5610              3574.3993              3630.3717
 Red. masses --      1.0586                 1.0878                 1.0744
 Frc consts  --      7.5038                 8.1886                 8.3431
 IR Inten    --     71.5723                58.1498                99.8624

 - Thermochemistry -
 -------------------
 Temperature   298.150 Kelvin.  Pressure   1.00000 Atm.
 Atom     1 has atomic number  6 and mass  12.00000

 Molecular mass:   282.17321 amu.
 Principal axes and moments of inertia in atomic units:
                           1         2         3
     Eigenvalues --  4523.417846267.447648261.62478
           X            0.99981   0.01938   0.00371
           Y           -0.01932   0.99970  -0.01495
           Z           -0.00400   0.01488   0.99988
 This molecule is an asymmetric top.
 Rotational symmetry number  1.
 Warning -- assumption of classical behavior for rotation
           may cause significant error
 Rotational temperatures (Kelvin)      0.01915     0.01382     0.01048
 Rotational constants (GHZ):           0.39898     0.28795     0.21845
    1 imaginary frequencies ignored.
 Zero-point vibrational energy     966436.9 (Joules/Mol)
                                  230.98396 (Kcal/Mol)
 Warning -- explicit consideration of  29 degrees of freedom as
           vibrations may cause significant error
 Vibrational temperatures:     45.45    73.58    83.53    93.42   124.05
          (Kelvin)            137.37   173.03   190.02   202.02   226.57
                              252.60   252.74   282.80   303.46   356.10
                              372.21   396.24   436.54   438.32   472.29
                              510.75   554.21   598.11   607.70   614.07
                              702.10   739.64   784.17   846.25   893.97
                              916.93   917.56   949.27   994.03  1033.48
                             1043.65  1054.31  1110.92  1121.19  1155.42
                             1172.47  1256.46  1264.77  1292.30  1336.49
                             1377.75  1386.95  1434.60  1456.13  1467.85
                             1473.99  1476.24  1482.76  1489.73  1493.69
                             1511.66  1535.24  1538.82  1542.89  1550.19
                             1610.72  1616.32  1622.81  1640.61  1673.71
                             1704.44  1705.90  1724.27  1736.56  1754.20
                             1757.09  1781.34  1856.31  1892.62  1902.54
                             1946.37  1961.46  1973.90  1982.68  1998.07
                             2017.72  2083.32  2088.94  2123.16  2127.80
                             2140.06  2146.51  2150.38  2157.85  2165.68
                             2175.50  2205.93  2216.52  2222.21  2319.84
                             2342.88  2375.51  2379.58  2405.50  2412.41
                             4322.86  4357.12  4418.08  4442.67  4474.24
                             4494.14  4528.99  4564.85  4586.23  4599.52
                             4601.21  4610.29  4610.73  4622.03  4624.34
                             4630.72  4635.59  4641.66  4649.22  4990.49
                             5142.76  5223.30

 Zero-point correction=                           0.368096 (Hartree/Particle)
 Thermal correction to Energy=                    0.388131
 Thermal correction to Enthalpy=                  0.389075
 Thermal correction to Gibbs Free Energy=         0.319655
 Sum of electronic and zero-point Energies=           -883.514459
 Sum of electronic and thermal Energies=              -883.494424
 Sum of electronic and thermal Enthalpies=            -883.493480
 Sum of electronic and thermal Free Energies=         -883.562900

                     E (Thermal)             CV                S
                      KCal/Mol        Cal/Mol-Kelvin    Cal/Mol-Kelvin
 Total                  243.556             77.005            146.107
 Electronic               0.000              0.000              0.000
 Translational            0.889              2.981             42.810
 Rotational               0.889              2.981             33.815
 Vibrational            241.779             71.044             69.481
 Vibration     1          0.594              1.983              5.727
 Vibration     2          0.595              1.977              4.773
 Vibration     3          0.596              1.974              4.522
 Vibration     4          0.597              1.971              4.302
 Vibration     5          0.601              1.959              3.744
 Vibration     6          0.603              1.952              3.545
 Vibration     7          0.609              1.932              3.096
 Vibration     8          0.612              1.921              2.916
 Vibration     9          0.615              1.913              2.798
 Vibration    10          0.621              1.894              2.580
 Vibration    11          0.628              1.872              2.375
 Vibration    12          0.628              1.872              2.374
 Vibration    13          0.636              1.845              2.165
 Vibration    14          0.643              1.824              2.036
 Vibration    15          0.661              1.767              1.748
 Vibration    16          0.668              1.748              1.671
 Vibration    17          0.677              1.719              1.562
 Vibration    18          0.695              1.667              1.398
 Vibration    19          0.696              1.665              1.391
 Vibration    20          0.711              1.619              1.269
 Vibration    21          0.731              1.565              1.144
 Vibration    22          0.754              1.502              1.019
 Vibration    23          0.779              1.436              0.907
 Vibration    24          0.785              1.422              0.884
 Vibration    25          0.788              1.412              0.869
 Vibration    26          0.844              1.277              0.689
 Vibration    27          0.869              1.219              0.624
 Vibration    28          0.900              1.151              0.555
 Vibration    29          0.945              1.057              0.470

 Optimization completed.
    -- Stationary point found.
 Normal termination of Gaussian 16 at Thu Apr 15 08:06:27 2021.
