 Gaussian 16, Revision A.03,
 Gaussian 16:  ES64L-G16RevA.03 25-Dec-2016

 ----------------------------------------------------------------------
 # wB97XD def2tzvp, opt=(ts, noeigen, calcfc, maxcycles=70, maxstep=1),
  freq=noraman, scrf=(iefpcm, solvent=water)
 ----------------------------------------------------------------------

 ------------------------
 0_iteration/TS-243-0.out
 ------------------------
 Symbolic Z-matrix:
 Charge =  0 Multiplicity = 1

 SCF Done:  E(RwB97XD) =  -574.227739745     A.U. after   14 cycles
 SCF Done:  E(RwB97XD) =  -574.227735860     A.U. after   10 cycles
 SCF Done:  E(RwB97XD) =  -574.227737579     A.U. after   10 cycles
 SCF Done:  E(RwB97XD) =  -574.227745699     A.U. after   10 cycles
 SCF Done:  E(RwB97XD) =  -574.227772824     A.U. after   11 cycles
 SCF Done:  E(RwB97XD) =  -574.227818451     A.U. after   11 cycles
 SCF Done:  E(RwB97XD) =  -574.227880566     A.U. after   11 cycles
 SCF Done:  E(RwB97XD) =  -574.227958217     A.U. after   11 cycles
 SCF Done:  E(RwB97XD) =  -574.228066125     A.U. after   11 cycles
 SCF Done:  E(RwB97XD) =  -574.228197325     A.U. after   11 cycles
 SCF Done:  E(RwB97XD) =  -574.230204485     A.U. after   10 cycles
 SCF Done:  E(RwB97XD) =  -574.230204929     A.U. after   10 cycles
 SCF Done:  E(RwB97XD) =  -574.230206570     A.U. after   10 cycles
 SCF Done:  E(RwB97XD) =  -574.230206699     A.U. after    9 cycles
 SCF Done:  E(RwB97XD) =  -574.230206712     A.U. after    7 cycles
 SCF Done:  E(RwB97XD) =  -574.230206153     A.U. after    8 cycles
 SCF Done:  E(RwB97XD) =  -574.230206718     A.U. after    8 cycles
 SCF Done:  E(RwB97XD) =  -574.230206724     A.U. after    6 cycles
 SCF Done:  E(RwB97XD) =  -574.230206719     A.U. after    6 cycles
 Optimization completed.
    -- Stationary point found.
 Normal termination of Gaussian 16 at Tue Feb  9 11:24:40 2021.

 ---------------------------------------------------------------------
 #N Geom=AllCheck Guess=TCheck SCRF=Check GenChk RwB97XD/def2TZVP Freq
 ---------------------------------------------------------------------

 Structure from the checkpoint file:  "/beegfs/scratch/user/q/tla25/Gau-20436.chk"
 ------------------------
 0_iteration/TS-243-0.out
 ------------------------
 Charge =  0 Multiplicity = 1

                         Standard orientation:
 ---------------------------------------------------------------------
 Center     Atomic      Atomic             Coordinates (Angstroms)
 Number     Number       Type             X           Y           Z
 ---------------------------------------------------------------------
      1          6           0        0.530658    0.419677    0.449771
      2          6           0        1.030348    1.757189    0.209392
      3          8           0        2.242659    2.030123    0.179078
      4          6           0        1.478497   -0.529739    0.815191
      5          6           0        3.402578   -2.254959   -0.431456
      6          1           0        3.915431   -2.598607   -1.330956
      7          1           0        4.132883   -1.808354    0.242358
      8          1           0        2.947664   -3.110275    0.066073
      9          7           0        2.367425   -1.270178   -0.725147
     10          1           0        2.739597   -0.438833   -1.167792
     11          1           0        1.634504   -1.643818   -1.314875
     12          1           0        1.142241   -1.488716    1.191059
     13          1           0        2.408233   -0.180523    1.246250
     14          6           0       -0.869679    0.012441    0.203152
     15          6           0       -1.583295    0.425631   -0.929324
     16          6           0       -2.885703    0.007545   -1.159309
     17          6           0       -3.515412   -0.854098   -0.272773
     18          6           0       -2.824365   -1.284703    0.851843
     19          6           0       -1.529734   -0.850670    1.087823
     20          1           0       -1.103504    1.078834   -1.647612
     21          1           0       -3.405983    0.347045   -2.046996
     22          1           0       -4.530281   -1.184600   -0.454325
     23          1           0       -3.301737   -1.952317    1.559141
     24          1           0       -1.018453   -1.177882    1.985704
     25          7           0        0.124629    2.767517    0.008023
     26          1           0       -0.837437    2.642038    0.268779
     27          1           0        0.487839    3.703774    0.044574
 ---------------------------------------------------------------------

 SCF Done:  E(RwB97XD) =  -574.230206719     A.U. after    1 cycles

 The electronic state is 1-A.
 Alpha  occ. eigenvalues --  -19.19162 -14.47252 -14.43030 -10.36857 -10.31762
 Alpha  occ. eigenvalues --  -10.31504 -10.29581 -10.28467 -10.28462 -10.28113
 Alpha  occ. eigenvalues --  -10.28012 -10.27959 -10.25181  -1.11504  -1.02777
 Alpha  occ. eigenvalues --   -0.98505  -0.95905  -0.88898  -0.84361  -0.82620
 Alpha  occ. eigenvalues --   -0.78341  -0.73857  -0.69762  -0.68871  -0.63866
 Alpha  occ. eigenvalues --   -0.62915  -0.61198  -0.60106  -0.56056  -0.55845
 Alpha  occ. eigenvalues --   -0.54144  -0.52707  -0.52408  -0.50323  -0.50212
 Alpha  occ. eigenvalues --   -0.48862  -0.48423  -0.47587  -0.46221  -0.45913
 Alpha  occ. eigenvalues --   -0.42551  -0.42081  -0.41673  -0.34988  -0.34431
 Alpha  occ. eigenvalues --   -0.33168  -0.32621  -0.25341
 Alpha virt. eigenvalues --    0.05282   0.05771   0.07399   0.10468   0.13010
 Alpha virt. eigenvalues --    0.13794   0.14822   0.15374   0.16075   0.17184
 Alpha virt. eigenvalues --    0.17624   0.18108   0.18589   0.18861   0.19956

 Mulliken charges:
               1
     1  C   -0.136711
     2  C    0.295932
     3  O   -0.557248
     4  C   -0.195038
     5  C   -0.270076
     6  H    0.147684
     7  H    0.146046
     8  H    0.147704
     9  N   -0.332461
    10  H    0.276595
    11  H    0.276377
    12  H    0.156491
    13  H    0.154189
    14  C    0.146920
    15  C   -0.294123
    16  C   -0.120046
    17  C   -0.171905
    18  C   -0.142309
    19  C   -0.274926
    20  H    0.144194
    21  H    0.137491
    22  H    0.139131
    23  H    0.136851
    24  H    0.143239
    25  N   -0.485020
    26  H    0.275121
    27  H    0.255896
 Sum of Mulliken charges =  -0.00000

 Dipole moment (field-independent basis, Debye):
    X=              0.5428    Y=             -5.4293    Z=             -1.8530  Tot=              5.7624
 Quadrupole moment (field-independent basis, Debye-Ang):
   XX=            -73.5825   YY=            -71.9151   ZZ=            -74.8886
   XY=            -18.7101   XZ=             -3.9808   YZ=             -0.4544

  Exact polarizability: 246.700   0.470 195.284   7.243 -15.899 161.325
 Approx polarizability: 184.181   4.284 153.304   6.319 -14.846 140.000

 ******    1 imaginary frequencies (negative Signs) ******

                      1                      2                      3
                      A                      A                      A
 Frequencies --   -374.3768                39.4356                55.1961
 Red. masses --      6.0444                 3.7622                 3.8444
 Frc consts  --      0.4991                 0.0034                 0.0069
 IR Inten    --   1059.7597                 7.0762                 5.9962

                      4                      5                      6
                      A                      A                      A
 Frequencies --     71.2346                74.8864                90.1669
 Red. masses --      3.3827                 2.0363                 4.7780
 Frc consts  --      0.0101                 0.0067                 0.0229
 IR Inten    --     23.9359                 3.3319                12.2029

                      7                      8                      9
                      A                      A                      A
 Frequencies --    132.8308               172.1573               196.6053
 Red. masses --      3.2014                 1.2600                 3.1671
 Frc consts  --      0.0333                 0.0220                 0.0721
 IR Inten    --      0.2000                 5.6235                11.0181

                     10                     11                     12
                      A                      A                      A
 Frequencies --    243.7985               300.3169               326.0261
 Red. masses --      4.5392                 2.9155                 1.4225
 Frc consts  --      0.1590                 0.1549                 0.0891
 IR Inten    --     62.4613                42.8289               293.6500

                     13                     14                     15
                      A                      A                      A
 Frequencies --    373.3199               392.1570               428.2925
 Red. masses --      2.6486                 5.3026                 2.9734
 Frc consts  --      0.2175                 0.4805                 0.3214
 IR Inten    --     36.0710                17.6296                 3.3242

                     16                     17                     18
                      A                      A                      A
 Frequencies --    459.9444               501.6192               532.9394
 Red. masses --      2.0510                 2.4575                 1.9001
 Frc consts  --      0.2556                 0.3643                 0.3180
 IR Inten    --     72.2503                42.2721                18.8694

                     19                     20                     21
                      A                      A                      A
 Frequencies --    594.1806               620.9289               635.6175
 Red. masses --      2.6322                 1.2210                 6.0703
 Frc consts  --      0.5475                 0.2774                 1.4450
 IR Inten    --     13.3611                28.3667                 3.5394

                     22                     23                     24
                      A                      A                      A
 Frequencies --    647.2424               732.2312               751.6096
 Red. masses --      5.0155                 1.6643                 3.3484
 Frc consts  --      1.2379                 0.5257                 1.1145
 IR Inten    --     17.7539                76.6760                 4.8479

                     25                     26                     27
                      A                      A                      A
 Frequencies --    794.8686               807.2859               881.4828
 Red. masses --      4.4919                 3.2478                 1.5719
 Frc consts  --      1.6721                 1.2471                 0.7196
 IR Inten    --     12.3889               103.9979                12.0470

                     28                     29                     30
                      A                      A                      A
 Frequencies --    883.3135               953.1700               993.1743
 Red. masses --      1.4615                 1.4308                 1.1796
 Frc consts  --      0.6719                 0.7659                 0.6856
 IR Inten    --      1.8807                 5.9762                 8.5619

                     31                     32                     33
                      A                      A                      A
 Frequencies --   1011.7889              1013.8356              1021.3287
 Red. masses --      1.1323                 1.3874                 5.0909
 Frc consts  --      0.6829                 0.8402                 3.1288
 IR Inten    --    126.9990                 0.4758                 2.9358

                     34                     35                     36
                      A                      A                      A
 Frequencies --   1025.0348              1057.4593              1072.8143
 Red. masses --      1.2949                 2.5217                 3.1334
 Frc consts  --      0.8016                 1.6614                 2.1248
 IR Inten    --      0.0492                22.5338               193.0731

                     37                     38                     39
                      A                      A                      A
 Frequencies --   1080.6399              1099.1217              1114.1108
 Red. masses --      1.7828                 1.9089                 1.6000
 Frc consts  --      1.2266                 1.3587                 1.1701
 IR Inten    --     33.7098                44.0649                14.8850

                     40                     41                     42
                      A                      A                      A
 Frequencies --   1160.2814              1180.5059              1194.4171
 Red. masses --      1.3270                 1.1252                 1.1874
 Frc consts  --      1.0526                 0.9238                 0.9981
 IR Inten    --     41.7798                 1.4252               154.5014

                     43                     44                     45
                      A                      A                      A
 Frequencies --   1212.7706              1218.3993              1271.4196
 Red. masses --      1.3521                 1.1400                 2.8532
 Frc consts  --      1.1717                 0.9971                 2.7175
 IR Inten    --     70.7656                11.1118                 1.7994

                     46                     47                     48
                      A                      A                      A
 Frequencies --   1309.2010              1342.2151              1364.3289
 Red. masses --      4.3389                 1.3294                 1.5867
 Frc consts  --      4.3817                 1.4111                 1.7402
 IR Inten    --     34.6589                 1.9814                80.2717

                     49                     50                     51
                      A                      A                      A
 Frequencies --   1380.4128              1404.9293              1462.5542
 Red. masses --      2.3168                 2.9590                 1.1900
 Frc consts  --      2.6012                 3.4412                 1.4998
 IR Inten    --     77.5670               581.6455                 8.3574

                     52                     53                     54
                      A                      A                      A
 Frequencies --   1484.1633              1490.8262              1506.1638
 Red. masses --      1.9670                 1.0423                 1.2880
 Frc consts  --      2.5527                 1.3649                 1.7216
 IR Inten    --     10.8614                13.3059               139.1845

                     55                     56                     57
                      A                      A                      A
 Frequencies --   1506.6718              1544.2332              1608.5059
 Red. masses --      1.5559                 2.3264                 1.5049
 Frc consts  --      2.0810                 3.2685                 2.2941
 IR Inten    --    100.5422                77.1117               424.5678

                     58                     59                     60
                      A                      A                      A
 Frequencies --   1637.2826              1645.3449              1650.3333
 Red. masses --      4.2033                 1.6508                 1.7977
 Frc consts  --      6.6388                 2.6330                 2.8848
 IR Inten    --     81.9155               263.9300               501.9280

                     61                     62                     63
                      A                      A                      A
 Frequencies --   1669.5891              3061.3578              3136.9846
 Red. masses --      5.6217                 1.0339                 1.1041
 Frc consts  --      9.2329                 5.7088                 6.4015
 IR Inten    --      1.3575                69.7960                24.0046

                     64                     65                     66
                      A                      A                      A
 Frequencies --   3152.4504              3155.8028              3184.1449
 Red. masses --      1.0592                 1.1055                 1.0857
 Frc consts  --      6.2021                 6.4868                 6.4855
 IR Inten    --     38.8582                21.5269                12.4973

                     67                     68                     69
                      A                      A                      A
 Frequencies --   3190.4217              3200.3118              3208.9503
 Red. masses --      1.0874                 1.0924                 1.0932
 Frc consts  --      6.5214                 6.5920                 6.6325
 IR Inten    --      0.7308                33.1569                40.6193

                     70                     71                     72
                      A                      A                      A
 Frequencies --   3217.6387              3238.0510              3533.7032
 Red. masses --      1.0982                 1.1165                 1.0504
 Frc consts  --      6.6990                 6.8970                 7.7283
 IR Inten    --     17.1098                 5.9184                19.0862

                     73                     74                     75
                      A                      A                      A
 Frequencies --   3614.0273              3619.4873              3736.6955
 Red. masses --      1.0458                 1.0972                 1.1035
 Frc consts  --      8.0482                 8.4690                 9.0779
 IR Inten    --     56.3356                45.9256                67.1353

 - Thermochemistry -
 -------------------
 Temperature   298.150 Kelvin.  Pressure   1.00000 Atm.
 Atom     1 has atomic number  6 and mass  12.00000

 Molecular mass:   178.11061 amu.
 Principal axes and moments of inertia in atomic units:
                           1         2         3
     Eigenvalues --  1730.476783397.514304460.82462
           X            0.99882  -0.04855  -0.00174
           Y            0.04853   0.99878  -0.00953
           Z            0.00220   0.00943   0.99995
 This molecule is an asymmetric top.
 Rotational symmetry number  1.
 Warning -- assumption of classical behavior for rotation
           may cause significant error
 Rotational temperatures (Kelvin)      0.05005     0.02549     0.01942
 Rotational constants (GHZ):           1.04292     0.53119     0.40458
    1 imaginary frequencies ignored.
 Zero-point vibrational energy     602180.6 (Joules/Mol)
                                  143.92463 (Kcal/Mol)
 Warning -- explicit consideration of  18 degrees of freedom as
           vibrations may cause significant error
 Vibrational temperatures:     56.74    79.41   102.49   107.74   129.73
          (Kelvin)            191.11   247.70   282.87   350.77   432.09
                              469.08   537.12   564.23   616.22   661.76
                              721.72   766.78   854.89   893.38   914.51
                              931.24  1053.52  1081.40  1143.64  1161.50
                             1268.26  1270.89  1371.40  1428.96  1455.74
                             1458.68  1469.46  1474.80  1521.45  1543.54
                             1554.80  1581.39  1602.96  1669.39  1698.48
                             1718.50  1744.91  1753.00  1829.29  1883.65
                             1931.15  1962.96  1986.11  2021.38  2104.29
                             2135.38  2144.97  2167.03  2167.76  2221.81
                             2314.28  2355.68  2367.28  2374.46  2402.17
                             4404.61  4513.42  4535.67  4540.50  4581.27
                             4590.31  4604.53  4616.96  4629.46  4658.83
                             5084.21  5199.78  5207.63  5376.27

 Zero-point correction=                           0.229358 (Hartree/Particle)
 Thermal correction to Energy=                    0.242559
 Thermal correction to Enthalpy=                  0.243503
 Thermal correction to Gibbs Free Energy=         0.188446
 Sum of electronic and zero-point Energies=           -574.000848
 Sum of electronic and thermal Energies=              -573.987648
 Sum of electronic and thermal Enthalpies=            -573.986704
 Sum of electronic and thermal Free Energies=         -574.041761

                     E (Thermal)             CV                S
                      KCal/Mol        Cal/Mol-Kelvin    Cal/Mol-Kelvin
 Total                  152.208             48.693            115.877
 Electronic               0.000              0.000              0.000
 Translational            0.889              2.981             41.439
 Rotational               0.889              2.981             31.639
 Vibrational            150.430             42.731             42.799
 Vibration     1          0.594              1.981              5.287
 Vibration     2          0.596              1.975              4.622
 Vibration     3          0.598              1.968              4.119
 Vibration     4          0.599              1.966              4.021
 Vibration     5          0.602              1.956              3.656
 Vibration     6          0.613              1.921              2.905
 Vibration     7          0.626              1.877              2.412
 Vibration     8          0.636              1.845              2.165
 Vibration     9          0.659              1.773              1.775
 Vibration    10          0.693              1.673              1.415
 Vibration    11          0.710              1.623              1.280
 Vibration    12          0.745              1.527              1.066
 Vibration    13          0.760              1.487              0.992
 Vibration    14          0.790              1.409              0.864
 Vibration    15          0.818              1.339              0.766
 Vibration    16          0.857              1.246              0.654
 Vibration    17          0.888              1.177              0.581
 Vibration    18          0.952              1.044              0.460

 Optimization completed.
    -- Stationary point found.
 Normal termination of Gaussian 16 at Tue Feb  9 12:03:24 2021.
