 Gaussian 16, Revision A.03,
 Gaussian 16:  ES64L-G16RevA.03 25-Dec-2016

 ----------------------------------------------------------------------
 # wB97XD def2tzvp, opt=(ts, noeigen, calcfc, maxcycles=70, maxstep=1),
  freq=noraman, scrf=(iefpcm, solvent=water)
 ----------------------------------------------------------------------

 -----------------------
 4_iteration/TS-28-4.out
 -----------------------
 Symbolic Z-matrix:
 Charge =  0 Multiplicity = 1

 SCF Done:  E(RwB97XD) =  -3438.05371877     A.U. after   14 cycles
 Optimization completed.
    -- Stationary point found.
 Normal termination of Gaussian 16 at Mon Feb  1 07:19:07 2021.

 ---------------------------------------------------------------------
 #N Geom=AllCheck Guess=TCheck SCRF=Check GenChk RwB97XD/def2TZVP Freq
 ---------------------------------------------------------------------

 Structure from the checkpoint file:  "/beegfs/scratch/user/q/tla25/Gau-81464.chk"
 -----------------------
 4_iteration/TS-28-4.out
 -----------------------
 Charge =  0 Multiplicity = 1

                         Standard orientation:
 ---------------------------------------------------------------------
 Center     Atomic      Atomic             Coordinates (Angstroms)
 Number     Number       Type             X           Y           Z
 ---------------------------------------------------------------------
      1          6           0        1.013940   -0.292058   -0.118360
      2          6           0        2.073799    0.643584   -0.349030
      3          8           0        2.003056    1.857904   -0.216900
      4          6           0       -0.276580    0.056829    0.338320
      5          6           0        1.032699    0.439982    2.792800
      6          1           0        1.120430    0.161782    3.842020
      7          1           0        1.877320    0.031134    2.243270
      8          1           0        1.040757    1.522382    2.695870
      9          7           0       -0.204440   -0.094670    2.223290
     10          1           0       -0.238698   -1.101601    2.348390
     11          1           0       -1.010931    0.286058    2.703150
     12          6           0       -1.438178   -0.880603    0.028430
     13          6           0       -2.566768   -0.975445    0.837610
     14          6           0       -3.651247   -1.754497    0.462760
     15          6           0       -3.639655   -2.435067   -0.743960
     16          6           0       -2.536036   -2.319985   -1.575780
     17          6           0       -1.450027   -1.550033   -1.193610
     18          1           0       -2.639199   -0.427505    1.766370
     19          1           0       -4.511867   -1.816829    1.116250
     20          1           0       -4.487434   -3.039999   -1.038800
     21          1           0       -2.517295   -2.830815   -2.530100
     22          1           0       -0.600397   -1.459421   -1.855900
     23          6           0       -0.745543    1.477409    0.056390
     24          6           0       -0.890604    1.827128   -1.286730
     25          6           0       -1.383156    3.065297   -1.652360
     26          6           0       -1.753868    3.985977   -0.680120
     27          6           0       -1.626697    3.643957    0.653900
     28          6           0       -1.131675    2.397458    1.019540
     29          1           0       -0.601892    1.118159   -2.051830
     30          1           0       -1.478666    3.313257   -2.702010
     31          1           0       -2.139960    4.956856   -0.962870
     32          1           0       -1.912138    4.346356    1.426720
     33          1           0       -1.045574    2.187088    2.074610
     34         35           0        1.512634   -2.146177    0.032580
     35          8           0        3.223880    0.066106   -0.772610
     36          6           0        4.308808    0.947848   -1.022010
     37          1           0        4.573967    1.508469   -0.125160
     38          1           0        5.140309    0.314930   -1.322580
     39          1           0        4.069397    1.649828   -1.821410
 ---------------------------------------------------------------------

 SCF Done:  E(RwB97XD) =  -3438.05371877     A.U. after    1 cycles

 The electronic state is 1-A.
 Alpha  occ. eigenvalues -- -483.11896 -62.66707 -56.45815 -56.45480 -56.45471
 Alpha  occ. eigenvalues --  -19.28003 -19.21036 -14.49937 -10.39953 -10.37432
 Alpha  occ. eigenvalues --  -10.32526 -10.32004 -10.31360 -10.31332 -10.30450
 Alpha  occ. eigenvalues --  -10.29853 -10.29472 -10.29449 -10.29423 -10.29343
 Alpha  occ. eigenvalues --  -10.29286 -10.29186 -10.29105 -10.29020 -10.28930
 Alpha  occ. eigenvalues --   -8.80802  -6.62912  -6.61846  -6.61816  -2.73306
 Alpha  occ. eigenvalues --   -2.73000  -2.72976  -2.72113  -2.72113  -1.19511
 Alpha  occ. eigenvalues --   -1.09760  -1.05485  -0.98496  -0.96743  -0.93170
 Alpha  occ. eigenvalues --   -0.88649  -0.85726  -0.85544  -0.85304  -0.82556
 Alpha  occ. eigenvalues --   -0.80757  -0.79584  -0.73756  -0.71527  -0.70541
 Alpha  occ. eigenvalues --   -0.70216  -0.67873  -0.65326  -0.63760  -0.61979
 Alpha  occ. eigenvalues --   -0.60610  -0.58665  -0.57629  -0.56766  -0.56083
 Alpha  occ. eigenvalues --   -0.55913  -0.54964  -0.54290  -0.53663  -0.52602
 Alpha  occ. eigenvalues --   -0.51704  -0.51282  -0.50967  -0.50458  -0.49001
 Alpha  occ. eigenvalues --   -0.47914  -0.47196  -0.46798  -0.46213  -0.45629
 Alpha  occ. eigenvalues --   -0.44108  -0.43585  -0.43122  -0.42574  -0.42102
 Alpha  occ. eigenvalues --   -0.39092  -0.38084  -0.37677  -0.35545  -0.34319
 Alpha  occ. eigenvalues --   -0.34088  -0.33652  -0.31467  -0.27353
 Alpha virt. eigenvalues --    0.02516   0.04072   0.05476   0.05794   0.07322
 Alpha virt. eigenvalues --    0.08454   0.10219   0.12294   0.13121   0.13729
 Alpha virt. eigenvalues --    0.14144   0.15395   0.15894   0.16222   0.16740

 Mulliken charges:
               1
     1  C   -0.338612
     2  C    0.429643
     3  O   -0.496988
     4  C    0.342774
     5  C   -0.301355
     6  H    0.167236
     7  H    0.161442
     8  H    0.161141
     9  N   -0.332243
    10  H    0.291964
    11  H    0.282360
    12  C    0.209652
    13  C   -0.254437
    14  C   -0.153035
    15  C   -0.147736
    16  C   -0.139329
    17  C   -0.279727
    18  H    0.131802
    19  H    0.145012
    20  H    0.145998
    21  H    0.144406
    22  H    0.178410
    23  C    0.240808
    24  C   -0.310312
    25  C   -0.126311
    26  C   -0.157257
    27  C   -0.163583
    28  C   -0.279449
    29  H    0.153139
    30  H    0.141426
    31  H    0.142857
    32  H    0.142255
    33  H    0.140474
    34  Br  -0.159349
    35  O   -0.305392
    36  C   -0.195139
    37  H    0.124751
    38  H    0.137346
    39  H    0.125356
 Sum of Mulliken charges =   0.00000

 Dipole moment (field-independent basis, Debye):
    X=             -4.4327    Y=             -0.3105    Z=              5.6699  Tot=              7.2037
 Quadrupole moment (field-independent basis, Debye-Ang):
   XX=           -129.1765   YY=           -140.2938   ZZ=           -110.2717
   XY=              1.9023   XZ=             -2.8856   YZ=              2.0497

  Exact polarizability: 322.408   3.768 336.286 -19.197  15.397 310.120
 Approx polarizability: 250.913  -0.760 269.594 -16.483  14.510 268.969

 ******    1 imaginary frequencies (negative Signs) ******

                      1                      2                      3
                      A                      A                      A
 Frequencies --   -332.1717                39.9851                40.2913
 Red. masses --      5.1833                 4.0131                 5.0205
 Frc consts  --      0.3370                 0.0038                 0.0048
 IR Inten    --    569.9356                 0.8373                 1.2145

                      4                      5                      6
                      A                      A                      A
 Frequencies --     52.8164                56.1054                68.5735
 Red. masses --      4.5585                 5.8185                 4.4004
 Frc consts  --      0.0075                 0.0108                 0.0122
 IR Inten    --      0.2680                 0.6913                 0.7032

                      7                      8                      9
                      A                      A                      A
 Frequencies --     87.8794               109.2219               121.5193
 Red. masses --      5.0027                 3.7983                 3.0585
 Frc consts  --      0.0228                 0.0267                 0.0266
 IR Inten    --      1.9900                 1.3322                 1.6343

                     10                     11                     12
                      A                      A                      A
 Frequencies --    132.9296               147.5978               152.0465
 Red. masses --      3.4677                 1.6801                 3.3343
 Frc consts  --      0.0361                 0.0216                 0.0454
 IR Inten    --      8.8587                 2.0340                 6.8201

                     13                     14                     15
                      A                      A                      A
 Frequencies --    173.2732               177.6760               200.0558
 Red. masses --      1.6760                 2.0234                 3.8355
 Frc consts  --      0.0296                 0.0376                 0.0904
 IR Inten    --      1.5586                 2.9885                 1.5660

                     16                     17                     18
                      A                      A                      A
 Frequencies --    236.0912               260.3909               281.9347
 Red. masses --      4.2282                 3.4290                 3.0909
 Frc consts  --      0.1389                 0.1370                 0.1448
 IR Inten    --      8.6323                 3.6434                 2.4013

                     19                     20                     21
                      A                      A                      A
 Frequencies --    285.4844               305.8736               322.9494
 Red. masses --      5.6979                 4.1884                 4.9415
 Frc consts  --      0.2736                 0.2309                 0.3037
 IR Inten    --      4.9202                 9.6104                10.1495

                     22                     23                     24
                      A                      A                      A
 Frequencies --    329.7555               393.0792               417.2328
 Red. masses --      3.7600                 6.4025                 9.7016
 Frc consts  --      0.2409                 0.5829                 0.9951
 IR Inten    --     10.9068                57.6910                 6.4523

                     25                     26                     27
                      A                      A                      A
 Frequencies --    419.2116               424.7926               490.4886
 Red. masses --      2.8714                 2.9183                 3.5277
 Frc consts  --      0.2973                 0.3103                 0.5000
 IR Inten    --      0.1873                 0.6803                15.6665

                     28                     29                     30
                      A                      A                      A
 Frequencies --    532.7872               603.2743               630.2982
 Red. masses --      3.5208                 2.7162                 5.7159
 Frc consts  --      0.5888                 0.5824                 1.3379
 IR Inten    --      3.2447               102.0219                25.5337

                     31                     32                     33
                      A                      A                      A
 Frequencies --    636.8402               642.7789               657.0710
 Red. masses --      6.2862                 4.7256                 6.3525
 Frc consts  --      1.5021                 1.1503                 1.6159
 IR Inten    --      2.0091                30.5372               116.9812

                     34                     35                     36
                      A                      A                      A
 Frequencies --    697.8532               719.7871               727.4261
 Red. masses --      2.1313                 1.6688                 1.5151
 Frc consts  --      0.6115                 0.5094                 0.4724
 IR Inten    --     56.5639                70.2842               118.1756

                     37                     38                     39
                      A                      A                      A
 Frequencies --    755.9388               773.8774               784.8649
 Red. masses --      5.7025                 2.0636                 4.6340
 Frc consts  --      1.9199                 0.7282                 1.6819
 IR Inten    --      6.4980                42.8982                60.6031

                     40                     41                     42
                      A                      A                      A
 Frequencies --    792.0846               844.3556               865.0446
 Red. masses --      4.0047                 3.4280                 1.2568
 Frc consts  --      1.4804                 1.4399                 0.5541
 IR Inten    --     90.1434                33.6668                 0.6035

                     43                     44                     45
                      A                      A                      A
 Frequencies --    873.5366               901.4912               944.7447
 Red. masses --      1.2543                 4.2474                 1.5593
 Frc consts  --      0.5639                 2.0337                 0.8200
 IR Inten    --      0.7714                20.8904                 0.3688

                     46                     47                     48
                      A                      A                      A
 Frequencies --    961.0121              1003.4394              1007.3262
 Red. masses --      1.4647                 1.8444                 2.3883
 Frc consts  --      0.7970                 1.0942                 1.4278
 IR Inten    --      5.0494                 3.3135                13.9437

                     49                     50                     51
                      A                      A                      A
 Frequencies --   1014.8122              1019.9846              1025.5631
 Red. masses --      1.4105                 1.4401                 1.7069
 Frc consts  --      0.8558                 0.8828                 1.0577
 IR Inten    --      4.7250                23.0266                 1.1619

                     52                     53                     54
                      A                      A                      A
 Frequencies --   1025.8892              1026.6726              1033.0426
 Red. masses --      4.5887                 2.0553                 1.3165
 Frc consts  --      2.8454                 1.2764                 0.8278
 IR Inten    --      1.2720                22.4365                 0.3605

                     55                     56                     57
                      A                      A                      A
 Frequencies --   1059.9772              1065.9585              1075.0235
 Red. masses --      2.1676                 2.1521                 2.8354
 Frc consts  --      1.4349                 1.4408                 1.9307
 IR Inten    --     45.5854                21.4315                 5.6420

                     58                     59                     60
                      A                      A                      A
 Frequencies --   1084.0025              1098.3590              1125.1084
 Red. masses --      1.6397                 4.5289                 1.5817
 Frc consts  --      1.1352                 3.2191                 1.1797
 IR Inten    --     92.5304               214.4802                 0.6517

                     61                     62                     63
                      A                      A                      A
 Frequencies --   1130.8860              1179.7029              1182.7199
 Red. masses --      1.6341                 2.9764                 1.2941
 Frc consts  --      1.2313                 2.4406                 1.0665
 IR Inten    --     32.6600                38.8297                 0.6873

                     64                     65                     66
                      A                      A                      A
 Frequencies --   1185.7471              1187.0729              1215.8550
 Red. masses --      1.1719                 1.1379                 1.5429
 Frc consts  --      0.9708                 0.9447                 1.3438
 IR Inten    --      1.0433                 0.2109               166.6452

                     67                     68                     69
                      A                      A                      A
 Frequencies --   1220.3796              1224.0876              1246.5936
 Red. masses --      1.1776                 1.1362                 4.0804
 Frc consts  --      1.0334                 1.0030                 3.7360
 IR Inten    --      4.5256                 0.7037                23.2925

                     70                     71                     72
                      A                      A                      A
 Frequencies --   1260.3118              1288.1541              1316.0071
 Red. masses --      1.3888                 6.0112                 4.4269
 Frc consts  --      1.2997                 5.8769                 4.5172
 IR Inten    --     55.0254               571.8414                 5.1918

                     73                     74                     75
                      A                      A                      A
 Frequencies --   1329.8125              1355.5309              1365.8121
 Red. masses --      5.2325                 1.3855                 1.4030
 Frc consts  --      5.4518                 1.4999                 1.5421
 IR Inten    --    102.1337                11.4413                 1.4567

                     76                     77                     78
                      A                      A                      A
 Frequencies --   1373.4945              1399.3522              1461.6735
 Red. masses --      1.3544                 5.5923                 1.2133
 Frc consts  --      1.5053                 6.4520                 1.5272
 IR Inten    --     13.7165               779.2417                 3.5944

                     79                     80                     81
                      A                      A                      A
 Frequencies --   1478.9923              1482.6213              1487.2548
 Red. masses --      1.1722                 1.0758                 2.1826
 Frc consts  --      1.5108                 1.3933                 2.8444
 IR Inten    --     89.2758                30.3343                 4.1891

                     82                     83                     84
                      A                      A                      A
 Frequencies --   1490.5559              1492.6709              1497.9190
 Red. masses --      1.0879                 2.0289                 1.0733
 Frc consts  --      1.4241                 2.6635                 1.4189
 IR Inten    --      4.7201                65.9817                 7.0627

                     85                     86                     87
                      A                      A                      A
 Frequencies --   1505.6675              1541.0956              1546.2891
 Red. masses --      1.0421                 2.2100                 2.2571
 Frc consts  --      1.3920                 3.0924                 3.1797
 IR Inten    --     16.1560                35.5877                11.5541

                     88                     89                     90
                      A                      A                      A
 Frequencies --   1648.5703              1654.1568              1662.0045
 Red. masses --      2.9424                 5.0989                 1.3933
 Frc consts  --      4.7115                 8.2201                 2.2676
 IR Inten    --     16.1317                31.4028                68.1736

                     91                     92                     93
                      A                      A                      A
 Frequencies --   1672.7847              1676.0987              1688.8301
 Red. masses --      5.4095                 5.8547                10.8229
 Frc consts  --      8.9184                 9.6908                18.1872
 IR Inten    --     10.1692                10.7489               670.5391

                     94                     95                     96
                      A                      A                      A
 Frequencies --   3060.6843              3085.8781              3134.8814
 Red. masses --      1.0309                 1.0342                 1.1065
 Frc consts  --      5.6900                 5.8027                 6.4066
 IR Inten    --     67.1960                30.3634                40.6972

                     97                     98                     99
                      A                      A                      A
 Frequencies --   3168.0234              3169.1978              3187.9752
 Red. masses --      1.1036                 1.1050                 1.1055
 Frc consts  --      6.5258                 6.5392                 6.6199
 IR Inten    --      6.4467                28.5102                 9.0345

                    100                    101                    102
                      A                      A                      A
 Frequencies --   3196.5286              3199.4801              3204.2234
 Red. masses --      1.0859                 1.0862                 1.0892
 Frc consts  --      6.5373                 6.5509                 6.5889
 IR Inten    --      1.1639                 1.0797                 6.1409

                    103                    104                    105
                      A                      A                      A
 Frequencies --   3208.0756              3214.3227              3219.0715
 Red. masses --      1.0896                 1.0933                 1.0934
 Frc consts  --      6.6072                 6.6551                 6.6756
 IR Inten    --      7.9559                23.2072                32.7803

                    106                    107                    108
                      A                      A                      A
 Frequencies --   3222.8719              3228.6924              3232.0935
 Red. masses --      1.0977                 1.0936                 1.0960
 Frc consts  --      6.7179                 6.7165                 6.7456
 IR Inten    --     24.5234                27.4362                 0.9805

                    109                    110                    111
                      A                      A                      A
 Frequencies --   3243.9491              3518.9271              3599.3008
 Red. masses --      1.0917                 1.0532                 1.0928
 Frc consts  --      6.7688                 7.6841                 8.3415
 IR Inten    --     22.4357                37.1145                45.9447

 - Thermochemistry -
 -------------------
 Temperature   298.150 Kelvin.  Pressure   1.00000 Atm.
 Atom     1 has atomic number  6 and mass  12.00000

 Molecular mass:   347.05209 amu.
 Principal axes and moments of inertia in atomic units:
                           1         2         3
     Eigenvalues --  6223.607176857.77032**********
           X            0.95868   0.28447  -0.00218
           Y           -0.28446   0.95867   0.00562
           Z            0.00369  -0.00477   0.99998
 This molecule is an asymmetric top.
 Rotational symmetry number  1.
 Warning -- assumption of classical behavior for rotation
           may cause significant error
 Rotational temperatures (Kelvin)      0.01392     0.01263     0.00852
 Rotational constants (GHZ):           0.28998     0.26317     0.17758
    1 imaginary frequencies ignored.
 Zero-point vibrational energy     833081.6 (Joules/Mol)
                                  199.11128 (Kcal/Mol)
 Warning -- explicit consideration of  28 degrees of freedom as
           vibrations may cause significant error
 Vibrational temperatures:     57.53    57.97    75.99    80.72    98.66
          (Kelvin)            126.44   157.15   174.84   191.26   212.36
                              218.76   249.30   255.64   287.84   339.68
                              374.64   405.64   410.75   440.08   464.65
                              474.44   565.55   600.30   603.15   611.18
                              705.70   766.56   867.98   906.86   916.27
                              924.82   945.38  1004.06  1035.61  1046.60
                             1087.63  1113.44  1129.25  1139.63  1214.84
                             1244.61  1256.82  1297.04  1359.28  1382.68
                             1443.73  1449.32  1460.09  1467.53  1475.56
                             1476.03  1477.15  1486.32  1525.07  1533.68
                             1546.72  1559.64  1580.29  1618.78  1627.09
                             1697.33  1701.67  1706.03  1707.93  1749.34
                             1755.85  1761.19  1793.57  1813.31  1853.37
                             1893.44  1913.30  1950.31  1965.10  1976.15
                             2013.36  2103.02  2127.94  2133.16  2139.83
                             2144.58  2147.62  2155.17  2166.32  2217.29
                             2224.77  2371.92  2379.96  2391.25  2406.76
                             2411.53  2429.85  4403.64  4439.89  4510.40
                             4558.08  4559.77  4586.79  4599.09  4603.34
                             4610.16  4615.71  4624.69  4631.53  4636.99
                             4645.37  4650.26  4667.32  5062.95  5178.59

 Zero-point correction=                           0.317304 (Hartree/Particle)
 Thermal correction to Energy=                    0.337289
 Thermal correction to Enthalpy=                  0.338233
 Thermal correction to Gibbs Free Energy=         0.267505
 Sum of electronic and zero-point Energies=          -3437.736415
 Sum of electronic and thermal Energies=             -3437.716430
 Sum of electronic and thermal Enthalpies=           -3437.715486
 Sum of electronic and thermal Free Energies=        -3437.786213

                     E (Thermal)             CV                S
                      KCal/Mol        Cal/Mol-Kelvin    Cal/Mol-Kelvin
 Total                  211.652             74.590            148.859
 Electronic               0.000              0.000              0.000
 Translational            0.889              2.981             43.427
 Rotational               0.889              2.981             34.427
 Vibrational            209.875             68.629             71.005
 Vibration     1          0.594              1.981              5.260
 Vibration     2          0.594              1.981              5.245
 Vibration     3          0.596              1.976              4.709
 Vibration     4          0.596              1.975              4.590
 Vibration     5          0.598              1.969              4.194
 Vibration     6          0.601              1.958              3.707
 Vibration     7          0.606              1.942              3.283
 Vibration     8          0.609              1.931              3.076
 Vibration     9          0.613              1.920              2.903
 Vibration    10          0.617              1.905              2.703
 Vibration    11          0.619              1.900              2.646
 Vibration    12          0.627              1.875              2.400
 Vibration    13          0.628              1.870              2.353
 Vibration    14          0.638              1.840              2.133
 Vibration    15          0.655              1.786              1.832
 Vibration    16          0.668              1.745              1.659
 Vibration    17          0.681              1.707              1.522
 Vibration    18          0.683              1.701              1.501
 Vibration    19          0.696              1.663              1.385
 Vibration    20          0.708              1.630              1.295
 Vibration    21          0.713              1.616              1.261
 Vibration    22          0.760              1.485              0.988
 Vibration    23          0.780              1.433              0.901
 Vibration    24          0.782              1.428              0.895
 Vibration    25          0.787              1.416              0.876
 Vibration    26          0.846              1.271              0.682
 Vibration    27          0.888              1.177              0.581
 Vibration    28          0.962              1.025              0.444

 Optimization completed.
    -- Stationary point found.
 Normal termination of Gaussian 16 at Mon Feb  1 10:24:26 2021.
