 Gaussian 16, Revision A.03,
 Gaussian 16:  ES64L-G16RevA.03 25-Dec-2016

 ----------------------------------------------------------------------
 # wB97XD def2tzvp, opt=(ts, noeigen, calcfc, maxcycles=70, maxstep=1),
  freq=noraman, scrf=(iefpcm, solvent=water)
 ----------------------------------------------------------------------

 ------------------------
 0_iteration/TS-261-0.out
 ------------------------
 Symbolic Z-matrix:
 Charge =  0 Multiplicity = 1

 SCF Done:  E(RwB97XD) =  -421.790034970     A.U. after   14 cycles
 SCF Done:  E(RwB97XD) =  -421.789951670     A.U. after   10 cycles
 SCF Done:  E(RwB97XD) =  -421.789872225     A.U. after   10 cycles
 SCF Done:  E(RwB97XD) =  -421.789796627     A.U. after   10 cycles
 SCF Done:  E(RwB97XD) =  -421.789724938     A.U. after   10 cycles
 SCF Done:  E(RwB97XD) =  -421.789657235     A.U. after   10 cycles
 SCF Done:  E(RwB97XD) =  -421.789593618     A.U. after   10 cycles
 SCF Done:  E(RwB97XD) =  -421.789534219     A.U. after   10 cycles
 SCF Done:  E(RwB97XD) =  -421.789479229     A.U. after   10 cycles
 SCF Done:  E(RwB97XD) =  -421.789428923     A.U. after   10 cycles
 SCF Done:  E(RwB97XD) =  -421.790416984     A.U. after    9 cycles
 SCF Done:  E(RwB97XD) =  -421.790466961     A.U. after   10 cycles
 SCF Done:  E(RwB97XD) =  -421.790510234     A.U. after    9 cycles
 SCF Done:  E(RwB97XD) =  -421.790542183     A.U. after   10 cycles
 SCF Done:  E(RwB97XD) =  -421.790561637     A.U. after   10 cycles
 SCF Done:  E(RwB97XD) =  -421.790569410     A.U. after   10 cycles
 SCF Done:  E(RwB97XD) =  -421.790569798     A.U. after    9 cycles
 SCF Done:  E(RwB97XD) =  -421.790569845     A.U. after    8 cycles
 SCF Done:  E(RwB97XD) =  -421.790569859     A.U. after    7 cycles
 Optimization completed.
    -- Stationary point found.
 Normal termination of Gaussian 16 at Tue Feb  9 07:43:08 2021.

 ---------------------------------------------------------------------
 #N Geom=AllCheck Guess=TCheck SCRF=Check GenChk RwB97XD/def2TZVP Freq
 ---------------------------------------------------------------------

 Structure from the checkpoint file:  "/beegfs/scratch/user/q/tla25/Gau-21624.chk"
 ------------------------
 0_iteration/TS-261-0.out
 ------------------------
 Charge =  0 Multiplicity = 1

                         Standard orientation:
 ---------------------------------------------------------------------
 Center     Atomic      Atomic             Coordinates (Angstroms)
 Number     Number       Type             X           Y           Z
 ---------------------------------------------------------------------
      1          6           0       -0.038666    0.966903    0.336395
      2          6           0       -1.239738    0.281793   -0.022534
      3          8           0       -2.241537    0.862158   -0.487556
      4          6           0        1.110664    0.290989    0.782749
      5          6           0        3.310394   -1.105999   -0.118653
      6          1           0        3.002549   -1.935712    0.515292
      7          1           0        3.873457   -1.491623   -0.967574
      8          1           0        3.943506   -0.434636    0.458603
      9          7           0        2.118546   -0.374766   -0.551495
     10          1           0        2.355090    0.420291   -1.134075
     11          1           0        1.485476   -0.962725   -1.082659
     12          1           0        1.886188    0.905279    1.233850
     13          1           0        1.005545   -0.647952    1.321583
     14          6           0        0.046932    2.433720   -0.005112
     15          1           0        0.061944    2.629441   -1.085158
     16          1           0       -0.799390    2.997949    0.395777
     17          1           0        0.958166    2.870031    0.412182
     18          7           0       -1.293834   -1.101949    0.108049
     19          6           0       -2.569355   -1.780261    0.049460
     20          1           0       -0.623685   -1.523887    0.725993
     21          1           0       -2.397532   -2.853059    0.131259
     22          1           0       -3.254492   -1.474693    0.848559
     23          1           0       -3.058902   -1.581830   -0.902893
 ---------------------------------------------------------------------

 SCF Done:  E(RwB97XD) =  -421.790569859     A.U. after    1 cycles

 The electronic state is 1-A.
 Alpha  occ. eigenvalues --  -19.17867 -14.49449 -14.42710 -10.34966 -10.32269
 Alpha  occ. eigenvalues --  -10.32204 -10.29704 -10.25820 -10.23511  -1.10125
 Alpha  occ. eigenvalues --   -1.04815  -0.99090  -0.88034  -0.79725  -0.78720
 Alpha  occ. eigenvalues --   -0.76952  -0.69559  -0.64399  -0.63302  -0.58988
 Alpha  occ. eigenvalues --   -0.55858  -0.54384  -0.52931  -0.52237  -0.50658
 Alpha  occ. eigenvalues --   -0.48571  -0.48463  -0.47917  -0.45865  -0.44537
 Alpha  occ. eigenvalues --   -0.43721  -0.43402  -0.42370  -0.32735  -0.31492
 Alpha  occ. eigenvalues --   -0.24329
 Alpha virt. eigenvalues --    0.08517   0.09930   0.12882   0.13431   0.14689
 Alpha virt. eigenvalues --    0.15396   0.16654   0.17638   0.17841   0.19326
 Alpha virt. eigenvalues --    0.19917   0.20615   0.20861   0.21049   0.22323

 Mulliken charges:
               1
     1  C   -0.201747
     2  C    0.300216
     3  O   -0.591652
     4  C   -0.289908
     5  C   -0.280103
     6  H    0.154016
     7  H    0.158139
     8  H    0.154521
     9  N   -0.245246
    10  H    0.287318
    11  H    0.280522
    12  H    0.160829
    13  H    0.155114
    14  C   -0.353707
    15  H    0.097661
    16  H    0.103852
    17  H    0.108906
    18  N   -0.333935
    19  C   -0.254543
    20  H    0.228959
    21  H    0.130540
    22  H    0.108345
    23  H    0.121902
 Sum of Mulliken charges =  -0.00000

 Dipole moment (field-independent basis, Debye):
    X=             11.4813    Y=             -5.9534    Z=              0.2160  Tot=             12.9349
 Quadrupole moment (field-independent basis, Debye-Ang):
   XX=            -52.4508   YY=            -56.6006   ZZ=            -56.2200
   XY=              5.0755   XZ=             -6.5429   YZ=             -0.2288

  Exact polarizability: 171.445  -8.037 131.090   4.442  -1.481 104.224
 Approx polarizability: 124.925  -7.210 103.515   4.436  -1.466  89.736

 ******    1 imaginary frequencies (negative Signs) ******

                      1                      2                      3
                      A                      A                      A
 Frequencies --   -375.0461                41.0654                67.6559
 Red. masses --      6.3310                 3.2973                 2.7271
 Frc consts  --      0.5247                 0.0033                 0.0074
 IR Inten    --   1038.4305                 1.8445                14.5223

                      4                      5                      6
                      A                      A                      A
 Frequencies --     76.3695               115.9731               131.1277
 Red. masses --      1.8104                 1.8490                 1.4702
 Frc consts  --      0.0062                 0.0147                 0.0149
 IR Inten    --     10.2624                16.0947                 6.6401

                      7                      8                      9
                      A                      A                      A
 Frequencies --    142.0359               165.9606               185.1830
 Red. masses --      1.1798                 2.0039                 1.3498
 Frc consts  --      0.0140                 0.0325                 0.0273
 IR Inten    --      1.5081                 4.1508                 2.5307

                     10                     11                     12
                      A                      A                      A
 Frequencies --    225.3921               249.7944               321.5027
 Red. masses --      2.3273                 3.2268                 3.6727
 Frc consts  --      0.0697                 0.1186                 0.2237
 IR Inten    --      2.2980                34.1325                54.8549

                     13                     14                     15
                      A                      A                      A
 Frequencies --    397.1839               437.3452               473.4893
 Red. masses --      2.4136                 2.5704                 1.9454
 Frc consts  --      0.2243                 0.2897                 0.2570
 IR Inten    --     10.8851                39.0501               315.8985

                     16                     17                     18
                      A                      A                      A
 Frequencies --    524.7809               655.8593               691.4232
 Red. masses --      3.1528                 2.9906                 1.1668
 Frc consts  --      0.5116                 0.7579                 0.3287
 IR Inten    --      5.0124                31.0473                30.9013

                     19                     20                     21
                      A                      A                      A
 Frequencies --    785.1999               846.2063               936.3946
 Red. masses --      7.4075                 3.0127                 1.6088
 Frc consts  --      2.6908                 1.2710                 0.8311
 IR Inten    --     51.2570                12.9501                 1.1030

                     22                     23                     24
                      A                      A                      A
 Frequencies --    976.2262              1027.9821              1043.3920
 Red. masses --      1.6877                 1.2426                 1.7619
 Frc consts  --      0.9476                 0.7737                 1.1301
 IR Inten    --     37.1608                16.8683                32.5954

                     25                     26                     27
                      A                      A                      A
 Frequencies --   1061.2937              1074.7614              1095.1263
 Red. masses --      1.4261                 1.9944                 2.1228
 Frc consts  --      0.9464                 1.3573                 1.5000
 IR Inten    --     20.2323                68.4362               187.3591

                     28                     29                     30
                      A                      A                      A
 Frequencies --   1141.9196              1160.4509              1193.6611
 Red. masses --      1.3751                 1.4649                 1.4835
 Frc consts  --      1.0565                 1.1623                 1.2454
 IR Inten    --     25.1687               114.4688                 2.1873

                     31                     32                     33
                      A                      A                      A
 Frequencies --   1232.2951              1245.3179              1266.4283
 Red. masses --      1.4323                 1.4328                 1.2828
 Frc consts  --      1.2814                 1.3091                 1.2122
 IR Inten    --    286.2786               105.6961                74.9404

                     34                     35                     36
                      A                      A                      A
 Frequencies --   1345.0040              1374.3820              1385.1991
 Red. masses --      1.3006                 1.9726                 2.7534
 Frc consts  --      1.3863                 2.1953                 3.1128
 IR Inten    --      2.4390                85.8164               260.3979

                     37                     38                     39
                      A                      A                      A
 Frequencies --   1411.0162              1448.7081              1465.3977
 Red. masses --      1.3830                 1.2439                 1.1108
 Frc consts  --      1.6223                 1.5381                 1.4054
 IR Inten    --      1.3210                55.2392                12.4381

                     40                     41                     42
                      A                      A                      A
 Frequencies --   1466.2183              1476.1266              1493.2190
 Red. masses --      1.1100                 1.1150                 1.0400
 Frc consts  --      1.4059                 1.4314                 1.3662
 IR Inten    --      5.1049                63.2099                16.7018

                     43                     44                     45
                      A                      A                      A
 Frequencies --   1500.6995              1501.6424              1506.5121
 Red. masses --      1.0509                 1.2441                 1.0389
 Frc consts  --      1.3945                 1.6529                 1.3893
 IR Inten    --     34.7139                57.1717                 6.6962

                     46                     47                     48
                      A                      A                      A
 Frequencies --   1522.5327              1538.0478              1620.6618
 Red. masses --      1.5397                 1.4541                 5.3774
 Frc consts  --      2.1029                 2.0267                 8.3217
 IR Inten    --    214.8263               123.1471              1039.9430

                     49                     50                     51
                      A                      A                      A
 Frequencies --   1648.4201              2997.0527              3017.2828
 Red. masses --      1.0885                 1.0501                 1.0513
 Frc consts  --      1.7427                 5.5573                 5.6390
 IR Inten    --     35.7875               145.7806               125.4380

                     52                     53                     54
                      A                      A                      A
 Frequencies --   3055.7764              3075.2139              3097.3234
 Red. masses --      1.0850                 1.0326                 1.1002
 Frc consts  --      5.9692                 5.7538                 6.2189
 IR Inten    --     71.0808                43.0866                43.1704

                     55                     56                     57
                      A                      A                      A
 Frequencies --   3102.8193              3106.8159              3148.5294
 Red. masses --      1.0606                 1.0833                 1.1040
 Frc consts  --      6.0162                 6.1609                 6.4479
 IR Inten    --     71.3264                52.2815                29.2548

                     58                     59                     60
                      A                      A                      A
 Frequencies --   3157.8675              3168.2368              3171.8014
 Red. masses --      1.1061                 1.1071                 1.1112
 Frc consts  --      6.4988                 6.5472                 6.5863
 IR Inten    --     13.6647                33.9019                11.5876

                     61                     62                     63
                      A                      A                      A
 Frequencies --   3522.0610              3602.0094              3662.0604
 Red. masses --      1.0515                 1.0966                 1.0759
 Frc consts  --      7.6853                 8.3825                 8.5012
 IR Inten    --     22.3542                54.7266                13.2788

 - Thermochemistry -
 -------------------
 Temperature   298.150 Kelvin.  Pressure   1.00000 Atm.
 Atom     1 has atomic number  6 and mass  12.00000

 Molecular mass:   130.11061 amu.
 Principal axes and moments of inertia in atomic units:
                           1         2         3
     Eigenvalues --   870.487921850.969162521.96617
           X            0.99983   0.01822  -0.00370
           Y           -0.01823   0.99983  -0.00399
           Z            0.00363   0.00406   0.99999
 This molecule is an asymmetric top.
 Rotational symmetry number  1.
 Warning -- assumption of classical behavior for rotation
           may cause significant error
 Rotational temperatures (Kelvin)      0.09950     0.04679     0.03434
 Rotational constants (GHZ):           2.07325     0.97502     0.71561
    1 imaginary frequencies ignored.
 Zero-point vibrational energy     535792.0 (Joules/Mol)
                                  128.05737 (Kcal/Mol)
 Warning -- explicit consideration of  15 degrees of freedom as
           vibrations may cause significant error
 Vibrational temperatures:     59.08    97.34   109.88   166.86   188.66
          (Kelvin)            204.36   238.78   266.44   324.29   359.40
                              462.57   571.46   629.24   681.25   755.04
                              943.64   994.80  1129.73  1217.50  1347.26
                             1404.57  1479.04  1501.21  1526.96  1546.34
                             1575.64  1642.97  1669.63  1717.41  1773.00
                             1791.73  1822.11  1935.16  1977.43  1992.99
                             2030.14  2084.37  2108.38  2109.56  2123.82
                             2148.41  2159.17  2160.53  2167.53  2190.58
                             2212.91  2331.77  2371.71  4312.09  4341.20
                             4396.58  4424.55  4456.36  4464.26  4470.02
                             4530.03  4543.47  4558.39  4563.51  5067.46
                             5182.49  5268.89

 Zero-point correction=                           0.204072 (Hartree/Particle)
 Thermal correction to Energy=                    0.215836
 Thermal correction to Enthalpy=                  0.216781
 Thermal correction to Gibbs Free Energy=         0.165687
 Sum of electronic and zero-point Energies=           -421.586497
 Sum of electronic and thermal Energies=              -421.574733
 Sum of electronic and thermal Enthalpies=            -421.573789
 Sum of electronic and thermal Free Energies=         -421.624883

                     E (Thermal)             CV                S
                      KCal/Mol        Cal/Mol-Kelvin    Cal/Mol-Kelvin
 Total                  135.439             39.948            107.535
 Electronic               0.000              0.000              0.000
 Translational            0.889              2.981             40.503
 Rotational               0.889              2.981             29.787
 Vibrational            133.662             33.986             37.246
 Vibration     1          0.594              1.981              5.207
 Vibration     2          0.598              1.970              4.220
 Vibration     3          0.599              1.965              3.982
 Vibration     4          0.608              1.936              3.166
 Vibration     5          0.612              1.922              2.929
 Vibration     6          0.616              1.911              2.776
 Vibration     7          0.624              1.884              2.481
 Vibration     8          0.631              1.860              2.276
 Vibration     9          0.650              1.802              1.915
 Vibration    10          0.663              1.763              1.732
 Vibration    11          0.707              1.632              1.302
 Vibration    12          0.764              1.476              0.973
 Vibration    13          0.798              1.389              0.835
 Vibration    14          0.830              1.309              0.728
 Vibration    15          0.880              1.195              0.599

 Optimization completed.
    -- Stationary point found.
 Normal termination of Gaussian 16 at Tue Feb  9 07:54:49 2021.
