 Gaussian 16, Revision A.03,
 Gaussian 16:  ES64L-G16RevA.03 25-Dec-2016

 ----------------------------------------------------------------------
 # wB97XD def2tzvp, opt=(ts, noeigen, calcfc, maxcycles=70, maxstep=3),
  freq=noraman, scrf=(iefpcm, solvent=water)
 ----------------------------------------------------------------------

 ------------------------
 0_iteration/TS-278-0.out
 ------------------------
 Symbolic Z-matrix:
 Charge =  0 Multiplicity = 1

 SCF Done:  E(RwB97XD) =  -881.379866555     A.U. after   14 cycles
 SCF Done:  E(RwB97XD) =  -881.379625635     A.U. after   11 cycles
 SCF Done:  E(RwB97XD) =  -881.379427252     A.U. after   11 cycles
 SCF Done:  E(RwB97XD) =  -881.379270981     A.U. after   11 cycles
 SCF Done:  E(RwB97XD) =  -881.379170729     A.U. after   11 cycles
 SCF Done:  E(RwB97XD) =  -881.379139541     A.U. after   12 cycles
 SCF Done:  E(RwB97XD) =  -881.379265629     A.U. after   12 cycles
 SCF Done:  E(RwB97XD) =  -881.379882850     A.U. after   13 cycles
 SCF Done:  E(RwB97XD) =  -881.380858165     A.U. after   13 cycles
 SCF Done:  E(RwB97XD) =  -881.381841964     A.U. after   13 cycles
 SCF Done:  E(RwB97XD) =  -881.392580973     A.U. after   10 cycles
 SCF Done:  E(RwB97XD) =  -881.392581864     A.U. after   10 cycles
 SCF Done:  E(RwB97XD) =  -881.392566247     A.U. after   10 cycles
 SCF Done:  E(RwB97XD) =  -881.392583503     A.U. after   10 cycles
 SCF Done:  E(RwB97XD) =  -881.392583198     A.U. after    9 cycles
 SCF Done:  E(RwB97XD) =  -881.392585647     A.U. after    9 cycles
 SCF Done:  E(RwB97XD) =  -881.392585814     A.U. after    8 cycles
 SCF Done:  E(RwB97XD) =  -881.392581275     A.U. after   10 cycles
 SCF Done:  E(RwB97XD) =  -881.392585888     A.U. after   10 cycles
 Optimization completed.
    -- Stationary point found.
 Normal termination of Gaussian 16 at Tue Apr 13 09:24:02 2021.

 ---------------------------------------------------------------------
 #N Geom=AllCheck Guess=TCheck SCRF=Check GenChk RwB97XD/def2TZVP Freq
 ---------------------------------------------------------------------

 Structure from the checkpoint file:  "/beegfs/scratch/user/q/tla25/Gau-308325.chk"
 ------------------------
 0_iteration/TS-278-0.out
 ------------------------
 Charge =  0 Multiplicity = 1

                         Standard orientation:
 ---------------------------------------------------------------------
 Center     Atomic      Atomic             Coordinates (Angstroms)
 Number     Number       Type             X           Y           Z
 ---------------------------------------------------------------------
      1          6           0       -0.172534    0.534235    0.423199
      2          6           0        0.660149   -0.626829    0.156533
      3          8           0        0.137888   -1.754996    0.098014
      4          6           0       -1.460494    0.348419    0.883944
      5          6           0       -3.944082   -0.757741   -0.018592
      6          1           0       -4.524014   -1.245971   -0.803297
      7          1           0       -3.845273   -1.442832    0.822889
      8          1           0       -4.478450    0.130110    0.316679
      9          7           0       -2.613794   -0.372149   -0.473013
     10          1           0       -2.048176   -1.166041   -0.753797
     11          1           0       -2.642848    0.294640   -1.233547
     12          1           0       -2.066021    1.217038    1.109715
     13          1           0       -1.618570   -0.498746    1.540182
     14         17           0        0.159248    2.057397   -0.423217
     15          7           0        2.001360   -0.480993   -0.041559
     16          6           0        2.783449    0.600129    0.522570
     17          6           0        2.767021   -1.621003   -0.495642
     18          1           0        2.165895    1.224894    1.160800
     19          1           0        3.587476    0.178899    1.132706
     20          1           0        3.232033    1.223449   -0.255021
     21          1           0        2.154284   -2.248492   -1.137193
     22          1           0        3.630029   -1.264841   -1.060368
     23          1           0        3.129310   -2.229164    0.340749
 ---------------------------------------------------------------------

 SCF Done:  E(RwB97XD) =  -881.392585888     A.U. after    1 cycles

 The electronic state is 1-A.
 Alpha  occ. eigenvalues -- -101.68082 -19.20025 -14.47079 -14.45206 -10.37507
 Alpha  occ. eigenvalues --  -10.32364 -10.31486 -10.30502 -10.30218 -10.29740
 Alpha  occ. eigenvalues --   -9.56610  -7.31220  -7.30416  -7.30392  -1.12666
 Alpha  occ. eigenvalues --   -1.02814  -1.02522  -0.95011  -0.84294  -0.81485
 Alpha  occ. eigenvalues --   -0.79409  -0.78052  -0.70204  -0.62798  -0.62095
 Alpha  occ. eigenvalues --   -0.58279  -0.56260  -0.55841  -0.55377  -0.53072
 Alpha  occ. eigenvalues --   -0.51810  -0.49875  -0.48286  -0.47917  -0.47643
 Alpha  occ. eigenvalues --   -0.47329  -0.45791  -0.45337  -0.43088  -0.40210
 Alpha  occ. eigenvalues --   -0.39058  -0.34173  -0.31534  -0.26109
 Alpha virt. eigenvalues --    0.06574   0.10570   0.11025   0.12360   0.14729
 Alpha virt. eigenvalues --    0.15699   0.16174   0.17046   0.17801   0.17841
 Alpha virt. eigenvalues --    0.19232   0.19418   0.19609   0.20311   0.21249

 Mulliken charges:
               1
     1  C   -0.201912
     2  C    0.340411
     3  O   -0.568670
     4  C   -0.188235
     5  C   -0.268489
     6  H    0.146685
     7  H    0.144444
     8  H    0.147814
     9  N   -0.335911
    10  H    0.271116
    11  H    0.275526
    12  H    0.169163
    13  H    0.156592
    14  Cl  -0.206733
    15  N   -0.123569
    16  C   -0.295847
    17  C   -0.290785
    18  H    0.152908
    19  H    0.132462
    20  H    0.137585
    21  H    0.136886
    22  H    0.138076
    23  H    0.130485
 Sum of Mulliken charges =  -0.00000

 Dipole moment (field-independent basis, Debye):
    X=             -4.2714    Y=              0.0022    Z=             -0.8225  Tot=              4.3499
 Quadrupole moment (field-independent basis, Debye-Ang):
   XX=            -40.6351   YY=            -78.0654   ZZ=            -66.9635
   XY=              0.7260   XZ=              2.2998   YZ=              1.7918

  Exact polarizability: 198.369   7.675 145.254   0.215  -1.727 113.066
 Approx polarizability: 141.038   7.346 122.363  -0.126  -1.914 100.014

 ******    1 imaginary frequencies (negative Signs) ******

                      1                      2                      3
                      A                      A                      A
 Frequencies --   -375.3673                45.7892                62.7562
 Red. masses --      6.6178                 2.9214                 3.9426
 Frc consts  --      0.5494                 0.0036                 0.0091
 IR Inten    --   1077.4923                 1.1451                13.1789

                      4                      5                      6
                      A                      A                      A
 Frequencies --     97.1044               108.4923               116.9182
 Red. masses --      1.8497                 2.8640                 1.9579
 Frc consts  --      0.0103                 0.0199                 0.0158
 IR Inten    --     10.2572                 3.3001                14.2134

                      7                      8                      9
                      A                      A                      A
 Frequencies --    127.0493               160.3274               179.2322
 Red. masses --      3.3103                 1.1348                 1.3758
 Frc consts  --      0.0315                 0.0172                 0.0260
 IR Inten    --     18.4647                 1.2580                12.5777

                     10                     11                     12
                      A                      A                      A
 Frequencies --    198.4645               229.1581               239.2318
 Red. masses --      3.0378                 2.2068                 4.0878
 Frc consts  --      0.0705                 0.0683                 0.1378
 IR Inten    --     19.4515                 8.9824                11.4773

                     13                     14                     15
                      A                      A                      A
 Frequencies --    288.7901               350.9837               392.7067
 Red. masses --      2.9529                 2.2866                 3.2776
 Frc consts  --      0.1451                 0.1660                 0.2978
 IR Inten    --     36.4851                 2.5552                15.9141

                     16                     17                     18
                      A                      A                      A
 Frequencies --    451.7205               487.9311               600.4113
 Red. masses --      3.7617                 7.2920                 4.7381
 Frc consts  --      0.4522                 1.0229                 1.0063
 IR Inten    --    123.2833                14.5943                 6.7265

                     19                     20                     21
                      A                      A                      A
 Frequencies --    641.5736               667.3119               780.3059
 Red. masses --      1.1806                 4.8210                 9.5097
 Frc consts  --      0.2863                 1.2649                 3.4115
 IR Inten    --     20.3742                26.2580                55.9343

                     22                     23                     24
                      A                      A                      A
 Frequencies --    818.9989               968.0907              1002.9651
 Red. masses --      2.6785                 1.6719                 1.2538
 Frc consts  --      1.0586                 0.9232                 0.7431
 IR Inten    --     14.6124                11.9743                29.1238

                     25                     26                     27
                      A                      A                      A
 Frequencies --   1021.1307              1067.5102              1079.7244
 Red. masses --      1.2697                 1.4951                 3.7372
 Frc consts  --      0.7800                 1.0039                 2.5670
 IR Inten    --    129.8629                25.8145               282.1319

                     28                     29                     30
                      A                      A                      A
 Frequencies --   1088.9444              1132.5642              1151.8960
 Red. masses --      1.4370                 1.2343                 1.4470
 Frc consts  --      1.0040                 0.9328                 1.1312
 IR Inten    --     17.6617                 5.9366               203.3376

                     31                     32                     33
                      A                      A                      A
 Frequencies --   1168.2139              1189.4372              1206.6899
 Red. masses --      1.3942                 1.1341                 1.4132
 Frc consts  --      1.1210                 0.9453                 1.2124
 IR Inten    --     26.3382               111.6013                22.0511

                     34                     35                     36
                      A                      A                      A
 Frequencies --   1232.2805              1312.8161              1345.5672
 Red. masses --      2.3442                 4.8367                 1.3439
 Frc consts  --      2.0973                 4.9114                 1.4336
 IR Inten    --     44.1177                16.4519                10.6362

                     37                     38                     39
                      A                      A                      A
 Frequencies --   1357.9231              1430.6826              1445.5760
 Red. masses --      1.9082                 1.9479                 1.2064
 Frc consts  --      2.0731                 2.3491                 1.4853
 IR Inten    --    296.9922               434.8855                53.0132

                     40                     41                     42
                      A                      A                      A
 Frequencies --   1462.4844              1474.4735              1482.9453
 Red. masses --      1.1942                 1.1745                 1.0830
 Frc consts  --      1.5048                 1.5045                 1.4033
 IR Inten    --     11.6775                74.7415                 3.0097

                     43                     44                     45
                      A                      A                      A
 Frequencies --   1490.0371              1490.7864              1499.1727
 Red. masses --      1.0613                 1.0789                 1.4831
 Frc consts  --      1.3883                 1.4127                 1.9639
 IR Inten    --     21.0595                58.9889                91.1500

                     46                     47                     48
                      A                      A                      A
 Frequencies --   1502.6027              1508.1905              1534.4506
 Red. masses --      1.2326                 1.0504                 1.5755
 Frc consts  --      1.6397                 1.4077                 2.1857
 IR Inten    --    102.7757                 8.2924               229.4412

                     49                     50                     51
                      A                      A                      A
 Frequencies --   1616.9775              1654.3396              3023.1252
 Red. masses --      6.1055                 1.0949                 1.0475
 Frc consts  --      9.4055                 1.7656                 5.6406
 IR Inten    --    618.8118                49.7590                97.3154

                     52                     53                     54
                      A                      A                      A
 Frequencies --   3036.0930              3060.9551              3089.7419
 Red. masses --      1.0394                 1.0340                 1.1022
 Frc consts  --      5.6448                 5.7081                 6.1994
 IR Inten    --    116.7202                67.1481                71.3800

                     55                     56                     57
                      A                      A                      A
 Frequencies --   3101.3117              3135.8483              3155.2514
 Red. masses --      1.0930                 1.1039                 1.0824
 Frc consts  --      6.1939                 6.3959                 6.3492
 IR Inten    --     27.2407                24.8029                17.2474

                     58                     59                     60
                      A                      A                      A
 Frequencies --   3155.4190              3169.7853              3176.4924
 Red. masses --      1.0818                 1.0998                 1.0978
 Frc consts  --      6.3460                 6.5108                 6.5266
 IR Inten    --     28.7748                13.5682                12.8917

                     61                     62                     63
                      A                      A                      A
 Frequencies --   3244.1268              3520.6957              3614.1237
 Red. masses --      1.1172                 1.0523                 1.0954
 Frc consts  --      6.9274                 7.6848                 8.4302
 IR Inten    --      3.5003                25.2356                60.3185

 - Thermochemistry -
 -------------------
 Temperature   298.150 Kelvin.  Pressure   1.00000 Atm.
 Atom     1 has atomic number  6 and mass  12.00000

 Molecular mass:   164.07164 amu.
 Principal axes and moments of inertia in atomic units:
                           1         2         3
     Eigenvalues --  1128.917942590.713393434.72970
           X            1.00000   0.00290  -0.00054
           Y           -0.00288   0.99966   0.02594
           Z            0.00061  -0.02593   0.99966
 This molecule is an asymmetric top.
 Rotational symmetry number  1.
 Warning -- assumption of classical behavior for rotation
           may cause significant error
 Rotational temperatures (Kelvin)      0.07672     0.03343     0.02522
 Rotational constants (GHZ):           1.59865     0.69662     0.52544
    1 imaginary frequencies ignored.
 Zero-point vibrational energy     511084.8 (Joules/Mol)
                                  122.15219 (Kcal/Mol)
 Warning -- explicit consideration of  17 degrees of freedom as
           vibrations may cause significant error
 Vibrational temperatures:     65.88    90.29   139.71   156.10   168.22
          (Kelvin)            182.80   230.68   257.88   285.55   329.71
                              344.20   415.50   504.99   565.02   649.93
                              702.02   863.86   923.08   960.11  1122.69
                             1178.36  1392.87  1443.04  1469.18  1535.91
                             1553.48  1566.75  1629.51  1657.32  1680.80
                             1711.33  1736.16  1772.98  1888.85  1935.97
                             1953.75  2058.43  2079.86  2104.19  2121.44
                             2133.63  2143.83  2144.91  2156.98  2161.91
                             2169.95  2207.73  2326.47  2380.23  4349.60
                             4368.26  4404.03  4445.45  4462.10  4511.79
                             4539.70  4539.94  4560.61  4570.26  4667.57
                             5065.50  5199.92

 Zero-point correction=                           0.194662 (Hartree/Particle)
 Thermal correction to Energy=                    0.207378
 Thermal correction to Enthalpy=                  0.208322
 Thermal correction to Gibbs Free Energy=         0.154820
 Sum of electronic and zero-point Energies=           -881.197924
 Sum of electronic and thermal Energies=              -881.185208
 Sum of electronic and thermal Enthalpies=            -881.184264
 Sum of electronic and thermal Free Energies=         -881.237766

                     E (Thermal)             CV                S
                      KCal/Mol        Cal/Mol-Kelvin    Cal/Mol-Kelvin
 Total                  130.131             43.121            112.603
 Electronic               0.000              0.000              0.000
 Translational            0.889              2.981             41.194
 Rotational               0.889              2.981             30.686
 Vibrational            128.354             37.159             40.724
 Vibration     1          0.595              1.979              4.991
 Vibration     2          0.597              1.972              4.369
 Vibration     3          0.603              1.951              3.512
 Vibration     4          0.606              1.942              3.296
 Vibration     5          0.608              1.935              3.151
 Vibration     6          0.611              1.926              2.990
 Vibration     7          0.622              1.891              2.546
 Vibration     8          0.629              1.868              2.336
 Vibration     9          0.637              1.842              2.147
 Vibration    10          0.652              1.796              1.886
 Vibration    11          0.657              1.780              1.809
 Vibration    12          0.685              1.695              1.481
 Vibration    13          0.728              1.573              1.162
 Vibration    14          0.760              1.486              0.990
 Vibration    15          0.810              1.357              0.791
 Vibration    16          0.844              1.277              0.689
 Vibration    17          0.959              1.031              0.449

 Optimization completed.
    -- Stationary point found.
 Normal termination of Gaussian 16 at Tue Apr 13 09:30:30 2021.
