 Gaussian 16, Revision A.03,
 Gaussian 16:  ES64L-G16RevA.03 25-Dec-2016

 ----------------------------------------------------------------------
 # wB97XD def2tzvp, opt=(ts, noeigen, calcfc, maxcycles=70, maxstep=5),
  freq=noraman, scrf=(iefpcm, solvent=water)
 ----------------------------------------------------------------------

 ------------------------
 2_iteration/TS-232-2.out
 ------------------------
 Symbolic Z-matrix:
 Charge =  0 Multiplicity = 1

 SCF Done:  E(RwB97XD) =  -3323.50611488     A.U. after   15 cycles
 SCF Done:  E(RwB97XD) =  -3323.50614873     A.U. after   12 cycles
 SCF Done:  E(RwB97XD) =  -3323.50616337     A.U. after   11 cycles
 SCF Done:  E(RwB97XD) =  -3323.50616163     A.U. after   10 cycles
 SCF Done:  E(RwB97XD) =  -3323.50616345     A.U. after   10 cycles
 Optimization completed.
    -- Stationary point found.
 Normal termination of Gaussian 16 at Thu Feb 11 10:35:05 2021.

 ---------------------------------------------------------------------
 #N Geom=AllCheck Guess=TCheck SCRF=Check GenChk RwB97XD/def2TZVP Freq
 ---------------------------------------------------------------------

 Structure from the checkpoint file:  "/beegfs/scratch/user/q/tla25/Gau-87876.chk"
 ------------------------
 2_iteration/TS-232-2.out
 ------------------------
 Charge =  0 Multiplicity = 1

                         Standard orientation:
 ---------------------------------------------------------------------
 Center     Atomic      Atomic             Coordinates (Angstroms)
 Number     Number       Type             X           Y           Z
 ---------------------------------------------------------------------
      1          6           0        0.017510    0.548167   -0.114474
      2          6           0       -0.660631   -0.450290    0.656302
      3          8           0       -0.114503   -1.008017    1.613502
      4          6           0        1.389158    0.788127   -0.134237
      5          6           0        0.906513    2.603930    2.073958
      6          1           0       -0.035786    2.055007    2.069509
      7          1           0        1.114581    2.941898    3.090235
      8          1           0        0.806408    3.468379    1.420797
      9          7           0        1.953568    1.731601    1.562775
     10          1           0        2.816324    2.228000    1.378081
     11          1           0        2.155198    0.979793    2.209527
     12          1           0        1.654278    1.634063   -0.757045
     13          6           0        2.462656   -0.247574   -0.188880
     14          6           0        2.672778   -1.251075    0.755438
     15          6           0        3.699500   -2.168277    0.589218
     16          6           0        4.532600   -2.103484   -0.517820
     17          6           0        4.340250   -1.102447   -1.458249
     18          6           0        3.321349   -0.179037   -1.287962
     19          1           0        2.021824   -1.314458    1.613660
     20          1           0        3.848806   -2.939330    1.334642
     21          1           0        5.331648   -2.823175   -0.642718
     22          1           0        4.988128   -1.033362   -2.322818
     23          1           0        3.185180    0.604656   -2.023862
     24         35           0       -1.057768    1.892396   -0.988498
     25          6           0       -2.064653   -0.858011    0.316125
     26          6           0       -2.425546   -1.195137   -0.984485
     27          6           0       -3.703473   -1.657180   -1.257969
     28          6           0       -4.637545   -1.764650   -0.236407
     29          6           0       -4.284202   -1.425350    1.062441
     30          6           0       -2.998348   -0.986859    1.338761
     31          1           0       -1.699113   -1.104341   -1.782708
     32          1           0       -3.972081   -1.931431   -2.270274
     33          1           0       -5.638832   -2.115702   -0.452058
     34          1           0       -5.009857   -1.508180    1.861680
     35          1           0       -2.711279   -0.737878    2.352774
 ---------------------------------------------------------------------

 SCF Done:  E(RwB97XD) =  -3323.50616345     A.U. after    1 cycles

 The electronic state is 1-A.
 Alpha  occ. eigenvalues -- -483.12150 -62.66978 -56.46085 -56.45746 -56.45739
 Alpha  occ. eigenvalues --  -19.22312 -14.47162 -10.36949 -10.34859 -10.31366
 Alpha  occ. eigenvalues --  -10.31205 -10.30928 -10.29845 -10.29482 -10.29400
 Alpha  occ. eigenvalues --  -10.29326 -10.29292 -10.29248 -10.29189 -10.29166
 Alpha  occ. eigenvalues --  -10.29151 -10.29120 -10.28893  -8.81081  -6.63198
 Alpha  occ. eigenvalues --   -6.62116  -6.62095  -2.73591  -2.73279  -2.73261
 Alpha  occ. eigenvalues --   -2.72386  -2.72385  -1.13082  -1.02720  -0.97328
 Alpha  occ. eigenvalues --   -0.96888  -0.92903  -0.88013  -0.86167  -0.85370
 Alpha  occ. eigenvalues --   -0.85335  -0.81531  -0.78296  -0.76254  -0.71706
 Alpha  occ. eigenvalues --   -0.70637  -0.70415  -0.68378  -0.63662  -0.62648
 Alpha  occ. eigenvalues --   -0.61567  -0.58666  -0.56611  -0.56340  -0.55679
 Alpha  occ. eigenvalues --   -0.54989  -0.54544  -0.53591  -0.52863  -0.52290
 Alpha  occ. eigenvalues --   -0.51242  -0.51147  -0.50051  -0.47879  -0.47425
 Alpha  occ. eigenvalues --   -0.46995  -0.46701  -0.45726  -0.44445  -0.43392
 Alpha  occ. eigenvalues --   -0.43113  -0.42689  -0.41799  -0.39075  -0.37489
 Alpha  occ. eigenvalues --   -0.34900  -0.34026  -0.33746  -0.33434  -0.32436
 Alpha  occ. eigenvalues --   -0.27822
 Alpha virt. eigenvalues --    0.00533   0.04069   0.04974   0.05118   0.06170
 Alpha virt. eigenvalues --    0.09355   0.10680   0.12882   0.13527   0.14260
 Alpha virt. eigenvalues --    0.14547   0.14975   0.15749   0.16539   0.17350

 Mulliken charges:
               1
     1  C   -0.189221
     2  C    0.278290
     3  O   -0.485474
     4  C   -0.043372
     5  C   -0.283457
     6  H    0.147903
     7  H    0.149996
     8  H    0.152980
     9  N   -0.365485
    10  H    0.281126
    11  H    0.274575
    12  H    0.175392
    13  C    0.248448
    14  C   -0.289699
    15  C   -0.139851
    16  C   -0.155999
    17  C   -0.135959
    18  C   -0.248683
    19  H    0.177657
    20  H    0.143209
    21  H    0.145408
    22  H    0.144843
    23  H    0.141316
    24  Br  -0.150607
    25  C    0.193217
    26  C   -0.256857
    27  C   -0.129320
    28  C   -0.141659
    29  C   -0.139551
    30  C   -0.234532
    31  H    0.158719
    32  H    0.144623
    33  H    0.146455
    34  H    0.143937
    35  H    0.141633
 Sum of Mulliken charges =  -0.00000

 Dipole moment (field-independent basis, Debye):
    X=              5.0423    Y=              3.5960    Z=              1.3427  Tot=              6.3371
 Quadrupole moment (field-independent basis, Debye-Ang):
   XX=           -101.8850   YY=           -119.7175   ZZ=           -115.5267
   XY=              9.6180   XZ=              2.2165   YZ=             10.2304

  Exact polarizability: 368.737   3.264 272.932  -4.027  -9.004 292.571
 Approx polarizability: 271.725  -0.764 223.419  -4.806 -13.003 254.177

 ******    1 imaginary frequencies (negative Signs) ******

                      1                      2                      3
                      A                      A                      A
 Frequencies --   -330.8410                21.3289                37.7231
 Red. masses --      5.8984                 5.1057                 4.2534
 Frc consts  --      0.3804                 0.0014                 0.0036
 IR Inten    --    840.9399                 0.6574                 4.4955

                      4                      5                      6
                      A                      A                      A
 Frequencies --     45.4048                50.8974                70.5055
 Red. masses --      4.7296                 3.7679                 2.6742
 Frc consts  --      0.0057                 0.0058                 0.0078
 IR Inten    --      3.2580                 2.6937                 9.4273

                      7                      8                      9
                      A                      A                      A
 Frequencies --     85.9468               100.0104               112.3008
 Red. masses --      5.1432                 4.3341                 4.0578
 Frc consts  --      0.0224                 0.0255                 0.0302
 IR Inten    --      2.9417                 5.7491                11.9895

                     10                     11                     12
                      A                      A                      A
 Frequencies --    125.1651               161.8473               188.5245
 Red. masses --      4.9333                 1.1945                 5.3678
 Frc consts  --      0.0455                 0.0184                 0.1124
 IR Inten    --      1.5026                 2.1803                 0.8437

                     13                     14                     15
                      A                      A                      A
 Frequencies --    195.9062               223.0996               236.6770
 Red. masses --      7.4109                 5.0512                 3.9259
 Frc consts  --      0.1676                 0.1481                 0.1296
 IR Inten    --      5.1571                 3.5534                 2.5356

                     16                     17                     18
                      A                      A                      A
 Frequencies --    249.0496               306.6531               334.4435
 Red. masses --      4.0225                 5.6003                 8.8424
 Frc consts  --      0.1470                 0.3103                 0.5827
 IR Inten    --     11.7673                45.6807                11.9587

                     19                     20                     21
                      A                      A                      A
 Frequencies --    410.2453               421.9898               425.5910
 Red. masses --      4.5114                 2.9398                 3.3953
 Frc consts  --      0.4474                 0.3084                 0.3623
 IR Inten    --      9.2230                 2.5526                 9.7390

                     22                     23                     24
                      A                      A                      A
 Frequencies --    432.2577               502.8426               546.4475
 Red. masses --      4.4221                 2.3948                 3.6630
 Frc consts  --      0.4868                 0.3568                 0.6444
 IR Inten    --     17.7693                38.0476                71.9051

                     25                     26                     27
                      A                      A                      A
 Frequencies --    572.5121               609.1314               630.3486
 Red. masses --      2.9551                 4.8659                 3.5213
 Frc consts  --      0.5707                 1.0637                 0.8244
 IR Inten    --     63.2413                18.5281                17.1829

                     28                     29                     30
                      A                      A                      A
 Frequencies --    635.3710               646.3431               722.7372
 Red. masses --      6.3956                 3.9503                 3.0973
 Frc consts  --      1.5212                 0.9723                 0.9532
 IR Inten    --      0.2807                24.2506                 9.0843

                     31                     32                     33
                      A                      A                      A
 Frequencies --    726.5274               728.5938               749.6564
 Red. masses --      1.6972                 2.0381                 3.3665
 Frc consts  --      0.5278                 0.6375                 1.1147
 IR Inten    --     69.4346                92.7579                87.3685

                     34                     35                     36
                      A                      A                      A
 Frequencies --    796.5090               816.0656               832.6464
 Red. masses --      2.0144                 3.8046                 3.9026
 Frc consts  --      0.7530                 1.4928                 1.5941
 IR Inten    --     16.7275                13.8079                41.9399

                     37                     38                     39
                      A                      A                      A
 Frequencies --    882.0831               882.6753               925.5643
 Red. masses --      1.2480                 1.2452                 4.8333
 Frc consts  --      0.5721                 0.5716                 2.4396
 IR Inten    --      1.1484                 1.4733                61.7219

                     40                     41                     42
                      A                      A                      A
 Frequencies --    966.4354               971.4935               982.7331
 Red. masses --      1.4422                 1.4825                 1.1132
 Frc consts  --      0.7936                 0.8244                 0.6334
 IR Inten    --      6.1070                 8.4626               122.2008

                     43                     44                     45
                      A                      A                      A
 Frequencies --   1007.9265              1015.9645              1020.4605
 Red. masses --      1.1416                 1.3781                 1.3895
 Frc consts  --      0.6833                 0.8381                 0.8525
 IR Inten    --     46.2302                 1.2720                 9.3599

                     46                     47                     48
                      A                      A                      A
 Frequencies --   1026.1375              1026.4208              1032.7042
 Red. masses --      4.9253                 5.9747                 1.3174
 Frc consts  --      3.0556                 3.7087                 0.8278
 IR Inten    --      1.8166                 1.7163                 0.2657

                     49                     50                     51
                      A                      A                      A
 Frequencies --   1037.5983              1056.1678              1064.9450
 Red. masses --      1.3225                 2.6920                 2.2782
 Frc consts  --      0.8389                 1.7693                 1.5223
 IR Inten    --      7.7254                19.7685                12.0039

                     52                     53                     54
                      A                      A                      A
 Frequencies --   1080.7635              1093.5818              1113.4250
 Red. masses --      3.0823                 2.1045                 1.5524
 Frc consts  --      2.1212                 1.4828                 1.1339
 IR Inten    --     77.9088                24.3076                18.5084

                     55                     56                     57
                      A                      A                      A
 Frequencies --   1118.6030              1120.9914              1183.5184
 Red. masses --      1.6282                 1.4174                 1.1376
 Frc consts  --      1.2003                 1.0494                 0.9388
 IR Inten    --     19.1180                61.4610                 0.2513

                     58                     59                     60
                      A                      A                      A
 Frequencies --   1186.3578              1197.8001              1204.4325
 Red. masses --      1.1306                 1.4102                 1.1267
 Frc consts  --      0.9376                 1.1920                 0.9630
 IR Inten    --      1.0447                13.7421                 4.6912

                     61                     62                     63
                      A                      A                      A
 Frequencies --   1212.8251              1218.5993              1273.4711
 Red. masses --      3.2894                 1.1287                 2.4288
 Frc consts  --      2.8508                 0.9875                 2.3207
 IR Inten    --     48.1509                 3.2962                69.0016

                     64                     65                     66
                      A                      A                      A
 Frequencies --   1325.5396              1333.6024              1344.4430
 Red. masses --      4.2183                 4.8546                 1.3354
 Frc consts  --      4.3669                 5.0869                 1.4222
 IR Inten    --      9.6474                 6.8487                 5.0521

                     67                     68                     69
                      A                      A                      A
 Frequencies --   1356.8030              1365.0673              1399.7801
 Red. masses --      1.4949                 1.5107                 2.3211
 Frc consts  --      1.6214                 1.6586                 2.6796
 IR Inten    --     12.8915                31.3924               867.2631

                     70                     71                     72
                      A                      A                      A
 Frequencies --   1443.4496              1463.7705              1488.0602
 Red. masses --      1.8048                 1.5335                 1.0410
 Frc consts  --      2.2156                 1.9358                 1.3582
 IR Inten    --    268.4820               143.5906                12.6897

                     73                     74                     75
                      A                      A                      A
 Frequencies --   1490.9715              1501.0297              1505.4031
 Red. masses --      2.2526                 1.0420                 2.2736
 Frc consts  --      2.9503                 1.3833                 3.0358
 IR Inten    --     27.6278                27.1820               121.5234

                     76                     77                     78
                      A                      A                      A
 Frequencies --   1540.6323              1543.5982              1635.9276
 Red. masses --      2.3329                 2.3158                 5.6461
 Frc consts  --      3.2625                 3.2510                 8.9028
 IR Inten    --      5.0953                27.3705               299.6821

                     79                     80                     81
                      A                      A                      A
 Frequencies --   1644.9332              1651.0844              1657.1529
 Red. masses --      1.2252                 4.9766                 6.2974
 Frc consts  --      1.9532                 7.9933                10.1891
 IR Inten    --     25.6394                 8.1705                69.2252

                     82                     83                     84
                      A                      A                      A
 Frequencies --   1674.1502              1674.9574              3061.3264
 Red. masses --      5.8744                 5.7869                 1.0344
 Frc consts  --      9.7007                 9.5654                 5.7118
 IR Inten    --      8.5069                 3.4918                44.5623

                     85                     86                     87
                      A                      A                      A
 Frequencies --   3133.5669              3163.4687              3189.3239
 Red. masses --      1.1038                 1.1045                 1.0886
 Frc consts  --      6.3859                 6.5126                 6.5243
 IR Inten    --     17.3355                17.3562                 1.6442

                     88                     89                     90
                      A                      A                      A
 Frequencies --   3193.0470              3194.3394              3199.3257
 Red. masses --      1.0874                 1.0858                 1.0886
 Frc consts  --      6.5321                 6.5278                 6.5649
 IR Inten    --      7.2477                 1.4214                 2.3425

                     91                     92                     93
                      A                      A                      A
 Frequencies --   3200.0476              3207.3640              3209.8608
 Red. masses --      1.0881                 1.0917                 1.0932
 Frc consts  --      6.5650                 6.6170                 6.6365
 IR Inten    --      0.8000                11.5221                32.1207

                     94                     95                     96
                      A                      A                      A
 Frequencies --   3214.6213              3221.6261              3222.8043
 Red. masses --      1.0952                 1.0982                 1.0989
 Frc consts  --      6.6684                 6.7153                 6.7248
 IR Inten    --     33.5749                23.4315                18.3486

                     97                     98                     99
                      A                      A                      A
 Frequencies --   3253.7992              3539.6774              3624.1156
 Red. masses --      1.0925                 1.0501                 1.0963
 Frc consts  --      6.8149                 7.7521                 8.4833
 IR Inten    --     13.1670                44.6443                42.2631

 - Thermochemistry -
 -------------------
 Temperature   298.150 Kelvin.  Pressure   1.00000 Atm.
 Atom     1 has atomic number  6 and mass  12.00000

 Molecular mass:   317.04153 amu.
 Principal axes and moments of inertia in atomic units:
                           1         2         3
     Eigenvalues --  4173.173639116.58941**********
           X            0.99970   0.02414  -0.00423
           Y           -0.02362   0.99511   0.09592
           Z            0.00652  -0.09579   0.99538
 This molecule is an asymmetric top.
 Rotational symmetry number  1.
 Warning -- assumption of classical behavior for rotation
           may cause significant error
 Rotational temperatures (Kelvin)      0.02075     0.00950     0.00824
 Rotational constants (GHZ):           0.43246     0.19796     0.17166
    1 imaginary frequencies ignored.
 Zero-point vibrational energy     744816.8 (Joules/Mol)
                                  178.01549 (Kcal/Mol)
 Warning -- explicit consideration of  25 degrees of freedom as
           vibrations may cause significant error
 Vibrational temperatures:     30.69    54.28    65.33    73.23   101.44
          (Kelvin)            123.66   143.89   161.58   180.08   232.86
                              271.24   281.87   320.99   340.53   358.33
                              441.21   481.19   590.25   607.15   612.33
                              621.92   723.48   786.22   823.72   876.40
                              906.93   914.16   929.94  1039.86  1045.31
                             1048.28  1078.59  1146.00  1174.14  1197.99
                             1269.12  1269.97  1331.68  1390.49  1397.76
                             1413.93  1450.18  1461.75  1468.22  1476.38
                             1476.79  1485.83  1492.87  1519.59  1532.22
                             1554.98  1573.42  1601.97  1609.42  1612.86
                             1702.82  1706.90  1723.37  1732.91  1744.98
                             1753.29  1832.24  1907.16  1918.76  1934.35
                             1952.14  1964.03  2013.97  2076.80  2106.04
                             2140.99  2145.18  2159.65  2165.94  2216.63
                             2220.89  2353.73  2366.69  2375.54  2384.27
                             2408.73  2409.89  4404.57  4508.50  4551.53
                             4588.73  4594.08  4595.94  4603.12  4604.15
                             4614.68  4618.27  4625.12  4635.20  4636.90
                             4681.49  5092.81  5214.29

 Zero-point correction=                           0.283686 (Hartree/Particle)
 Thermal correction to Energy=                    0.301589
 Thermal correction to Enthalpy=                  0.302533
 Thermal correction to Gibbs Free Energy=         0.234748
 Sum of electronic and zero-point Energies=          -3323.222478
 Sum of electronic and thermal Energies=             -3323.204575
 Sum of electronic and thermal Enthalpies=           -3323.203631
 Sum of electronic and thermal Free Energies=        -3323.271415

                     E (Thermal)             CV                S
                      KCal/Mol        Cal/Mol-Kelvin    Cal/Mol-Kelvin
 Total                  189.250             66.050            142.665
 Electronic               0.000              0.000              0.000
 Translational            0.889              2.981             43.157
 Rotational               0.889              2.981             34.347
 Vibrational            187.472             60.088             65.161
 Vibration     1          0.593              1.985              6.506
 Vibration     2          0.594              1.982              5.375
 Vibration     3          0.595              1.979              5.008
 Vibration     4          0.595              1.977              4.782
 Vibration     5          0.598              1.968              4.139
 Vibration     6          0.601              1.959              3.750
 Vibration     7          0.604              1.949              3.454
 Vibration     8          0.607              1.939              3.229
 Vibration     9          0.610              1.928              3.019
 Vibration    10          0.622              1.889              2.528
 Vibration    11          0.633              1.856              2.242
 Vibration    12          0.636              1.846              2.171
 Vibration    13          0.649              1.806              1.934
 Vibration    14          0.656              1.785              1.828
 Vibration    15          0.662              1.764              1.737
 Vibration    16          0.697              1.661              1.380
 Vibration    17          0.716              1.607              1.239
 Vibration    18          0.774              1.448              0.926
 Vibration    19          0.784              1.422              0.885
 Vibration    20          0.787              1.415              0.873
 Vibration    21          0.793              1.400              0.851
 Vibration    22          0.858              1.244              0.651
 Vibration    23          0.902              1.147              0.552
 Vibration    24          0.929              1.091              0.499
 Vibration    25          0.968              1.012              0.434

 Optimization completed.
    -- Stationary point found.
 Normal termination of Gaussian 16 at Thu Feb 11 12:26:30 2021.
