 Gaussian 16, Revision A.03,
 Gaussian 16:  ES64L-G16RevA.03 25-Dec-2016

 ----------------------------------------------------------------------
 # wB97XD def2tzvp, opt=(ts, noeigen, calcfc, maxcycles=70, maxstep=8),
  freq=noraman, scrf=(iefpcm, solvent=water)
 ----------------------------------------------------------------------

 ------------------------
 1_iteration/TS-211-1.out
 ------------------------
 Symbolic Z-matrix:
 Charge =  0 Multiplicity = 1

 SCF Done:  E(RwB97XD) =  -574.221875340     A.U. after   14 cycles
 SCF Done:  E(RwB97XD) =  -574.222582096     A.U. after   13 cycles
 SCF Done:  E(RwB97XD) =  -574.223031076     A.U. after   12 cycles
 SCF Done:  E(RwB97XD) =  -574.223176580     A.U. after   14 cycles
 SCF Done:  E(RwB97XD) =  -574.223612290     A.U. after   13 cycles
 SCF Done:  E(RwB97XD) =  -574.223885545     A.U. after   14 cycles
 SCF Done:  E(RwB97XD) =  -574.224013754     A.U. after   12 cycles
 SCF Done:  E(RwB97XD) =  -574.224304781     A.U. after   12 cycles
 SCF Done:  E(RwB97XD) =  -574.224322778     A.U. after   12 cycles
 SCF Done:  E(RwB97XD) =  -574.224409439     A.U. after   12 cycles
 SCF Done:  E(RwB97XD) =  -574.224175334     A.U. after   12 cycles
 SCF Done:  E(RwB97XD) =  -574.224272494     A.U. after   12 cycles
 SCF Done:  E(RwB97XD) =  -574.224439624     A.U. after   12 cycles
 SCF Done:  E(RwB97XD) =  -574.224448512     A.U. after   10 cycles
 SCF Done:  E(RwB97XD) =  -574.224451170     A.U. after    9 cycles
 SCF Done:  E(RwB97XD) =  -574.224452320     A.U. after    9 cycles
 SCF Done:  E(RwB97XD) =  -574.224452807     A.U. after    9 cycles
 SCF Done:  E(RwB97XD) =  -574.224452983     A.U. after    8 cycles
 SCF Done:  E(RwB97XD) =  -574.224453031     A.U. after    7 cycles
 Optimization completed.
    -- Stationary point found.
 Normal termination of Gaussian 16 at Wed Feb 10 09:48:49 2021.

 ---------------------------------------------------------------------
 #N Geom=AllCheck Guess=TCheck SCRF=Check GenChk RwB97XD/def2TZVP Freq
 ---------------------------------------------------------------------

 Structure from the checkpoint file:  "/beegfs/scratch/user/q/tla25/Gau-13874.chk"
 ------------------------
 1_iteration/TS-211-1.out
 ------------------------
 Charge =  0 Multiplicity = 1

                         Standard orientation:
 ---------------------------------------------------------------------
 Center     Atomic      Atomic             Coordinates (Angstroms)
 Number     Number       Type             X           Y           Z
 ---------------------------------------------------------------------
      1          6           0        1.546634   -0.245188    1.010374
      2          6           0        2.029614   -1.065018   -0.056283
      3          8           0        1.579121   -1.035915   -1.219841
      4          6           0        0.429568    0.587603    0.870346
      5          6           0        2.035290    2.551430   -0.344495
      6          1           0        2.471017    2.936171   -1.267133
      7          1           0        1.821748    3.381140    0.327339
      8          1           0        2.753918    1.882176    0.133844
      9          7           0        0.817150    1.797612   -0.587281
     10          1           0        0.038111    2.384558   -0.856205
     11          1           0        0.955821    1.071141   -1.286983
     12          1           0        0.351074    1.338206    1.653063
     13          6           0       -0.930349    0.144437    0.421407
     14          6           0       -1.219420   -1.184162    0.126863
     15          6           0       -2.502777   -1.567574   -0.232141
     16          6           0       -3.524539   -0.630541   -0.292059
     17          6           0       -3.255214    0.693950    0.021955
     18          6           0       -1.970967    1.072250    0.379461
     19          1           0       -0.433825   -1.923608    0.187295
     20          1           0       -2.706633   -2.606376   -0.460440
     21          1           0       -4.526523   -0.932390   -0.569856
     22          1           0       -4.046784    1.432247   -0.003744
     23          1           0       -1.775955    2.106773    0.640649
     24          1           0        2.226866   -0.037655    1.826531
     25          7           0        3.072479   -1.917614    0.225980
     26          1           0        3.573161   -1.806425    1.090188
     27          1           0        3.610592   -2.241740   -0.559287
 ---------------------------------------------------------------------

 SCF Done:  E(RwB97XD) =  -574.224453031     A.U. after    1 cycles

 The electronic state is 1-A.
 Alpha  occ. eigenvalues --  -19.19314 -14.47026 -14.42908 -10.36693 -10.33458
 Alpha  occ. eigenvalues --  -10.30990 -10.30013 -10.29089 -10.28999 -10.28942
 Alpha  occ. eigenvalues --  -10.28857 -10.28717 -10.23958  -1.11369  -1.02720
 Alpha  occ. eigenvalues --   -0.98216  -0.96785  -0.89115  -0.85108  -0.83095
 Alpha  occ. eigenvalues --   -0.78164  -0.74393  -0.70423  -0.68609  -0.64212
 Alpha  occ. eigenvalues --   -0.62057  -0.61606  -0.58950  -0.56651  -0.55949
 Alpha  occ. eigenvalues --   -0.54914  -0.53712  -0.52729  -0.51075  -0.50000
 Alpha  occ. eigenvalues --   -0.48938  -0.47717  -0.47326  -0.46628  -0.46166
 Alpha  occ. eigenvalues --   -0.42766  -0.42432  -0.41658  -0.34712  -0.34161
 Alpha  occ. eigenvalues --   -0.33443  -0.32181  -0.26705
 Alpha virt. eigenvalues --    0.02655   0.05452   0.09080   0.10875   0.12864
 Alpha virt. eigenvalues --    0.13760   0.14592   0.15739   0.16457   0.16753
 Alpha virt. eigenvalues --    0.17497   0.18252   0.18543   0.19777   0.20120

 Mulliken charges:
               1
     1  C   -0.533379
     2  C    0.355457
     3  O   -0.584246
     4  C    0.124502
     5  C   -0.272677
     6  H    0.145619
     7  H    0.146337
     8  H    0.142972
     9  N   -0.330653
    10  H    0.271929
    11  H    0.270405
    12  H    0.158852
    13  C    0.117645
    14  C   -0.201484
    15  C   -0.128605
    16  C   -0.158431
    17  C   -0.130139
    18  C   -0.306826
    19  H    0.156507
    20  H    0.141049
    21  H    0.143766
    22  H    0.142851
    23  H    0.157696
    24  H    0.140547
    25  N   -0.494135
    26  H    0.266756
    27  H    0.257684
 Sum of Mulliken charges =  -0.00000

 Dipole moment (field-independent basis, Debye):
    X=              0.7889    Y=              5.8649    Z=              1.1279  Tot=              6.0243
 Quadrupole moment (field-independent basis, Debye-Ang):
   XX=            -62.3919   YY=            -66.1292   ZZ=            -83.1137
   XY=              1.1827   XZ=              5.4849   YZ=             -2.7121

  Exact polarizability: 228.271 -17.285 214.670  13.512   2.497 145.232
 Approx polarizability: 171.711 -12.085 172.661  11.737   3.455 128.994

 ******    1 imaginary frequencies (negative Signs) ******

                      1                      2                      3
                      A                      A                      A
 Frequencies --   -404.6046                41.0622                65.7949
 Red. masses --      5.0521                 3.9908                 2.7159
 Frc consts  --      0.4873                 0.0040                 0.0069
 IR Inten    --    852.8791                 1.7470                 1.5096

                      4                      5                      6
                      A                      A                      A
 Frequencies --     80.4281               102.4246               119.5496
 Red. masses --      4.2163                 4.0572                 3.7298
 Frc consts  --      0.0161                 0.0251                 0.0314
 IR Inten    --     15.3351                 3.9894                47.9841

                      7                      8                      9
                      A                      A                      A
 Frequencies --    153.1991               210.8362               224.9003
 Red. masses --      2.3701                 1.4359                 3.6502
 Frc consts  --      0.0328                 0.0376                 0.1088
 IR Inten    --     26.8843                21.4576                 1.9382

                     10                     11                     12
                      A                      A                      A
 Frequencies --    264.1398               300.8301               351.1075
 Red. masses --      3.1610                 4.4890                 3.5609
 Frc consts  --      0.1299                 0.2394                 0.2586
 IR Inten    --     10.5535                37.2729                30.1980

                     13                     14                     15
                      A                      A                      A
 Frequencies --    368.7624               408.7618               422.1184
 Red. masses --      1.4683                 2.5308                 2.8906
 Frc consts  --      0.1176                 0.2491                 0.3035
 IR Inten    --    313.1424                19.7047                 0.1341

                     16                     17                     18
                      A                      A                      A
 Frequencies --    476.2564               534.5826               542.8126
 Red. masses --      1.1350                 3.2226                 2.6349
 Frc consts  --      0.1517                 0.5426                 0.4574
 IR Inten    --     18.9396                86.9896                10.4939

                     19                     20                     21
                      A                      A                      A
 Frequencies --    595.5650               637.2817               644.3706
 Red. masses --      4.8098                 4.8902                 1.2794
 Frc consts  --      1.0052                 1.1701                 0.3130
 IR Inten    --      6.7068                 8.2798                88.9756

                     22                     23                     24
                      A                      A                      A
 Frequencies --    680.9203               724.2293               773.2885
 Red. masses --      1.7427                 1.6530                 2.2924
 Frc consts  --      0.4761                 0.5108                 0.8076
 IR Inten    --    108.6307                70.1477                52.7446

                     25                     26                     27
                      A                      A                      A
 Frequencies --    788.1869               805.1376               826.0922
 Red. masses --      6.1756                 4.2755                 2.9558
 Frc consts  --      2.2604                 1.6330                 1.1885
 IR Inten    --     48.7005                47.1218                13.4195

                     28                     29                     30
                      A                      A                      A
 Frequencies --    876.7532               953.6039               966.8596
 Red. masses --      1.2479                 2.0577                 1.7224
 Frc consts  --      0.5652                 1.1025                 0.9486
 IR Inten    --      0.8612                12.0534                 2.3434

                     31                     32                     33
                      A                      A                      A
 Frequencies --    996.6323              1013.5053              1027.1013
 Red. masses --      1.1236                 1.3354                 2.2465
 Frc consts  --      0.6576                 0.8082                 1.3963
 IR Inten    --     90.5882                 8.0196                 0.0504

                     34                     35                     36
                      A                      A                      A
 Frequencies --   1028.5538              1056.4022              1063.8646
 Red. masses --      2.0389                 1.2239                 2.0187
 Frc consts  --      1.2708                 0.8047                 1.3461
 IR Inten    --      2.2860                40.9452                20.3440

                     37                     38                     39
                      A                      A                      A
 Frequencies --   1086.8014              1099.0766              1118.0633
 Red. masses --      2.5432                 2.4778                 1.5929
 Frc consts  --      1.7698                 1.7635                 1.1732
 IR Inten    --    106.0141                63.7010                20.6564

                     40                     41                     42
                      A                      A                      A
 Frequencies --   1128.6200              1173.0456              1183.1188
 Red. masses --      1.1486                 2.0687                 1.1371
 Frc consts  --      0.8620                 1.6772                 0.9378
 IR Inten    --     65.7314                53.6942                 0.2050

                     43                     44                     45
                      A                      A                      A
 Frequencies --   1206.1497              1212.8188              1249.5532
 Red. masses --      1.3686                 1.1434                 1.5098
 Frc consts  --      1.1731                 0.9909                 1.3889
 IR Inten    --     27.3455                 8.9470                59.3659

                     46                     47                     48
                      A                      A                      A
 Frequencies --   1304.8919              1334.2339              1349.7520
 Red. masses --      2.3311                 4.1425                 1.3187
 Frc consts  --      2.3386                 4.3448                 1.4155
 IR Inten    --    269.9170                 2.8052                 8.8635

                     49                     50                     51
                      A                      A                      A
 Frequencies --   1363.3620              1438.2739              1458.1532
 Red. masses --      1.4492                 1.8348                 1.2659
 Frc consts  --      1.5871                 2.2362                 1.5859
 IR Inten    --      8.3307                16.7727                77.6907

                     52                     53                     54
                      A                      A                      A
 Frequencies --   1483.0540              1490.8630              1506.3096
 Red. masses --      2.5814                 1.0420                 1.7317
 Frc consts  --      3.3452                 1.3645                 2.3150
 IR Inten    --    500.2381                12.7848               330.8805

                     55                     56                     57
                      A                      A                      A
 Frequencies --   1508.0716              1546.7930              1611.9736
 Red. masses --      1.3268                 2.3915                 2.0497
 Frc consts  --      1.7779                 3.3713                 3.1380
 IR Inten    --     89.4022                21.0648               277.3177

                     58                     59                     60
                      A                      A                      A
 Frequencies --   1628.2903              1650.7669              1655.4465
 Red. masses --      1.4673                 1.5074                 4.3017
 Frc consts  --      2.2921                 2.4202                 6.9457
 IR Inten    --    471.5002                26.0340                20.9551

                     61                     62                     63
                      A                      A                      A
 Frequencies --   1675.9305              3052.3991              3124.6758
 Red. masses --      5.8431                 1.0338                 1.1031
 Frc consts  --      9.6695                 5.6753                 6.3455
 IR Inten    --      0.7414                58.3148                12.5080

                     64                     65                     66
                      A                      A                      A
 Frequencies --   3145.8065              3153.0098              3181.1200
 Red. masses --      1.0877                 1.1051                 1.0886
 Frc consts  --      6.3418                 6.4728                 6.4907
 IR Inten    --     21.5967                20.1083                13.5195

                     67                     68                     69
                      A                      A                      A
 Frequencies --   3194.6083              3195.5364              3206.3415
 Red. masses --      1.0896                 1.0874                 1.0924
 Frc consts  --      6.5518                 6.5421                 6.6169
 IR Inten    --     21.7276                 1.7081                28.2680

                     70                     71                     72
                      A                      A                      A
 Frequencies --   3219.0631              3238.8218              3469.7563
 Red. masses --      1.0976                 1.0927                 1.0584
 Frc consts  --      6.7009                 6.7532                 7.5074
 IR Inten    --     26.6112                 8.1751                50.7041

                     73                     74                     75
                      A                      A                      A
 Frequencies --   3601.6535              3611.4184              3731.5969
 Red. masses --      1.0897                 1.0462                 1.1026
 Frc consts  --      8.3287                 8.0393                 9.0458
 IR Inten    --     79.4877                54.3842                46.7519

 - Thermochemistry -
 -------------------
 Temperature   298.150 Kelvin.  Pressure   1.00000 Atm.
 Atom     1 has atomic number  6 and mass  12.00000

 Molecular mass:   178.11061 amu.
 Principal axes and moments of inertia in atomic units:
                           1         2         3
     Eigenvalues --  1465.656423233.573994195.04816
           X            0.99983   0.01669   0.00737
           Y           -0.01665   0.99985  -0.00565
           Z           -0.00747   0.00552   0.99996
 This molecule is an asymmetric top.
 Rotational symmetry number  1.
 Warning -- assumption of classical behavior for rotation
           may cause significant error
 Rotational temperatures (Kelvin)      0.05910     0.02679     0.02065
 Rotational constants (GHZ):           1.23135     0.55813     0.43021
    1 imaginary frequencies ignored.
 Zero-point vibrational energy     602410.3 (Joules/Mol)
                                  143.97951 (Kcal/Mol)
 Warning -- explicit consideration of  18 degrees of freedom as
           vibrations may cause significant error
 Vibrational temperatures:     59.08    94.66   115.72   147.37   172.01
          (Kelvin)            220.42   303.35   323.58   380.04   432.83
                              505.17   530.57   588.12   607.33   685.23
                              769.15   780.99   856.89   916.91   927.11
                              979.69  1042.00  1112.59  1134.03  1158.41
                             1188.56  1261.45  1372.02  1391.10  1433.93
                             1458.21  1477.77  1479.86  1519.93  1530.66
                             1563.66  1581.33  1608.64  1623.83  1687.75
                             1702.24  1735.38  1744.98  1797.83  1877.45
                             1919.66  1941.99  1961.57  2069.36  2097.96
                             2133.78  2145.02  2167.24  2169.78  2225.49
                             2319.27  2342.75  2375.09  2381.82  2411.29
                             4391.72  4495.71  4526.11  4536.48  4576.92
                             4596.33  4597.66  4613.21  4631.51  4659.94
                             4992.21  5181.98  5196.03  5368.94

 Zero-point correction=                           0.229446 (Hartree/Particle)
 Thermal correction to Energy=                    0.242242
 Thermal correction to Enthalpy=                  0.243186
 Thermal correction to Gibbs Free Energy=         0.189765
 Sum of electronic and zero-point Energies=           -573.995007
 Sum of electronic and thermal Energies=              -573.982211
 Sum of electronic and thermal Enthalpies=            -573.981267
 Sum of electronic and thermal Free Energies=         -574.034688

                     E (Thermal)             CV                S
                      KCal/Mol        Cal/Mol-Kelvin    Cal/Mol-Kelvin
 Total                  152.009             48.358            112.434
 Electronic               0.000              0.000              0.000
 Translational            0.889              2.981             41.439
 Rotational               0.889              2.981             31.364
 Vibrational            150.232             42.396             39.631
 Vibration     1          0.594              1.981              5.207
 Vibration     2          0.597              1.971              4.275
 Vibration     3          0.600              1.962              3.880
 Vibration     4          0.604              1.947              3.408
 Vibration     5          0.609              1.933              3.108
 Vibration     6          0.619              1.899              2.632
 Vibration     7          0.643              1.824              2.036
 Vibration     8          0.650              1.803              1.919
 Vibration     9          0.671              1.739              1.634
 Vibration    10          0.693              1.672              1.412
 Vibration    11          0.728              1.573              1.161
 Vibration    12          0.741              1.536              1.085
 Vibration    13          0.773              1.451              0.931
 Vibration    14          0.784              1.422              0.885
 Vibration    15          0.833              1.303              0.720
 Vibration    16          0.890              1.174              0.577
 Vibration    17          0.898              1.155              0.559
 Vibration    18          0.953              1.041              0.457

 Optimization completed.
    -- Stationary point found.
 Normal termination of Gaussian 16 at Wed Feb 10 10:28:15 2021.
