 Gaussian 16, Revision A.03,
 Gaussian 16:  ES64L-G16RevA.03 25-Dec-2016

 ----------------------------------------------------------------------
 # wB97XD def2tzvp, opt=(ts, noeigen, calcfc, maxcycles=70, maxstep=8),
  freq=noraman, scrf=(iefpcm, solvent=water)
 ----------------------------------------------------------------------

 ------------------------
 1_iteration/TS-259-1.out
 ------------------------
 Symbolic Z-matrix:
 Charge =  0 Multiplicity = 1

 SCF Done:  E(RwB97XD) =  -382.486159218     A.U. after   14 cycles
 SCF Done:  E(RwB97XD) =  -382.486159217     A.U. after    7 cycles
 Optimization completed.
    -- Stationary point found.
 Normal termination of Gaussian 16 at Wed Feb 10 05:15:34 2021.

 ---------------------------------------------------------------------
 #N Geom=AllCheck Guess=TCheck SCRF=Check GenChk RwB97XD/def2TZVP Freq
 ---------------------------------------------------------------------

 Structure from the checkpoint file:  "/beegfs/scratch/user/q/tla25/Gau-8866.chk"
 ------------------------
 1_iteration/TS-259-1.out
 ------------------------
 Charge =  0 Multiplicity = 1

                         Standard orientation:
 ---------------------------------------------------------------------
 Center     Atomic      Atomic             Coordinates (Angstroms)
 Number     Number       Type             X           Y           Z
 ---------------------------------------------------------------------
      1          6           0        0.596087    0.574448    0.330362
      2          6           0        1.518934   -0.457473   -0.010071
      3          8           0        2.651995   -0.236648   -0.479658
      4          6           0       -0.699154    0.296314    0.787565
      5          6           0       -3.258233   -0.317388   -0.112505
      6          1           0       -3.927352   -0.510147   -0.950519
      7          1           0       -3.227421   -1.195637    0.530254
      8          1           0       -3.636200    0.526925    0.461407
      9          7           0       -1.900060   -0.013350   -0.562031
     10          1           0       -1.495473   -0.777230   -1.091720
     11          1           0       -1.870791    0.813912   -1.146525
     12          1           0       -1.247387    1.120261    1.236462
     13          1           0       -0.897978   -0.636364    1.307945
     14          6           0        0.980072    1.990668   -0.017299
     15          1           0        0.250955    2.695016    0.390712
     16          1           0        1.959308    2.259901    0.387139
     17          1           0        1.032531    2.170342   -1.098212
     18          7           0        1.137835   -1.793631    0.130555
     19          1           0        0.429034   -2.021606    0.807209
     20          1           0        1.924151   -2.422733    0.155139
 ---------------------------------------------------------------------

 SCF Done:  E(RwB97XD) =  -382.486159217     A.U. after    1 cycles

 The electronic state is 1-A.
 Alpha  occ. eigenvalues --  -19.18244 -14.48967 -14.42268 -10.35540 -10.32309
 Alpha  occ. eigenvalues --  -10.32067 -10.25971 -10.23942  -1.10327  -1.04350
 Alpha  occ. eigenvalues --   -0.97338  -0.87940  -0.79530  -0.77338  -0.71935
 Alpha  occ. eigenvalues --   -0.63963  -0.62138  -0.59703  -0.57190  -0.54392
 Alpha  occ. eigenvalues --   -0.53352  -0.51212  -0.49492  -0.48364  -0.47629
 Alpha  occ. eigenvalues --   -0.45561  -0.44103  -0.43789  -0.42972  -0.34338
 Alpha  occ. eigenvalues --   -0.32094  -0.25015
 Alpha virt. eigenvalues --    0.08076   0.09693   0.13137   0.13775   0.14843
 Alpha virt. eigenvalues --    0.16429   0.17097   0.17983   0.18125   0.20356
 Alpha virt. eigenvalues --    0.20698   0.21342   0.21987   0.23237   0.24442

 Mulliken charges:
               1
     1  C   -0.170633
     2  C    0.264136
     3  O   -0.574637
     4  C   -0.280966
     5  C   -0.277786
     6  H    0.156060
     7  H    0.152330
     8  H    0.153220
     9  N   -0.266813
    10  H    0.279821
    11  H    0.285539
    12  H    0.162302
    13  H    0.152571
    14  C   -0.354408
    15  H    0.110280
    16  H    0.105154
    17  H    0.101199
    18  N   -0.492255
    19  H    0.246980
    20  H    0.247903
 Sum of Mulliken charges =  -0.00000

 Dipole moment (field-independent basis, Debye):
    X=            -12.3243    Y=             -1.6436    Z=              0.6365  Tot=             12.4497
 Quadrupole moment (field-independent basis, Debye-Ang):
   XX=            -55.1301   YY=            -45.6645   ZZ=            -49.6274
   XY=             -1.9610   XZ=              6.6556   YZ=             -3.2644

  Exact polarizability: 158.861  -1.305 109.687  -5.329   0.098  90.081
 Approx polarizability: 116.441  -0.001  87.525  -4.934   0.108  77.749

 ******    1 imaginary frequencies (negative Signs) ******

                      1                      2                      3
                      A                      A                      A
 Frequencies --   -380.5621                46.4588                73.1728
 Red. masses --      6.1861                 2.6720                 3.6117
 Frc consts  --      0.5279                 0.0034                 0.0114
 IR Inten    --   1057.8496                 2.0208                22.5124

                      4                      5                      6
                      A                      A                      A
 Frequencies --     92.2593               137.5442               154.1472
 Red. masses --      1.9051                 1.1169                 2.5501
 Frc consts  --      0.0096                 0.0124                 0.0357
 IR Inten    --      6.9979                 2.2655                 3.2834

                      7                      8                      9
                      A                      A                      A
 Frequencies --    183.2071               228.2975               283.4564
 Red. masses --      1.3166                 2.6918                 3.1901
 Frc consts  --      0.0260                 0.0827                 0.1510
 IR Inten    --      3.1560                19.4970                24.3403

                     10                     11                     12
                      A                      A                      A
 Frequencies --    397.5774               410.2201               453.1311
 Red. masses --      1.2292                 2.1918                 3.6729
 Frc consts  --      0.1145                 0.2173                 0.4443
 IR Inten    --      8.7994                 2.0382               277.0301

                     13                     14                     15
                      A                      A                      A
 Frequencies --    512.5732               534.7495               616.3258
 Red. masses --      2.5055                 1.3776                 4.1775
 Frc consts  --      0.3878                 0.2321                 0.9350
 IR Inten    --     64.4532               282.0451                28.6110

                     16                     17                     18
                      A                      A                      A
 Frequencies --    674.3797               782.2402               790.5132
 Red. masses --      1.1204                 3.2478                 7.4338
 Frc consts  --      0.3002                 1.1709                 2.7370
 IR Inten    --     37.0553                 1.4340                72.4632

                     19                     20                     21
                      A                      A                      A
 Frequencies --    930.6847               995.9539              1023.7472
 Red. masses --      1.5004                 1.5644                 1.1857
 Frc consts  --      0.7657                 0.9143                 0.7321
 IR Inten    --      0.9354                48.2561                 6.5769

                     22                     23                     24
                      A                      A                      A
 Frequencies --   1041.8063              1060.7861              1067.9791
 Red. masses --      1.5364                 1.4409                 1.6757
 Frc consts  --      0.9825                 0.9553                 1.1261
 IR Inten    --     39.3991                13.7438               310.5127

                     25                     26                     27
                      A                      A                      A
 Frequencies --   1091.0273              1167.7105              1226.4279
 Red. masses --      2.4434                 1.3354                 1.1536
 Frc consts  --      1.7137                 1.0728                 1.0223
 IR Inten    --     71.9455                10.1608               209.2772

                     28                     29                     30
                      A                      A                      A
 Frequencies --   1236.2086              1249.6974              1343.9382
 Red. masses --      1.6863                 1.3461                 1.3081
 Frc consts  --      1.5184                 1.2386                 1.3921
 IR Inten    --     83.9972                60.9039                 1.2896

                     31                     32                     33
                      A                      A                      A
 Frequencies --   1379.3496              1413.1204              1428.0511
 Red. masses --      1.8419                 1.3862                 4.1432
 Frc consts  --      2.0647                 1.6310                 4.9782
 IR Inten    --    164.6618                21.2941               255.0415

                     34                     35                     36
                      A                      A                      A
 Frequencies --   1464.4553              1467.6722              1492.1986
 Red. masses --      1.1751                 1.0601                 1.0400
 Frc consts  --      1.4848                 1.3454                 1.3644
 IR Inten    --      5.4860                 7.8630                16.0417

                     37                     38                     39
                      A                      A                      A
 Frequencies --   1498.6717              1506.3039              1529.6992
 Red. masses --      1.0729                 1.0320                 1.6949
 Frc consts  --      1.4197                 1.3796                 2.3367
 IR Inten    --     32.1448                12.7300               122.1322

                     40                     41                     42
                      A                      A                      A
 Frequencies --   1609.2676              1632.4198              1648.4540
 Red. masses --      2.5206                 1.6746                 1.1000
 Frc consts  --      3.8460                 2.6292                 1.7612
 IR Inten    --    862.9921               560.2465                17.2794

                     43                     44                     45
                      A                      A                      A
 Frequencies --   3004.4439              3062.3630              3071.6781
 Red. masses --      1.0484                 1.0871                 1.0328
 Frc consts  --      5.5757                 6.0067                 5.7416
 IR Inten    --    122.9637                67.8221                46.5348

                     46                     47                     48
                      A                      A                      A
 Frequencies --   3102.5605              3113.3050              3152.6733
 Red. masses --      1.1008                 1.0601                 1.1059
 Frc consts  --      6.2431                 6.0541                 6.4760
 IR Inten    --     45.2028                64.3198                15.1666

                     49                     50                     51
                      A                      A                      A
 Frequencies --   3164.8642              3182.7061              3524.3898
 Red. masses --      1.1060                 1.1137                 1.0511
 Frc consts  --      6.5269                 6.6465                 7.6921
 IR Inten    --     19.6068                24.5574                21.7647

                     52                     53                     54
                      A                      A                      A
 Frequencies --   3595.0403              3605.0190              3701.6717
 Red. masses --      1.0475                 1.0968                 1.0991
 Frc consts  --      7.9767                 8.3983                 8.8730
 IR Inten    --     20.9568                48.4152                29.9977

 - Thermochemistry -
 -------------------
 Temperature   298.150 Kelvin.  Pressure   1.00000 Atm.
 Atom     1 has atomic number  6 and mass  12.00000

 Molecular mass:   116.09496 amu.
 Principal axes and moments of inertia in atomic units:
                           1         2         3
     Eigenvalues --   574.759231571.545501956.28639
           X            0.99987   0.01572   0.00412
           Y           -0.01565   0.99973  -0.01706
           Z           -0.00439   0.01699   0.99985
 This molecule is an asymmetric top.
 Rotational symmetry number  1.
 Warning -- assumption of classical behavior for rotation
           may cause significant error
 Rotational temperatures (Kelvin)      0.15070     0.05511     0.04427
 Rotational constants (GHZ):           3.14000     1.14839     0.92253
    1 imaginary frequencies ignored.
 Zero-point vibrational energy     461498.9 (Joules/Mol)
                                  110.30090 (Kcal/Mol)
 Warning -- explicit consideration of  14 degrees of freedom as
           vibrations may cause significant error
 Vibrational temperatures:     66.84   105.28   132.74   197.90   221.78
          (Kelvin)            263.59   328.47   407.83   572.03   590.22
                              651.95   737.48   769.39   886.76   970.28
                             1125.47  1137.37  1339.05  1432.96  1472.94
                             1498.93  1526.23  1536.58  1569.74  1680.08
                             1764.56  1778.63  1798.04  1933.63  1984.58
                             2033.17  2054.65  2107.02  2111.65  2146.94
                             2156.25  2167.24  2200.90  2315.38  2348.69
                             2371.76  4322.72  4406.06  4419.46  4463.89
                             4479.35  4535.99  4553.53  4579.20  5070.81
                             5172.46  5186.82  5325.88

 Zero-point correction=                           0.175776 (Hartree/Particle)
 Thermal correction to Energy=                    0.185928
 Thermal correction to Enthalpy=                  0.186872
 Thermal correction to Gibbs Free Energy=         0.139872
 Sum of electronic and zero-point Energies=           -382.310384
 Sum of electronic and thermal Energies=              -382.300231
 Sum of electronic and thermal Enthalpies=            -382.299287
 Sum of electronic and thermal Free Energies=         -382.346288

                     E (Thermal)             CV                S
                      KCal/Mol        Cal/Mol-Kelvin    Cal/Mol-Kelvin
 Total                  116.671             35.190             98.921
 Electronic               0.000              0.000              0.000
 Translational            0.889              2.981             40.163
 Rotational               0.889              2.981             28.959
 Vibrational            114.894             29.229             29.798
 Vibration     1          0.595              1.979              4.963
 Vibration     2          0.599              1.967              4.066
 Vibration     3          0.602              1.955              3.612
 Vibration     4          0.614              1.916              2.838
 Vibration     5          0.620              1.898              2.620
 Vibration     6          0.631              1.863              2.295
 Vibration     7          0.651              1.798              1.892
 Vibration     8          0.682              1.704              1.513
 Vibration     9          0.764              1.475              0.972
 Vibration    10          0.774              1.448              0.926
 Vibration    11          0.812              1.354              0.786
 Vibration    12          0.868              1.222              0.627
 Vibration    13          0.890              1.173              0.577
 Vibration    14          0.976              0.997              0.422

 Optimization completed.
    -- Stationary point found.
 Normal termination of Gaussian 16 at Wed Feb 10 05:23:25 2021.
