 Gaussian 16, Revision A.03,
 Gaussian 16:  ES64L-G16RevA.03 25-Dec-2016

 ----------------------------------------------------------------------
 # wB97XD def2tzvp, opt=(ts, noeigen, calcfc, maxcycles=70, maxstep=8),
  freq=noraman, scrf=(iefpcm, solvent=water)
 ----------------------------------------------------------------------

 ------------------------
 1_iteration/TS-241-1.out
 ------------------------
 Symbolic Z-matrix:
 Charge =  0 Multiplicity = 1

 SCF Done:  E(RwB97XD) =  -518.846061799     A.U. after   15 cycles
 SCF Done:  E(RwB97XD) =  -518.846195660     A.U. after   12 cycles
 SCF Done:  E(RwB97XD) =  -518.846257551     A.U. after   13 cycles
 SCF Done:  E(RwB97XD) =  -518.846260117     A.U. after   10 cycles
 SCF Done:  E(RwB97XD) =  -518.846263366     A.U. after   10 cycles
 SCF Done:  E(RwB97XD) =  -518.846263426     A.U. after    8 cycles
 SCF Done:  E(RwB97XD) =  -518.846263418     A.U. after    6 cycles
 Optimization completed on the basis of negligible forces.
    -- Stationary point found.
 Normal termination of Gaussian 16 at Wed Feb 10 07:09:45 2021.

 ---------------------------------------------------------------------
 #N Geom=AllCheck Guess=TCheck SCRF=Check GenChk RwB97XD/def2TZVP Freq
 ---------------------------------------------------------------------

 Structure from the checkpoint file:  "/beegfs/scratch/user/q/tla25/Gau-89783.chk"
 ------------------------
 1_iteration/TS-241-1.out
 ------------------------
 Charge =  0 Multiplicity = 1

                         Standard orientation:
 ---------------------------------------------------------------------
 Center     Atomic      Atomic             Coordinates (Angstroms)
 Number     Number       Type             X           Y           Z
 ---------------------------------------------------------------------
      1          6           0        0.742488    0.568292    0.592494
      2          6           0        1.284066    1.826672    0.177537
      3          8           0        0.740455    2.728575   -0.456528
      4          6           0        1.627890   -0.264959    1.265135
      5          6           0        2.738940   -0.897869   -1.281296
      6          1           0        3.182672   -1.572505   -2.014050
      7          1           0        1.759404   -0.576140   -1.635692
      8          1           0        3.369934   -0.016069   -1.178897
      9          7           0        2.583681   -1.527594    0.021453
     10          1           0        2.062185   -2.392551   -0.044639
     11          1           0        3.476406   -1.739498    0.448957
     12          1           0        1.260422   -1.078480    1.876465
     13          1           0        2.558364    0.167464    1.610774
     14          6           0       -0.630328    0.131976    0.278061
     15          6           0       -1.662934    1.045948    0.027660
     16          6           0       -2.952472    0.616396   -0.244377
     17          6           0       -3.258104   -0.737141   -0.276671
     18          6           0       -2.249872   -1.657614   -0.032009
     19          6           0       -0.959304   -1.228898    0.236699
     20          1           0       -1.444478    2.103192    0.047555
     21          1           0       -3.728220    1.350047   -0.428959
     22          1           0       -4.266099   -1.069308   -0.490654
     23          1           0       -2.464766   -2.719105   -0.055708
     24          1           0       -0.196691   -1.976110    0.413805
     25          1           0        2.339230    1.966799    0.493697
 ---------------------------------------------------------------------

 SCF Done:  E(RwB97XD) =  -518.846263418     A.U. after    1 cycles

 The electronic state is 1-A.
 Alpha  occ. eigenvalues --  -19.21259 -14.47274 -10.34739 -10.32862 -10.31309
 Alpha  occ. eigenvalues --  -10.29787 -10.28500 -10.28363 -10.28274 -10.28103
 Alpha  occ. eigenvalues --  -10.27723 -10.26895  -1.11520  -1.02737  -0.96176
 Alpha  occ. eigenvalues --   -0.90233  -0.84383  -0.83400  -0.78573  -0.73784
 Alpha  occ. eigenvalues --   -0.70513  -0.69201  -0.64327  -0.62131  -0.58914
 Alpha  occ. eigenvalues --   -0.56686  -0.56178  -0.54758  -0.53347  -0.52799
 Alpha  occ. eigenvalues --   -0.51602  -0.49977  -0.48376  -0.47825  -0.47289
 Alpha  occ. eigenvalues --   -0.46990  -0.45427  -0.42799  -0.41877  -0.41698
 Alpha  occ. eigenvalues --   -0.35081  -0.33334  -0.32127  -0.26982
 Alpha virt. eigenvalues --    0.04270   0.05186   0.05945   0.10274   0.13358
 Alpha virt. eigenvalues --    0.13967   0.14528   0.15183   0.16322   0.17377
 Alpha virt. eigenvalues --    0.18326   0.18595   0.19060   0.19969   0.21120

 Mulliken charges:
               1
     1  C   -0.054501
     2  C    0.125976
     3  O   -0.491166
     4  C   -0.238636
     5  C   -0.292083
     6  H    0.156017
     7  H    0.151299
     8  H    0.152405
     9  N   -0.365205
    10  H    0.276382
    11  H    0.280944
    12  H    0.196092
    13  H    0.177866
    14  C    0.133977
    15  C   -0.248640
    16  C   -0.132699
    17  C   -0.164166
    18  C   -0.163175
    19  C   -0.243862
    20  H    0.139358
    21  H    0.135860
    22  H    0.138156
    23  H    0.136584
    24  H    0.127092
    25  H    0.066125
 Sum of Mulliken charges =  -0.00000

 Dipole moment (field-independent basis, Debye):
    X=              6.3020    Y=             -9.0437    Z=              1.3199  Tot=             11.1016
 Quadrupole moment (field-independent basis, Debye-Ang):
   XX=            -50.3020   YY=            -76.9692   ZZ=            -74.0508
   XY=            -12.2516   XZ=              3.3610   YZ=              2.8940

  Exact polarizability: 230.995  -9.601 215.123  16.636  -7.681 125.585
 Approx polarizability: 172.438  -9.008 177.453  14.053  -9.306 110.548

 ******    1 imaginary frequencies (negative Signs) ******

                      1                      2                      3
                      A                      A                      A
 Frequencies --   -332.2853                44.5826                49.6385
 Red. masses --      5.7716                 3.4956                 2.7533
 Frc consts  --      0.3755                 0.0041                 0.0040
 IR Inten    --    844.6803                 2.1239                 2.9230

                      4                      5                      6
                      A                      A                      A
 Frequencies --     92.0778               106.6566               148.9798
 Red. masses --      4.1563                 2.2974                 4.2852
 Frc consts  --      0.0208                 0.0154                 0.0560
 IR Inten    --      3.1149                 3.4310                16.7224

                      7                      8                      9
                      A                      A                      A
 Frequencies --    160.8148               216.6924               246.7919
 Red. masses --      1.2756                 4.7424                 2.8382
 Frc consts  --      0.0194                 0.1312                 0.1018
 IR Inten    --      2.4842                11.1121                 4.5987

                     10                     11                     12
                      A                      A                      A
 Frequencies --    308.0945               350.3045               383.3753
 Red. masses --      4.1780                 2.8740                 3.0523
 Frc consts  --      0.2337                 0.2078                 0.2643
 IR Inten    --     29.2078                 4.4047                 2.6916

                     13                     14                     15
                      A                      A                      A
 Frequencies --    424.8624               468.8839               514.7858
 Red. masses --      2.9319                 3.6952                 3.3177
 Frc consts  --      0.3118                 0.4787                 0.5180
 IR Inten    --      0.2251                36.4766                15.9411

                     16                     17                     18
                      A                      A                      A
 Frequencies --    590.5228               608.6054               638.9318
 Red. masses --      1.8815                 1.8169                 5.9260
 Frc consts  --      0.3866                 0.3965                 1.4253
 IR Inten    --     19.8514                35.1461                 1.2021

                     19                     20                     21
                      A                      A                      A
 Frequencies --    708.3672               723.5402               755.2306
 Red. masses --      4.5392                 1.6852                 5.0966
 Frc consts  --      1.3420                 0.5198                 1.7127
 IR Inten    --     65.1517                82.3629                 2.6896

                     22                     23                     24
                      A                      A                      A
 Frequencies --    795.9503               871.2472               914.5209
 Red. masses --      2.0837                 1.2512                 1.4499
 Frc consts  --      0.7778                 0.5596                 0.7145
 IR Inten    --     70.2647                 0.4930                28.2549

                     25                     26                     27
                      A                      A                      A
 Frequencies --    940.4705               989.4556              1001.0105
 Red. masses --      1.4632                 1.1094                 1.1880
 Frc consts  --      0.7625                 0.6399                 0.7014
 IR Inten    --     14.5309                83.3446                33.5276

                     28                     29                     30
                      A                      A                      A
 Frequencies --   1006.6935              1018.4781              1020.7336
 Red. masses --      1.3468                 1.2862                 4.0608
 Frc consts  --      0.8041                 0.7861                 2.4928
 IR Inten    --     16.2619                 0.0935                10.3088

                     31                     32                     33
                      A                      A                      A
 Frequencies --   1028.0193              1053.9010              1063.9295
 Red. masses --      1.8490                 1.9690                 2.3026
 Frc consts  --      1.1513                 1.2885                 1.5356
 IR Inten    --      5.3173                44.5153                17.2398

                     34                     35                     36
                      A                      A                      A
 Frequencies --   1094.2935              1115.2333              1157.5173
 Red. masses --      1.7538                 1.5848                 1.9267
 Frc consts  --      1.2373                 1.1614                 1.5209
 IR Inten    --     43.9921                 1.7019                14.1229

                     37                     38                     39
                      A                      A                      A
 Frequencies --   1170.7124              1181.9971              1206.8021
 Red. masses --      1.4552                 1.1213                 1.3757
 Frc consts  --      1.1751                 0.9230                 1.1804
 IR Inten    --    146.5479                 2.9423                27.8445

                     40                     41                     42
                      A                      A                      A
 Frequencies --   1216.5688              1300.1143              1342.3900
 Red. masses --      1.1365                 2.9862                 2.7267
 Frc consts  --      0.9911                 2.9740                 2.8950
 IR Inten    --      3.9605               184.6447               166.1775

                     43                     44                     45
                      A                      A                      A
 Frequencies --   1345.6031              1370.3321              1413.3808
 Red. masses --      1.3798                 1.3720                 3.1359
 Frc consts  --      1.4720                 1.5180                 3.6909
 IR Inten    --     20.9977                44.5992                99.2578

                     46                     47                     48
                      A                      A                      A
 Frequencies --   1459.4592              1465.7129              1488.1342
 Red. masses --      1.2086                 1.2767                 1.9972
 Frc consts  --      1.5168                 1.6160                 2.6058
 IR Inten    --      4.2198                 7.5076                14.6694

                     49                     50                     51
                      A                      A                      A
 Frequencies --   1491.3260              1502.5126              1535.3101
 Red. masses --      1.0402                 1.0346                 2.0220
 Frc consts  --      1.3631                 1.3762                 2.8082
 IR Inten    --     21.5965                14.7977                74.8175

                     52                     53                     54
                      A                      A                      A
 Frequencies --   1553.6234              1640.1779              1652.3502
 Red. masses --      2.4419                 5.3229                 1.1008
 Frc consts  --      3.4728                 8.4369                 1.7707
 IR Inten    --    153.3214                 4.1213                69.8366

                     55                     56                     57
                      A                      A                      A
 Frequencies --   1664.5769              1683.9276              2885.7769
 Red. masses --      6.1173                 7.1453                 1.0806
 Frc consts  --      9.9865                11.9375                 5.3018
 IR Inten    --    413.4296               707.8271               198.3290

                     58                     59                     60
                      A                      A                      A
 Frequencies --   3062.8226              3139.7601              3154.1005
 Red. masses --      1.0332                 1.1049                 1.1048
 Frc consts  --      5.7104                 6.4178                 6.4756
 IR Inten    --     29.6890                17.2218                18.9870

                     61                     62                     63
                      A                      A                      A
 Frequencies --   3164.1413              3188.9710              3196.1937
 Red. masses --      1.0599                 1.0856                 1.0894
 Frc consts  --      6.2524                 6.5043                 6.5571
 IR Inten    --     28.5394                 6.0446                13.7742

                     64                     65                     66
                      A                      A                      A
 Frequencies --   3210.2382              3219.1653              3243.3174
 Red. masses --      1.0925                 1.0967                 1.0924
 Frc consts  --      6.6333                 6.6962                 6.7705
 IR Inten    --     52.2598                22.9325                 5.0822

                     67                     68                     69
                      A                      A                      A
 Frequencies --   3248.8240              3542.2098              3623.0104
 Red. masses --      1.1167                 1.0503                 1.0958
 Frc consts  --      6.9442                 7.7648                 8.4749
 IR Inten    --      4.7254                38.1801                36.8933

 - Thermochemistry -
 -------------------
 Temperature   298.150 Kelvin.  Pressure   1.00000 Atm.
 Atom     1 has atomic number  6 and mass  12.00000

 Molecular mass:   163.09971 amu.
 Principal axes and moments of inertia in atomic units:
                           1         2         3
     Eigenvalues --  1364.729132689.497383586.57726
           X            0.99963  -0.02712  -0.00096
           Y            0.02713   0.99960   0.00828
           Z            0.00074  -0.00830   0.99997
 This molecule is an asymmetric top.
 Rotational symmetry number  1.
 Warning -- assumption of classical behavior for rotation
           may cause significant error
 Rotational temperatures (Kelvin)      0.06347     0.03220     0.02415
 Rotational constants (GHZ):           1.32242     0.67103     0.50319
    1 imaginary frequencies ignored.
 Zero-point vibrational energy     557320.6 (Joules/Mol)
                                  133.20283 (Kcal/Mol)
 Warning -- explicit consideration of  16 degrees of freedom as
           vibrations may cause significant error
 Vibrational temperatures:     64.14    71.42   132.48   153.46   214.35
          (Kelvin)            231.38   311.77   355.08   443.28   504.01
                              551.59   611.28   674.62   740.66   849.63
                              875.65   919.28  1019.18  1041.01  1086.61
                             1145.20  1253.53  1315.79  1353.13  1423.61
                             1440.23  1448.41  1465.36  1468.61  1479.09
                             1516.33  1530.76  1574.44  1604.57  1665.41
                             1684.39  1700.63  1736.32  1750.37  1870.57
                             1931.40  1936.02  1971.60  2033.54  2099.84
                             2108.83  2141.09  2145.69  2161.78  2208.97
                             2235.32  2359.85  2377.36  2394.95  2422.80
                             4151.99  4406.72  4517.41  4538.05  4552.49
                             4588.22  4598.61  4618.82  4631.66  4666.41
                             4674.33  5096.45  5212.70

 Zero-point correction=                           0.212272 (Hartree/Particle)
 Thermal correction to Energy=                    0.223900
 Thermal correction to Enthalpy=                  0.224845
 Thermal correction to Gibbs Free Energy=         0.173677
 Sum of electronic and zero-point Energies=           -518.633991
 Sum of electronic and thermal Energies=              -518.622363
 Sum of electronic and thermal Enthalpies=            -518.621419
 Sum of electronic and thermal Free Energies=         -518.672587

                     E (Thermal)             CV                S
                      KCal/Mol        Cal/Mol-Kelvin    Cal/Mol-Kelvin
 Total                  140.500             43.127            107.692
 Electronic               0.000              0.000              0.000
 Translational            0.889              2.981             41.176
 Rotational               0.889              2.981             30.955
 Vibrational            138.722             37.165             35.561
 Vibration     1          0.595              1.980              5.044
 Vibration     2          0.595              1.978              4.832
 Vibration     3          0.602              1.955              3.615
 Vibration     4          0.606              1.944              3.329
 Vibration     5          0.618              1.904              2.685
 Vibration     6          0.622              1.890              2.540
 Vibration     7          0.646              1.816              1.987
 Vibration     8          0.661              1.768              1.753
 Vibration     9          0.698              1.658              1.373
 Vibration    10          0.727              1.575              1.165
 Vibration    11          0.753              1.506              1.026
 Vibration    12          0.787              1.416              0.876
 Vibration    13          0.826              1.319              0.741
 Vibration    14          0.870              1.217              0.622
 Vibration    15          0.948              1.052              0.466
 Vibration    16          0.967              1.014              0.435

 Optimization completed on the basis of negligible forces.
    -- Stationary point found.
 Normal termination of Gaussian 16 at Wed Feb 10 07:40:26 2021.
