 Gaussian 16, Revision A.03,
 Gaussian 16:  ES64L-G16RevA.03 25-Dec-2016

 ----------------------------------------------------------------------
 # wB97XD def2tzvp, opt=(ts, noeigen, calcfc, maxcycles=70, maxstep=8),
  freq=noraman, scrf=(iefpcm, solvent=water)
 ----------------------------------------------------------------------

 ------------------------
 1_iteration/TS-294-1.out
 ------------------------
 Symbolic Z-matrix:
 Charge =  0 Multiplicity = 1

 SCF Done:  E(RwB97XD) =  -461.099031352     A.U. after   15 cycles
 SCF Done:  E(RwB97XD) =  -461.099179956     A.U. after   12 cycles
 SCF Done:  E(RwB97XD) =  -461.099187256     A.U. after   10 cycles
 SCF Done:  E(RwB97XD) =  -461.099187925     A.U. after    9 cycles
 SCF Done:  E(RwB97XD) =  -461.099187954     A.U. after    7 cycles
 Optimization completed.
    -- Stationary point found.
 Normal termination of Gaussian 16 at Thu Feb 11 01:36:02 2021.

 ---------------------------------------------------------------------
 #N Geom=AllCheck Guess=TCheck SCRF=Check GenChk RwB97XD/def2TZVP Freq
 ---------------------------------------------------------------------

 Structure from the checkpoint file:  "/beegfs/scratch/user/q/tla25/Gau-93805.chk"
 ------------------------
 1_iteration/TS-294-1.out
 ------------------------
 Charge =  0 Multiplicity = 1

                         Standard orientation:
 ---------------------------------------------------------------------
 Center     Atomic      Atomic             Coordinates (Angstroms)
 Number     Number       Type             X           Y           Z
 ---------------------------------------------------------------------
      1          6           0        0.039143    0.950209   -0.284996
      2          6           0        0.866473   -0.107446    0.217405
      3          8           0        0.401224   -1.099554    0.826523
      4          6           0       -1.321609    1.038372    0.040339
      5          6           0       -3.585534   -0.784336   -0.654001
      6          1           0       -3.874782   -1.641079   -1.265712
      7          1           0       -3.805321   -1.010971    0.387175
      8          1           0       -4.174471    0.081063   -0.956370
      9          7           0       -2.165727   -0.472277   -0.791264
     10          1           0       -1.563626   -1.184984   -0.386523
     11          1           0       -1.897272   -0.350534   -1.759333
     12          1           0       -1.856621    1.806840   -0.511762
     13          6           0       -1.846519    0.873973    1.443468
     14          1           0       -1.544682    1.750770    2.020368
     15          1           0       -2.935326    0.828520    1.465957
     16          1           0       -1.431044   -0.010531    1.919960
     17          1           0        0.383537    1.522557   -1.135120
     18          7           0        2.223212   -0.038301   -0.011665
     19          6           0        2.837259    1.076271   -0.693570
     20          6           0        3.051103   -1.211521    0.143702
     21          1           0        2.393821    2.016805   -0.370609
     22          1           0        3.899085    1.099414   -0.445066
     23          1           0        2.747521    1.005170   -1.784919
     24          1           0        2.477922   -1.989010    0.638838
     25          1           0        3.393142   -1.585211   -0.828814
     26          1           0        3.934038   -0.981476    0.746152
 ---------------------------------------------------------------------

 SCF Done:  E(RwB97XD) =  -461.099187954     A.U. after    1 cycles

 The electronic state is 1-A.
 Alpha  occ. eigenvalues --  -19.18228 -14.46724 -14.43940 -10.35716 -10.32677
 Alpha  occ. eigenvalues --  -10.31245 -10.30072 -10.29578 -10.26791 -10.23053
 Alpha  occ. eigenvalues --   -1.10662  -1.02393  -1.01350  -0.88365  -0.81689
 Alpha  occ. eigenvalues --   -0.79531  -0.78396  -0.75508  -0.67606  -0.62214
 Alpha  occ. eigenvalues --   -0.60717  -0.56828  -0.56069  -0.55253  -0.54558
 Alpha  occ. eigenvalues --   -0.53452  -0.52404  -0.48483  -0.48119  -0.47766
 Alpha  occ. eigenvalues --   -0.47167  -0.47025  -0.45689  -0.44609  -0.43756
 Alpha  occ. eigenvalues --   -0.43144  -0.40058  -0.32199  -0.30593  -0.25725
 Alpha virt. eigenvalues --    0.07508   0.10329   0.12363   0.14048   0.14857
 Alpha virt. eigenvalues --    0.15620   0.16480   0.17190   0.17800   0.18853
 Alpha virt. eigenvalues --    0.19054   0.19399   0.20171   0.20705   0.20866

 Mulliken charges:
               1
     1  C   -0.545175
     2  C    0.359403
     3  O   -0.621548
     4  C    0.070633
     5  C   -0.289589
     6  H    0.146835
     7  H    0.153569
     8  H    0.149367
     9  N   -0.323426
    10  H    0.265046
    11  H    0.268055
    12  H    0.132310
    13  C   -0.395884
    14  H    0.128433
    15  H    0.129530
    16  H    0.143341
    17  H    0.137601
    18  N   -0.121263
    19  C   -0.297936
    20  C   -0.275849
    21  H    0.140232
    22  H    0.136138
    23  H    0.127832
    24  H    0.139226
    25  H    0.117169
    26  H    0.125948
 Sum of Mulliken charges =   0.00000

 Dipole moment (field-independent basis, Debye):
    X=             -3.9855    Y=              0.8039    Z=             -4.2085  Tot=              5.8517
 Quadrupole moment (field-independent basis, Debye-Ang):
   XX=            -43.2870   YY=            -65.3646   ZZ=            -62.5881
   XY=              2.7373   XZ=              2.1638   YZ=              2.5728

  Exact polarizability: 201.277   3.453 137.877   1.528  -1.707 125.681
 Approx polarizability: 140.099   3.423 114.964   0.814  -3.488 105.113

 ******    1 imaginary frequencies (negative Signs) ******

                      1                      2                      3
                      A                      A                      A
 Frequencies --   -391.7658                39.9141                56.1895
 Red. masses --      5.9315                 3.2080                 2.9272
 Frc consts  --      0.5364                 0.0030                 0.0054
 IR Inten    --    943.3815                15.1333                 7.4563

                      4                      5                      6
                      A                      A                      A
 Frequencies --     92.4993               108.2576               124.3093
 Red. masses --      1.9984                 1.5986                 2.1242
 Frc consts  --      0.0101                 0.0110                 0.0193
 IR Inten    --      1.0796                 5.7038                24.6651

                      7                      8                      9
                      A                      A                      A
 Frequencies --    165.3021               175.1096               200.5311
 Red. masses --      1.4449                 1.0824                 2.1087
 Frc consts  --      0.0233                 0.0196                 0.0500
 IR Inten    --      4.7646                 3.8302                23.8924

                     10                     11                     12
                      A                      A                      A
 Frequencies --    206.1147               213.4367               262.6694
 Red. masses --      2.2473                 2.2333                 1.9117
 Frc consts  --      0.0563                 0.0599                 0.0777
 IR Inten    --      4.0915                 4.0608                30.8337

                     13                     14                     15
                      A                      A                      A
 Frequencies --    285.7400               369.2079               394.3096
 Red. masses --      1.7946                 2.6693                 2.7325
 Frc consts  --      0.0863                 0.2144                 0.2503
 IR Inten    --      9.0823                19.5423                 2.8817

                     16                     17                     18
                      A                      A                      A
 Frequencies --    441.4330               454.2873               552.7982
 Red. masses --      3.1385                 2.8938                 3.9980
 Frc consts  --      0.3603                 0.3519                 0.7198
 IR Inten    --     29.5414                47.9823                14.6267

                     19                     20                     21
                      A                      A                      A
 Frequencies --    629.6316               654.6356               687.1431
 Red. masses --      1.5468                 1.7693                 1.4257
 Frc consts  --      0.3613                 0.4467                 0.3966
 IR Inten    --     71.5074                61.9909                43.7972

                     22                     23                     24
                      A                      A                      A
 Frequencies --    786.3922               871.9385               908.5924
 Red. masses --      9.7752                 3.5764                 2.3354
 Frc consts  --      3.5617                 1.6020                 1.1359
 IR Inten    --    120.7341                 6.6008                67.4428

                     25                     26                     27
                      A                      A                      A
 Frequencies --    996.2129              1011.0287              1039.2963
 Red. masses --      1.5145                 1.3474                 1.2105
 Frc consts  --      0.8856                 0.8115                 0.7703
 IR Inten    --     30.7546                17.7803               122.6020

                     28                     29                     30
                      A                      A                      A
 Frequencies --   1053.5319              1080.6326              1082.1629
 Red. masses --      1.5771                 2.2911                 1.4140
 Frc consts  --      1.0313                 1.5764                 0.9756
 IR Inten    --    128.0716               217.9094                10.8297

                     31                     32                     33
                      A                      A                      A
 Frequencies --   1116.0010              1132.0743              1161.8905
 Red. masses --      1.7151                 1.2342                 1.6868
 Frc consts  --      1.2586                 0.9320                 1.3417
 IR Inten    --     78.8158                 5.5576               186.1762

                     34                     35                     36
                      A                      A                      A
 Frequencies --   1172.0897              1187.3403              1208.7589
 Red. masses --      1.2730                 1.6146                 1.4006
 Frc consts  --      1.0304                 1.3412                 1.2057
 IR Inten    --     17.7033                43.6485                43.3300

                     37                     38                     39
                      A                      A                      A
 Frequencies --   1245.1345              1312.1912              1344.6538
 Red. masses --      1.3424                 5.8286                 1.3093
 Frc consts  --      1.2262                 5.9130                 1.3948
 IR Inten    --    190.7190                10.5247                 8.5384

                     40                     41                     42
                      A                      A                      A
 Frequencies --   1385.8666              1399.0043              1421.0001
 Red. masses --      1.4845                 1.8164                 1.1872
 Frc consts  --      1.6798                 2.0946                 1.4124
 IR Inten    --    103.4885               129.7827                31.0402

                     43                     44                     45
                      A                      A                      A
 Frequencies --   1448.6481              1454.5558              1468.2745
 Red. masses --      1.5495                 1.3374                 1.3295
 Frc consts  --      1.9159                 1.6671                 1.6887
 IR Inten    --     83.1399               208.3297                45.4673

                     46                     47                     48
                      A                      A                      A
 Frequencies --   1477.4968              1489.4671              1492.1884
 Red. masses --      1.3089                 1.0584                 1.0571
 Frc consts  --      1.6835                 1.3834                 1.3868
 IR Inten    --    312.7265                45.1856                15.2752

                     49                     50                     51
                      A                      A                      A
 Frequencies --   1493.6677              1495.0279              1500.4762
 Red. masses --      1.0808                 1.0521                 1.0807
 Frc consts  --      1.4208                 1.3855                 1.4335
 IR Inten    --     47.8289                18.6609                36.6285

                     52                     53                     54
                      A                      A                      A
 Frequencies --   1508.0778              1517.1694              1533.0700
 Red. masses --      1.1363                 1.2455                 1.3907
 Frc consts  --      1.5226                 1.6892                 1.9258
 IR Inten    --     36.3322               114.3791               292.1487

                     55                     56                     57
                      A                      A                      A
 Frequencies --   1596.1857              1651.6564              3006.0704
 Red. masses --      6.0075                 1.0895                 1.0498
 Frc consts  --      9.0180                 1.7511                 5.5891
 IR Inten    --    585.6378                44.2742                80.3977

                     58                     59                     60
                      A                      A                      A
 Frequencies --   3011.9070              3059.1145              3064.2633
 Red. masses --      1.0492                 1.0363                 1.0389
 Frc consts  --      5.6080                 5.7140                 5.7474
 IR Inten    --    177.0058                67.8319                35.1772

                     61                     62                     63
                      A                      A                      A
 Frequencies --   3071.4365              3096.3355              3128.6650
 Red. masses --      1.0950                 1.0846                 1.0992
 Frc consts  --      6.0860                 6.1266                 6.3396
 IR Inten    --     82.1723                49.2069                41.0161

                     64                     65                     66
                      A                      A                      A
 Frequencies --   3133.1161              3143.0477              3144.8643
 Red. masses --      1.1020                 1.0962                 1.0953
 Frc consts  --      6.3735                 6.3802                 6.3825
 IR Inten    --     27.9467                38.1587                 6.2859

                     67                     68                     69
                      A                      A                      A
 Frequencies --   3163.4939              3175.7823              3181.8530
 Red. masses --      1.1042                 1.1012                 1.0953
 Frc consts  --      6.5106                 6.5439                 6.5332
 IR Inten    --     24.3995                14.6718                 5.4690

                     70                     71                     72
                      A                      A                      A
 Frequencies --   3208.3804              3484.4453              3598.6548
 Red. masses --      1.0889                 1.0581                 1.0907
 Frc consts  --      6.6042                 7.5690                 8.3222
 IR Inten    --     19.6410                46.7643                48.4583

 - Thermochemistry -
 -------------------
 Temperature   298.150 Kelvin.  Pressure   1.00000 Atm.
 Atom     1 has atomic number  6 and mass  12.00000

 Molecular mass:   144.12626 amu.
 Principal axes and moments of inertia in atomic units:
                           1         2         3
     Eigenvalues --   725.069572796.834162950.11874
           X            0.99997   0.00385  -0.00638
           Y           -0.00371   0.99973   0.02314
           Z            0.00646  -0.02311   0.99971
 This molecule is an asymmetric top.
 Rotational symmetry number  1.
 Warning -- assumption of classical behavior for rotation
           may cause significant error
 Rotational temperatures (Kelvin)      0.11946     0.03097     0.02936
 Rotational constants (GHZ):           2.48906     0.64528     0.61175
    1 imaginary frequencies ignored.
 Zero-point vibrational energy     609059.0 (Joules/Mol)
                                  145.56858 (Kcal/Mol)
 Warning -- explicit consideration of  17 degrees of freedom as
           vibrations may cause significant error
 Vibrational temperatures:     57.43    80.84   133.09   155.76   178.85
          (Kelvin)            237.83   251.94   288.52   296.55   307.09
                              377.92   411.12   531.21   567.32   635.12
                              653.62   795.35   905.90   941.87   988.65
                             1131.44  1254.52  1307.26  1433.33  1454.64
                             1495.32  1515.80  1554.79  1556.99  1605.68
                             1628.80  1671.70  1686.38  1708.32  1739.13
                             1791.47  1887.95  1934.66  1993.95  2012.86
                             2044.50  2084.28  2092.78  2112.52  2125.79
                             2143.01  2146.93  2149.05  2151.01  2158.85
                             2169.79  2182.87  2205.75  2296.56  2376.37
                             4325.06  4333.46  4401.38  4408.79  4419.11
                             4454.94  4501.45  4507.86  4522.14  4524.76
                             4551.56  4569.24  4577.98  4616.14  5013.34
                             5177.66

 Zero-point correction=                           0.231978 (Hartree/Particle)
 Thermal correction to Energy=                    0.244816
 Thermal correction to Enthalpy=                  0.245760
 Thermal correction to Gibbs Free Energy=         0.192606
 Sum of electronic and zero-point Energies=           -460.867210
 Sum of electronic and thermal Energies=              -460.854372
 Sum of electronic and thermal Enthalpies=            -460.853428
 Sum of electronic and thermal Free Energies=         -460.906581

                     E (Thermal)             CV                S
                      KCal/Mol        Cal/Mol-Kelvin    Cal/Mol-Kelvin
 Total                  153.624             44.941            111.870
 Electronic               0.000              0.000              0.000
 Translational            0.889              2.981             40.808
 Rotational               0.889              2.981             30.171
 Vibrational            151.847             38.979             40.892
 Vibration     1          0.594              1.981              5.263
 Vibration     2          0.596              1.975              4.587
 Vibration     3          0.602              1.955              3.607
 Vibration     4          0.606              1.943              3.300
 Vibration     5          0.610              1.929              3.032
 Vibration     6          0.624              1.885              2.488
 Vibration     7          0.627              1.873              2.380
 Vibration     8          0.638              1.839              2.128
 Vibration     9          0.641              1.831              2.078
 Vibration    10          0.644              1.820              2.014
 Vibration    11          0.670              1.741              1.644
 Vibration    12          0.684              1.700              1.499
 Vibration    13          0.742              1.536              1.083
 Vibration    14          0.761              1.482              0.984
 Vibration    15          0.801              1.380              0.822
 Vibration    16          0.813              1.351              0.783
 Vibration    17          0.908              1.134              0.538

 Optimization completed.
    -- Stationary point found.
 Normal termination of Gaussian 16 at Thu Feb 11 01:56:48 2021.
