 Gaussian 16, Revision A.03,
 Gaussian 16:  ES64L-G16RevA.03 25-Dec-2016

 ----------------------------------------------------------------------
 # wB97XD def2tzvp, opt=(ts, noeigen, calcfc, maxcycles=70, maxstep=1),
  freq=noraman, scrf=(iefpcm, solvent=water)
 ----------------------------------------------------------------------

 ------------------------
 0_iteration/TS-277-0.out
 ------------------------
 Symbolic Z-matrix:
 Charge =  0 Multiplicity = 1

 SCF Done:  E(RwB97XD) =  -842.093852804     A.U. after   15 cycles
 SCF Done:  E(RwB97XD) =  -842.093845806     A.U. after   10 cycles
 SCF Done:  E(RwB97XD) =  -842.093842775     A.U. after   10 cycles
 SCF Done:  E(RwB97XD) =  -842.093843177     A.U. after   10 cycles
 SCF Done:  E(RwB97XD) =  -842.093845420     A.U. after    9 cycles
 SCF Done:  E(RwB97XD) =  -842.093851504     A.U. after    9 cycles
 SCF Done:  E(RwB97XD) =  -842.093861916     A.U. after    9 cycles
 SCF Done:  E(RwB97XD) =  -842.093877281     A.U. after    9 cycles
 SCF Done:  E(RwB97XD) =  -842.093897844     A.U. after    9 cycles
 SCF Done:  E(RwB97XD) =  -842.093922872     A.U. after    9 cycles
 SCF Done:  E(RwB97XD) =  -842.094343053     A.U. after    9 cycles
 SCF Done:  E(RwB97XD) =  -842.094373156     A.U. after    9 cycles
 SCF Done:  E(RwB97XD) =  -842.094397795     A.U. after    9 cycles
 SCF Done:  E(RwB97XD) =  -842.094416777     A.U. after    9 cycles
 SCF Done:  E(RwB97XD) =  -842.094430405     A.U. after    9 cycles
 SCF Done:  E(RwB97XD) =  -842.094439163     A.U. after    9 cycles
 SCF Done:  E(RwB97XD) =  -842.094443665     A.U. after    9 cycles
 SCF Done:  E(RwB97XD) =  -842.094444702     A.U. after    9 cycles
 SCF Done:  E(RwB97XD) =  -842.094444750     A.U. after    8 cycles
 Optimization completed.
    -- Stationary point found.
 Normal termination of Gaussian 16 at Tue Feb  9 16:07:36 2021.

 ---------------------------------------------------------------------
 #N Geom=AllCheck Guess=TCheck SCRF=Check GenChk RwB97XD/def2TZVP Freq
 ---------------------------------------------------------------------

 Structure from the checkpoint file:  "/beegfs/scratch/user/q/tla25/Gau-10173.chk"
 ------------------------
 0_iteration/TS-277-0.out
 ------------------------
 Charge =  0 Multiplicity = 1

                         Standard orientation:
 ---------------------------------------------------------------------
 Center     Atomic      Atomic             Coordinates (Angstroms)
 Number     Number       Type             X           Y           Z
 ---------------------------------------------------------------------
      1          6           0        0.173694    0.316055   -0.599303
      2          6           0       -0.998164   -0.454225   -0.276869
      3          8           0       -1.052861   -1.674205   -0.518898
      4          6           0        1.296520   -0.268113   -1.167114
      5          6           0        2.536216   -0.423670    1.308575
      6          1           0        3.032094   -1.024302    2.070488
      7          1           0        3.116758    0.477036    1.119315
      8          1           0        1.546428   -0.137402    1.662525
      9          7           0        2.379636   -1.162980    0.059217
     10          1           0        3.272210   -1.371284   -0.373845
     11          1           0        1.895649   -2.039515    0.215566
     12          1           0        2.063062    0.389454   -1.558725
     13          1           0        1.112174   -1.148312   -1.770598
     14         17           0        0.277926    2.003300   -0.066426
     15          7           0       -2.053011    0.175533    0.306505
     16          6           0       -3.295728   -0.507046    0.569812
     17          1           0       -2.021514    1.173927    0.401516
     18          1           0       -3.126471   -1.400029    1.172733
     19          1           0       -3.951408    0.164391    1.120998
     20          1           0       -3.802453   -0.812290   -0.350207
 ---------------------------------------------------------------------

 SCF Done:  E(RwB97XD) =  -842.094444750     A.U. after    1 cycles

 The electronic state is 1-A.
 Alpha  occ. eigenvalues -- -101.68349 -19.19174 -14.48594 -14.43912 -10.36974
 Alpha  occ. eigenvalues --  -10.32679 -10.31597 -10.30410 -10.29451  -9.56878
 Alpha  occ. eigenvalues --   -7.31476  -7.30704  -7.30654  -1.11788  -1.03944
 Alpha  occ. eigenvalues --   -1.00713  -0.94990  -0.84346  -0.80466  -0.78687
 Alpha  occ. eigenvalues --   -0.70875  -0.65428  -0.63247  -0.58988  -0.57297
 Alpha  occ. eigenvalues --   -0.55408  -0.53940  -0.52675  -0.51270  -0.49599
 Alpha  occ. eigenvalues --   -0.48023  -0.46866  -0.46761  -0.45651  -0.43211
 Alpha  occ. eigenvalues --   -0.41333  -0.39622  -0.33416  -0.32747  -0.25917
 Alpha virt. eigenvalues --    0.07526   0.10468   0.11784   0.13103   0.14737
 Alpha virt. eigenvalues --    0.15507   0.16170   0.16876   0.17956   0.18697
 Alpha virt. eigenvalues --    0.20021   0.20741   0.21235   0.22036   0.23158

 Mulliken charges:
               1
     1  C   -0.198265
     2  C    0.346914
     3  O   -0.581715
     4  C   -0.184473
     5  C   -0.295505
     6  H    0.154250
     7  H    0.154447
     8  H    0.155043
     9  N   -0.293933
    10  H    0.284061
    11  H    0.282636
    12  H    0.171280
    13  H    0.165674
    14  Cl  -0.207308
    15  N   -0.335616
    16  C   -0.243611
    17  H    0.242791
    18  H    0.124892
    19  H    0.137521
    20  H    0.120917
 Sum of Mulliken charges =  -0.00000

 Dipole moment (field-independent basis, Debye):
    X=              6.2914    Y=             -0.8044    Z=              2.1077  Tot=              6.6837
 Quadrupole moment (field-independent basis, Debye-Ang):
   XX=            -38.8465   YY=            -67.6299   ZZ=            -61.3635
   XY=            -13.8137   XZ=             -3.2923   YZ=             -1.3533

  Exact polarizability: 162.207  -7.316 130.722  -4.331   4.861 102.912
 Approx polarizability: 118.928  -5.089 112.990  -3.909   5.169  89.020

 ******    1 imaginary frequencies (negative Signs) ******

                      1                      2                      3
                      A                      A                      A
 Frequencies --   -361.0817                39.9836                58.8523
 Red. masses --      6.0506                 3.0945                 1.9866
 Frc consts  --      0.4648                 0.0029                 0.0041
 IR Inten    --    938.1123                 3.0438                22.4740

                      4                      5                      6
                      A                      A                      A
 Frequencies --     71.1326                80.0758               130.9898
 Red. masses --      3.4942                 1.5972                 2.4340
 Frc consts  --      0.0104                 0.0060                 0.0246
 IR Inten    --     48.3947                 7.2478                 0.5872

                      7                      8                      9
                      A                      A                      A
 Frequencies --    137.7496               190.9252               212.3110
 Red. masses --      4.0954                 3.5672                 1.2424
 Frc consts  --      0.0458                 0.0766                 0.0330
 IR Inten    --     37.1084                 5.2975                 0.3663

                     10                     11                     12
                      A                      A                      A
 Frequencies --    254.4761               302.6380               363.4715
 Red. masses --      3.4697                 3.7315                 2.2605
 Frc consts  --      0.1324                 0.2014                 0.1759
 IR Inten    --      4.5693                38.3206                 7.1732

                     13                     14                     15
                      A                      A                      A
 Frequencies --    398.0153               431.4564               451.9029
 Red. masses --      1.2836                 3.1350                12.0660
 Frc consts  --      0.1198                 0.3438                 1.4518
 IR Inten    --     84.3351                90.2448                14.3504

                     16                     17                     18
                      A                      A                      A
 Frequencies --    557.0518               708.7818               732.9240
 Red. masses --      2.5175                 1.6400                 3.5049
 Frc consts  --      0.4603                 0.4854                 1.1093
 IR Inten    --     20.1311                44.2835                26.8548

                     19                     20                     21
                      A                      A                      A
 Frequencies --    777.0720               884.2603              1002.4342
 Red. masses --      8.5924                 2.1310                 1.3908
 Frc consts  --      3.0569                 0.9817                 0.8234
 IR Inten    --     29.1949                 2.6853                19.5557

                     22                     23                     24
                      A                      A                      A
 Frequencies --   1016.2965              1054.4004              1076.8155
 Red. masses --      1.2216                 2.0682                 2.1339
 Frc consts  --      0.7434                 1.3547                 1.4578
 IR Inten    --    110.5567                38.0008                62.6981

                     25                     26                     27
                      A                      A                      A
 Frequencies --   1137.3699              1156.7120              1182.3008
 Red. masses --      2.3464                 1.2942                 1.6912
 Frc consts  --      1.7884                 1.0202                 1.3929
 IR Inten    --     25.2974                 7.4452                55.1317

                     28                     29                     30
                      A                      A                      A
 Frequencies --   1207.2439              1231.6106              1241.2123
 Red. masses --      1.3911                 1.3607                 1.2567
 Frc consts  --      1.1945                 1.2161                 1.1407
 IR Inten    --    189.4977                48.1327                84.6903

                     31                     32                     33
                      A                      A                      A
 Frequencies --   1296.7925              1350.1029              1371.1193
 Red. masses --      2.0125                 1.3101                 2.0097
 Frc consts  --      1.9940                 1.4070                 2.2260
 IR Inten    --     17.0636                 3.4791               454.6006

                     34                     35                     36
                      A                      A                      A
 Frequencies --   1455.8666              1457.5950              1476.7416
 Red. masses --      1.2252                 1.1905                 1.0591
 Frc consts  --      1.5301                 1.4903                 1.3609
 IR Inten    --     20.5233                21.0401                27.1421

                     37                     38                     39
                      A                      A                      A
 Frequencies --   1486.8669              1491.6964              1504.9391
 Red. masses --      1.8856                 1.0424                 1.0363
 Frc consts  --      2.4561                 1.3667                 1.3829
 IR Inten    --    183.7502                14.9987                11.9128

                     40                     41                     42
                      A                      A                      A
 Frequencies --   1508.5790              1561.8394              1630.1674
 Red. masses --      1.0979                 2.0734                 5.8453
 Frc consts  --      1.4721                 2.9799                 9.1521
 IR Inten    --     30.4456               778.0183               465.2796

                     43                     44                     45
                      A                      A                      A
 Frequencies --   1647.8286              3039.2353              3071.7109
 Red. masses --      1.1036                 1.0419                 1.0327
 Frc consts  --      1.7656                 5.6703                 5.7407
 IR Inten    --     28.6609                97.4372                31.5080

                     46                     47                     48
                      A                      A                      A
 Frequencies --   3104.1856              3150.1683              3151.6905
 Red. masses --      1.0962                 1.0598                 1.1048
 Frc consts  --      6.2238                 6.1965                 6.4658
 IR Inten    --     46.3937                24.4352                14.2349

                     49                     50                     51
                      A                      A                      A
 Frequencies --   3154.5232              3167.8877              3236.3878
 Red. masses --      1.1020                 1.1058                 1.1164
 Frc consts  --      6.4610                 6.5385                 6.8899
 IR Inten    --     25.5872                14.6558                 2.3226

                     52                     53                     54
                      A                      A                      A
 Frequencies --   3523.1917              3605.7684              3682.0711
 Red. masses --      1.0506                 1.0966                 1.0776
 Frc consts  --      7.6837                 8.4006                 8.6077
 IR Inten    --     36.5844                48.7550                72.8592

 - Thermochemistry -
 -------------------
 Temperature   298.150 Kelvin.  Pressure   1.00000 Atm.
 Atom     1 has atomic number  6 and mass  12.00000

 Molecular mass:   150.05599 amu.
 Principal axes and moments of inertia in atomic units:
                           1         2         3
     Eigenvalues --  1055.366521976.357212540.01739
           X            0.99964  -0.02653  -0.00262
           Y            0.02651   0.99963  -0.00664
           Z            0.00280   0.00657   0.99997
 This molecule is an asymmetric top.
 Rotational symmetry number  1.
 Warning -- assumption of classical behavior for rotation
           may cause significant error
 Rotational temperatures (Kelvin)      0.08207     0.04383     0.03410
 Rotational constants (GHZ):           1.71006     0.91317     0.71052
    1 imaginary frequencies ignored.
 Zero-point vibrational energy     437937.4 (Joules/Mol)
                                  104.66956 (Kcal/Mol)
 Warning -- explicit consideration of  15 degrees of freedom as
           vibrations may cause significant error
 Vibrational temperatures:     57.53    84.68   102.34   115.21   188.47
          (Kelvin)            198.19   274.70   305.47   366.13   435.43
                              522.95   572.66   620.77   650.19   801.47
                             1019.78  1054.51  1118.03  1272.25  1442.28
                             1462.22  1517.05  1549.30  1636.42  1664.25
                             1701.07  1736.95  1772.01  1785.83  1865.80
                             1942.50  1972.73  2094.67  2097.15  2124.70
                             2139.27  2146.22  2165.27  2170.51  2247.14
                             2345.45  2370.86  4372.78  4419.51  4466.23
                             4532.39  4534.58  4538.66  4557.88  4656.44
                             5069.09  5187.90  5297.68

 Zero-point correction=                           0.166802 (Hartree/Particle)
 Thermal correction to Energy=                    0.178272
 Thermal correction to Enthalpy=                  0.179217
 Thermal correction to Gibbs Free Energy=         0.127993
 Sum of electronic and zero-point Energies=           -841.927643
 Sum of electronic and thermal Energies=              -841.916172
 Sum of electronic and thermal Enthalpies=            -841.915228
 Sum of electronic and thermal Free Energies=         -841.966452

                     E (Thermal)             CV                S
                      KCal/Mol        Cal/Mol-Kelvin    Cal/Mol-Kelvin
 Total                  111.868             38.203            107.810
 Electronic               0.000              0.000              0.000
 Translational            0.889              2.981             40.928
 Rotational               0.889              2.981             30.050
 Vibrational            110.090             32.241             36.832
 Vibration     1          0.594              1.981              5.260
 Vibration     2          0.596              1.974              4.495
 Vibration     3          0.598              1.968              4.122
 Vibration     4          0.600              1.963              3.889
 Vibration     5          0.612              1.922              2.931
 Vibration     6          0.614              1.916              2.835
 Vibration     7          0.634              1.852              2.219
 Vibration     8          0.643              1.822              2.024
 Vibration     9          0.665              1.755              1.699
 Vibration    10          0.694              1.669              1.402
 Vibration    11          0.737              1.547              1.107
 Vibration    12          0.764              1.474              0.970
 Vibration    13          0.792              1.402              0.854
 Vibration    14          0.811              1.357              0.790
 Vibration    15          0.913              1.124              0.530

 Optimization completed.
    -- Stationary point found.
 Normal termination of Gaussian 16 at Tue Feb  9 16:17:15 2021.
