 Gaussian 16, Revision A.03,
 Gaussian 16:  ES64L-G16RevA.03 25-Dec-2016

 ----------------------------------------------------------------------
 # wB97XD def2tzvp, opt=(ts, noeigen, calcfc, maxcycles=70, maxstep=5),
  freq=noraman, scrf=(iefpcm, solvent=water)
 ----------------------------------------------------------------------

 -----------------------
 2_iteration/TS-25-2.out
 -----------------------
 Symbolic Z-matrix:
 Charge =  0 Multiplicity = 1

 SCF Done:  E(RwB97XD) =  -3323.49927209     A.U. after   15 cycles
 SCF Done:  E(RwB97XD) =  -3323.49927197     A.U. after    9 cycles
 Optimization completed.
    -- Stationary point found.
 Normal termination of Gaussian 16 at Sun Jan 31 17:33:58 2021.

 ---------------------------------------------------------------------
 #N Geom=AllCheck Guess=TCheck SCRF=Check GenChk RwB97XD/def2TZVP Freq
 ---------------------------------------------------------------------

 Structure from the checkpoint file:  "/beegfs/scratch/user/q/tla25/Gau-2044.chk"
 -----------------------
 2_iteration/TS-25-2.out
 -----------------------
 Charge =  0 Multiplicity = 1

                         Standard orientation:
 ---------------------------------------------------------------------
 Center     Atomic      Atomic             Coordinates (Angstroms)
 Number     Number       Type             X           Y           Z
 ---------------------------------------------------------------------
      1          6           0       -0.564540   -1.224093   -0.195372
      2          6           0       -0.171131   -2.575502   -0.189292
      3          8           0       -0.826453   -3.563585   -0.532302
      4          6           0        0.231842   -0.166005    0.328264
      5          6           0       -0.936784   -1.057345    2.758238
      6          1           0       -0.767200   -1.309929    3.803726
      7          1           0       -1.832408   -0.448250    2.671143
      8          1           0       -1.080594   -1.971674    2.186725
      9          7           0        0.216341   -0.337351    2.216214
     10          1           0        0.322191    0.567155    2.663105
     11          1           0        1.064586   -0.862010    2.403251
     12          6           0       -0.279349    1.247288    0.102514
     13          6           0       -1.131911    1.923053    0.965898
     14          6           0       -1.584375    3.199437    0.662820
     15          6           0       -1.201698    3.816723   -0.516184
     16          6           0       -0.358273    3.146725   -1.390571
     17          6           0        0.102054    1.878463   -1.080274
     18          1           0       -1.482517    1.466464    1.879731
     19          1           0       -2.245357    3.705890    1.354298
     20          1           0       -1.557157    4.811220   -0.752954
     21          1           0       -0.051121    3.613883   -2.317493
     22          1           0        0.763306    1.370362   -1.770128
     23          6           0        1.735467   -0.221181    0.086921
     24          6           0        2.606550    0.526485    0.881101
     25          6           0        3.965171    0.556621    0.619893
     26          6           0        4.483936   -0.143255   -0.460179
     27          6           0        3.626445   -0.857436   -1.279570
     28          6           0        2.265058   -0.890562   -1.012269
     29          1           0        2.231700    1.118581    1.705690
     30          1           0        4.617886    1.138872    1.257316
     31          1           0        5.545780   -0.117848   -0.668148
     32          1           0        4.011472   -1.389136   -2.140190
     33          1           0        1.607398   -1.424574   -1.682586
     34         35           0       -2.389659   -0.903714   -0.678044
     35          1           0        0.856572   -2.725400    0.191334
 ---------------------------------------------------------------------

 SCF Done:  E(RwB97XD) =  -3323.49927197     A.U. after    1 cycles

 The electronic state is 1-A.
 Alpha  occ. eigenvalues -- -483.11753 -62.66573 -56.45677 -56.45346 -56.45337
 Alpha  occ. eigenvalues --  -19.20771 -14.50375 -10.38067 -10.34669 -10.32381
 Alpha  occ. eigenvalues --  -10.31731 -10.31587 -10.30581 -10.30151 -10.29958
 Alpha  occ. eigenvalues --  -10.29838 -10.29759 -10.29677 -10.29647 -10.29612
 Alpha  occ. eigenvalues --  -10.29558 -10.29507 -10.29396  -8.80675  -6.62779
 Alpha  occ. eigenvalues --   -6.61722  -6.61692  -2.73178  -2.72870  -2.72846
 Alpha  occ. eigenvalues --   -2.71990  -2.71990  -1.11002  -1.05866  -0.98921
 Alpha  occ. eigenvalues --   -0.97187  -0.93323  -0.88534  -0.86240  -0.85934
 Alpha  occ. eigenvalues --   -0.85653  -0.81992  -0.80063  -0.76184  -0.71700
 Alpha  occ. eigenvalues --   -0.71095  -0.70671  -0.68202  -0.65198  -0.63786
 Alpha  occ. eigenvalues --   -0.61627  -0.60119  -0.58358  -0.57844  -0.56707
 Alpha  occ. eigenvalues --   -0.55972  -0.54674  -0.53874  -0.52895  -0.52566
 Alpha  occ. eigenvalues --   -0.51604  -0.51426  -0.49980  -0.49091  -0.47738
 Alpha  occ. eigenvalues --   -0.47412  -0.46930  -0.46123  -0.45388  -0.44467
 Alpha  occ. eigenvalues --   -0.43273  -0.42791  -0.42413  -0.38887  -0.36828
 Alpha  occ. eigenvalues --   -0.35477  -0.34753  -0.34165  -0.32935  -0.32065
 Alpha  occ. eigenvalues --   -0.27749
 Alpha virt. eigenvalues --    0.01794   0.03384   0.04378   0.05054   0.06911
 Alpha virt. eigenvalues --    0.08448   0.10196   0.12817   0.13125   0.13751
 Alpha virt. eigenvalues --    0.13910   0.14336   0.15685   0.16565   0.17027

 Mulliken charges:
               1
     1  C   -0.152158
     2  C   -0.007419
     3  O   -0.502062
     4  C    0.447882
     5  C   -0.301379
     6  H    0.169366
     7  H    0.159636
     8  H    0.165873
     9  N   -0.337689
    10  H    0.296701
    11  H    0.294834
    12  C    0.079150
    13  C   -0.197062
    14  C   -0.168739
    15  C   -0.135107
    16  C   -0.138537
    17  C   -0.270488
    18  H    0.138266
    19  H    0.144620
    20  H    0.146493
    21  H    0.144778
    22  H    0.159082
    23  C    0.076433
    24  C   -0.267245
    25  C   -0.140771
    26  C   -0.139723
    27  C   -0.118719
    28  C   -0.279836
    29  H    0.156827
    30  H    0.147601
    31  H    0.148765
    32  H    0.147266
    33  H    0.187473
    34  Br  -0.161571
    35  H    0.107458
 Sum of Mulliken charges =  -0.00000

 Dipole moment (field-independent basis, Debye):
    X=              6.4969    Y=              8.0815    Z=              8.1023  Tot=             13.1593
 Quadrupole moment (field-independent basis, Debye-Ang):
   XX=           -118.7006   YY=           -144.8441   ZZ=           -102.3016
   XY=            -13.8011   XZ=             -6.5827   YZ=             -6.7727

  Exact polarizability: 320.575  -6.992 313.915 -11.245  23.777 278.145
 Approx polarizability: 252.438  -4.208 252.275  -9.757  20.555 241.234

 ******    1 imaginary frequencies (negative Signs) ******

                      1                      2                      3
                      A                      A                      A
 Frequencies --   -311.4047                29.1493                52.8839
 Red. masses --      5.3252                 3.5285                 5.2489
 Frc consts  --      0.3043                 0.0018                 0.0086
 IR Inten    --    592.1377                 2.8997                 1.1122

                      4                      5                      6
                      A                      A                      A
 Frequencies --     60.2812                62.1794                81.6365
 Red. masses --      5.3287                 6.5841                 5.6241
 Frc consts  --      0.0114                 0.0150                 0.0221
 IR Inten    --      0.9478                 2.2869                 0.9335

                      7                      8                      9
                      A                      A                      A
 Frequencies --    100.1876               123.3037               138.9072
 Red. masses --      6.6064                 1.5434                 2.1180
 Frc consts  --      0.0391                 0.0138                 0.0241
 IR Inten    --      8.8246                 0.8251                 8.3727

                     10                     11                     12
                      A                      A                      A
 Frequencies --    162.1980               187.5724               198.2822
 Red. masses --      3.2294                 7.6467                 6.4868
 Frc consts  --      0.0501                 0.1585                 0.1503
 IR Inten    --      6.3869                10.0697                 1.2330

                     13                     14                     15
                      A                      A                      A
 Frequencies --    228.4069               263.6666               282.2932
 Red. masses --      2.7576                 5.0256                 3.4437
 Frc consts  --      0.0848                 0.2058                 0.1617
 IR Inten    --      7.8531                 3.3059                 4.3861

                     16                     17                     18
                      A                      A                      A
 Frequencies --    309.6793               314.9971               328.2647
 Red. masses --      3.6502                 3.9625                 5.5474
 Frc consts  --      0.2062                 0.2317                 0.3522
 IR Inten    --      7.3438                 5.5755                14.2251

                     19                     20                     21
                      A                      A                      A
 Frequencies --    354.8754               417.9395               422.8711
 Red. masses --      4.4392                 2.8774                 3.2548
 Frc consts  --      0.3294                 0.2961                 0.3429
 IR Inten    --     22.1391                 0.2291                 4.3018

                     22                     23                     24
                      A                      A                      A
 Frequencies --    439.3511               496.4997               540.4215
 Red. masses --      3.0818                 3.7258                 3.6506
 Frc consts  --      0.3505                 0.5411                 0.6282
 IR Inten    --     12.2349                 7.2256                 1.6885

                     25                     26                     27
                      A                      A                      A
 Frequencies --    583.0599               617.2289               635.0694
 Red. masses --      6.3393                 2.6045                 5.3226
 Frc consts  --      1.2697                 0.5846                 1.2648
 IR Inten    --     76.2198                78.6536                11.4255

                     28                     29                     30
                      A                      A                      A
 Frequencies --    637.7229               658.9416               670.9263
 Red. masses --      6.2695                 6.3875                 3.7682
 Frc consts  --      1.5023                 1.6341                 0.9994
 IR Inten    --      1.4585                70.4169               149.0274

                     31                     32                     33
                      A                      A                      A
 Frequencies --    694.7262               724.8361               730.0242
 Red. masses --      2.3939                 1.5720                 1.6001
 Frc consts  --      0.6807                 0.4866                 0.5024
 IR Inten    --     52.7239                94.0602                91.3211

                     34                     35                     36
                      A                      A                      A
 Frequencies --    786.5885               789.8350               858.6423
 Red. masses --      2.4972                 2.1077                 4.4360
 Frc consts  --      0.9103                 0.7747                 1.9269
 IR Inten    --     62.3627                36.0031                15.0623

                     37                     38                     39
                      A                      A                      A
 Frequencies --    871.7500               879.2938               935.4538
 Red. masses --      1.2509                 1.2500                 3.0698
 Frc consts  --      0.5601                 0.5694                 1.5827
 IR Inten    --      0.5289                 0.3644                 6.3250

                     40                     41                     42
                      A                      A                      A
 Frequencies --    956.4971               973.3871              1011.5258
 Red. masses --      1.4823                 1.5494                 1.3819
 Frc consts  --      0.7990                 0.8650                 0.8331
 IR Inten    --      2.3617                 1.8927                 0.5275

                     43                     44                     45
                      A                      A                      A
 Frequencies --   1017.0309              1020.4034              1026.3657
 Red. masses --      1.3163                 1.3866                 5.7139
 Frc consts  --      0.8022                 0.8506                 3.5464
 IR Inten    --     24.7919                 1.3907                 6.1225

                     46                     47                     48
                      A                      A                      A
 Frequencies --   1028.2012              1032.5087              1036.1778
 Red. masses --      3.4635                 1.3154                 1.3592
 Frc consts  --      2.1574                 0.8262                 0.8598
 IR Inten    --      8.1041                 0.0729                 0.1900

                     49                     50                     51
                      A                      A                      A
 Frequencies --   1042.3149              1062.8119              1068.6975
 Red. masses --      1.5081                 2.2187                 2.1020
 Frc consts  --      0.9654                 1.4766                 1.4144
 IR Inten    --      2.2780                12.5471                18.4747

                     52                     53                     54
                      A                      A                      A
 Frequencies --   1070.7369              1077.6690              1125.0356
 Red. masses --      3.8182                 1.3035                 1.5953
 Frc consts  --      2.5791                 0.8919                 1.1897
 IR Inten    --     51.9457                75.3137                 9.1771

                     55                     56                     57
                      A                      A                      A
 Frequencies --   1127.9892              1167.7739              1186.6785
 Red. masses --      1.5907                 3.5029                 1.1332
 Frc consts  --      1.1925                 2.8144                 0.9402
 IR Inten    --     10.8049                16.8481                 0.3464

                     58                     59                     60
                      A                      A                      A
 Frequencies --   1187.8312              1219.8886              1222.2614
 Red. masses --      1.1233                 2.0884                 1.1689
 Frc consts  --      0.9338                 1.8311                 1.0289
 IR Inten    --      0.3767                94.7327                 3.6782

                     61                     62                     63
                      A                      A                      A
 Frequencies --   1228.5643              1251.9904              1275.2600
 Red. masses --      1.4684                 1.3839                 4.6165
 Frc consts  --      1.3058                 1.2781                 4.4235
 IR Inten    --     30.1707                37.9310                47.2194

                     64                     65                     66
                      A                      A                      A
 Frequencies --   1319.3170              1324.8882              1346.1292
 Red. masses --      4.3900                 4.7289                 2.9578
 Frc consts  --      4.5020                 4.8907                 3.1578
 IR Inten    --     37.6842                 5.7672               477.9534

                     67                     68                     69
                      A                      A                      A
 Frequencies --   1356.3987              1369.2873              1370.6258
 Red. masses --      1.3825                 1.3861                 1.4282
 Frc consts  --      1.4987                 1.5312                 1.5808
 IR Inten    --     78.0272                 9.6029                74.8897

                     70                     71                     72
                      A                      A                      A
 Frequencies --   1455.0915              1465.8172              1490.0734
 Red. masses --      1.4592                 1.3403                 1.9191
 Frc consts  --      1.8204                 1.6967                 2.5105
 IR Inten    --     28.6933                 7.7941                14.1482

                     73                     74                     75
                      A                      A                      A
 Frequencies --   1491.4741              1493.0143              1506.0141
 Red. masses --      1.1514                 2.1292                 1.0550
 Frc consts  --      1.5091                 2.7964                 1.4099
 IR Inten    --     57.5422                41.6856                12.3400

                     76                     77                     78
                      A                      A                      A
 Frequencies --   1542.5104              1547.1600              1646.9739
 Red. masses --      2.1846                 2.2164                 2.3231
 Frc consts  --      3.0625                 3.1259                 3.7127
 IR Inten    --     23.9842                14.5717               219.8246

                     79                     80                     81
                      A                      A                      A
 Frequencies --   1652.0832              1655.5320              1656.5521
 Red. masses --      2.7283                 5.4599                 2.4508
 Frc consts  --      4.3874                 8.8169                 3.9624
 IR Inten    --    226.7020               814.1625                47.4099

                     82                     83                     84
                      A                      A                      A
 Frequencies --   1673.8056              1676.9397              2941.7766
 Red. masses --      5.2160                 5.8635                 1.0807
 Frc consts  --      8.6099                 9.7149                 5.5101
 IR Inten    --      6.6169                 0.6241               140.7062

                     85                     86                     87
                      A                      A                      A
 Frequencies --   3086.8560              3168.5778              3186.4545
 Red. masses --      1.0338                 1.1041                 1.1056
 Frc consts  --      5.8039                 6.5312                 6.6137
 IR Inten    --     22.8591                 4.4404                12.5085

                     88                     89                     90
                      A                      A                      A
 Frequencies --   3199.7003              3200.4323              3207.2413
 Red. masses --      1.0861                 1.0861                 1.0889
 Frc consts  --      6.5517                 6.5545                 6.5996
 IR Inten    --      0.2577                 1.9291                 3.1970

                     91                     92                     93
                      A                      A                      A
 Frequencies --   3207.5897              3216.0029              3216.4159
 Red. masses --      1.0892                 1.0932                 1.0932
 Frc consts  --      6.6027                 6.6617                 6.6635
 IR Inten    --      4.3769                16.6997                30.2469

                     94                     95                     96
                      A                      A                      A
 Frequencies --   3224.8008              3225.6758              3235.6163
 Red. masses --      1.0974                 1.0971                 1.0944
 Frc consts  --      6.7240                 6.7258                 6.7506
 IR Inten    --     22.5847                19.5179                 4.1610

                     97                     98                     99
                      A                      A                      A
 Frequencies --   3239.2658              3510.5989              3589.5918
 Red. masses --      1.0930                 1.0516                 1.0957
 Frc consts  --      6.7572                 7.6356                 8.3182
 IR Inten    --     11.8467                45.8323                57.0817

 - Thermochemistry -
 -------------------
 Temperature   298.150 Kelvin.  Pressure   1.00000 Atm.
 Atom     1 has atomic number  6 and mass  12.00000

 Molecular mass:   317.04153 amu.
 Principal axes and moments of inertia in atomic units:
                           1         2         3
     Eigenvalues --  4904.943346347.126628587.26589
           X            0.99577  -0.08725  -0.02891
           Y            0.08668   0.99602  -0.02061
           Z            0.03059   0.01802   0.99937
 This molecule is an asymmetric top.
 Rotational symmetry number  1.
 Warning -- assumption of classical behavior for rotation
           may cause significant error
 Rotational temperatures (Kelvin)      0.01766     0.01365     0.01009
 Rotational constants (GHZ):           0.36794     0.28434     0.21016
    1 imaginary frequencies ignored.
 Zero-point vibrational energy     746373.1 (Joules/Mol)
                                  178.38744 (Kcal/Mol)
 Warning -- explicit consideration of  25 degrees of freedom as
           vibrations may cause significant error
 Vibrational temperatures:     41.94    76.09    86.73    89.46   117.46
          (Kelvin)            144.15   177.41   199.86   233.37   269.87
                              285.28   328.63   379.36   406.16   445.56
                              453.21   472.30   510.59   601.32   608.42
                              632.13   714.35   777.55   838.89   888.05
                              913.72   917.54   948.07   965.31   999.56
                             1042.88  1050.34  1131.73  1136.40  1235.39
                             1254.25  1265.11  1345.91  1376.19  1400.49
                             1455.36  1463.28  1468.13  1476.71  1479.35
                             1485.55  1490.83  1499.66  1529.15  1537.62
                             1540.55  1550.53  1618.68  1622.92  1680.17
                             1707.37  1709.02  1755.15  1758.56  1767.63
                             1801.33  1834.81  1898.20  1906.22  1936.78
                             1951.56  1970.10  1972.02  2093.55  2108.98
                             2143.88  2145.90  2148.11  2166.82  2219.33
                             2226.02  2369.63  2376.98  2381.94  2383.41
                             2408.23  2412.74  4232.56  4441.30  4558.88
                             4584.60  4603.66  4604.71  4614.50  4615.01
                             4627.11  4627.71  4639.77  4641.03  4655.33
                             4660.58  5050.97  5164.62

 Zero-point correction=                           0.284278 (Hartree/Particle)
 Thermal correction to Energy=                    0.301635
 Thermal correction to Enthalpy=                  0.302579
 Thermal correction to Gibbs Free Energy=         0.237600
 Sum of electronic and zero-point Energies=          -3323.214993
 Sum of electronic and thermal Energies=             -3323.197637
 Sum of electronic and thermal Enthalpies=           -3323.196693
 Sum of electronic and thermal Free Energies=        -3323.261672

                     E (Thermal)             CV                S
                      KCal/Mol        Cal/Mol-Kelvin    Cal/Mol-Kelvin
 Total                  189.279             65.725            136.760
 Electronic               0.000              0.000              0.000
 Translational            0.889              2.981             43.157
 Rotational               0.889              2.981             33.946
 Vibrational            187.501             59.764             59.656
 Vibration     1          0.593              1.984              5.886
 Vibration     2          0.596              1.976              4.707
 Vibration     3          0.597              1.973              4.448
 Vibration     4          0.597              1.972              4.387
 Vibration     5          0.600              1.962              3.851
 Vibration     6          0.604              1.949              3.451
 Vibration     7          0.610              1.930              3.048
 Vibration     8          0.615              1.914              2.819
 Vibration     9          0.622              1.889              2.524
 Vibration    10          0.632              1.857              2.252
 Vibration    11          0.637              1.842              2.149
 Vibration    12          0.651              1.798              1.891
 Vibration    13          0.670              1.739              1.637
 Vibration    14          0.681              1.706              1.520
 Vibration    15          0.699              1.655              1.364
 Vibration    16          0.702              1.645              1.336
 Vibration    17          0.711              1.619              1.269
 Vibration    18          0.731              1.565              1.144
 Vibration    19          0.781              1.431              0.899
 Vibration    20          0.785              1.421              0.882
 Vibration    21          0.799              1.384              0.829
 Vibration    22          0.852              1.258              0.667
 Vibration    23          0.895              1.161              0.564
 Vibration    24          0.940              1.068              0.480
 Vibration    25          0.977              0.995              0.421

 Optimization completed.
    -- Stationary point found.
 Normal termination of Gaussian 16 at Sun Jan 31 19:50:52 2021.
