 Gaussian 16, Revision A.03,
 Gaussian 16:  ES64L-G16RevA.03 25-Dec-2016

 ----------------------------------------------------------------------
 # wB97XD def2tzvp, opt=(ts, noeigen, calcfc, maxcycles=70, maxstep=8),
  freq=noraman, scrf=(iefpcm, solvent=water)
 ----------------------------------------------------------------------

 ------------------------
 1_iteration/TS-228-1.out
 ------------------------
 Symbolic Z-matrix:
 Charge =  0 Multiplicity = 1

 SCF Done:  E(RwB97XD) =  -3206.99637285     A.U. after   15 cycles
 SCF Done:  E(RwB97XD) =  -3206.99949483     A.U. after   14 cycles
 SCF Done:  E(RwB97XD) =  -3207.00263396     A.U. after   14 cycles
 SCF Done:  E(RwB97XD) =  -3207.00572647     A.U. after   13 cycles
 SCF Done:  E(RwB97XD) =  -3207.00837695     A.U. after   13 cycles
 SCF Done:  E(RwB97XD) =  -3207.01032522     A.U. after   12 cycles
 SCF Done:  E(RwB97XD) =  -3207.01063187     A.U. after   12 cycles
 SCF Done:  E(RwB97XD) =  -3207.01061070     A.U. after   12 cycles
 SCF Done:  E(RwB97XD) =  -3207.01036907     A.U. after   12 cycles
 SCF Done:  E(RwB97XD) =  -3207.01032100     A.U. after   12 cycles
 SCF Done:  E(RwB97XD) =  -3207.01061292     A.U. after   12 cycles
 SCF Done:  E(RwB97XD) =  -3207.01066625     A.U. after   12 cycles
 SCF Done:  E(RwB97XD) =  -3207.01058593     A.U. after   11 cycles
 SCF Done:  E(RwB97XD) =  -3207.01037971     A.U. after   12 cycles
 SCF Done:  E(RwB97XD) =  -3207.01065542     A.U. after   12 cycles
 SCF Done:  E(RwB97XD) =  -3207.01063718     A.U. after   12 cycles
 SCF Done:  E(RwB97XD) =  -3207.01067321     A.U. after   11 cycles
 SCF Done:  E(RwB97XD) =  -3207.01067360     A.U. after    9 cycles
 SCF Done:  E(RwB97XD) =  -3207.01067395     A.U. after    8 cycles
 Optimization completed.
    -- Stationary point found.
 Normal termination of Gaussian 16 at Wed Feb 10 12:52:25 2021.

 ---------------------------------------------------------------------
 #N Geom=AllCheck Guess=TCheck SCRF=Check GenChk RwB97XD/def2TZVP Freq
 ---------------------------------------------------------------------

 Structure from the checkpoint file:  "/beegfs/scratch/user/q/tla25/Gau-91571.chk"
 ------------------------
 1_iteration/TS-228-1.out
 ------------------------
 Charge =  0 Multiplicity = 1

                         Standard orientation:
 ---------------------------------------------------------------------
 Center     Atomic      Atomic             Coordinates (Angstroms)
 Number     Number       Type             X           Y           Z
 ---------------------------------------------------------------------
      1          6           0        0.769067   -0.070256   -0.161024
      2          6           0        0.989682    1.309473    0.141396
      3          8           0        0.221651    2.009989    0.787876
      4          6           0       -0.398555   -0.791599    0.094944
      5          6           0        0.798504   -1.660709    2.515987
      6          1           0        0.762067   -1.777041    3.599244
      7          1           0        1.153632   -2.584382    2.063792
      8          1           0        1.493424   -0.858888    2.265580
      9          7           0       -0.508869   -1.326493    1.965322
     10          1           0       -1.160858   -2.099585    2.026916
     11          1           0       -0.918814   -0.538588    2.451624
     12          1           0       -0.323802   -1.813290   -0.259259
     13          6           0       -1.796345   -0.290164   -0.105520
     14          6           0       -2.397802    0.736754    0.617609
     15          6           0       -3.704702    1.114624    0.348043
     16          6           0       -4.431170    0.480508   -0.649153
     17          6           0       -3.844372   -0.547746   -1.371268
     18          6           0       -2.542985   -0.934373   -1.092488
     19          1           0       -1.835970    1.256408    1.378550
     20          1           0       -4.156484    1.913651    0.922459
     21          1           0       -5.450058    0.781460   -0.857414
     22          1           0       -4.401419   -1.057855   -2.146844
     23          1           0       -2.097139   -1.747666   -1.653173
     24         35           0        2.252579   -1.095444   -0.832664
     25          8           0        2.146863    1.808381   -0.340962
     26          6           0        2.422890    3.166654   -0.025104
     27          1           0        3.395885    3.378918   -0.460948
     28          1           0        1.670915    3.829079   -0.454472
     29          1           0        2.457036    3.317827    1.054082
 ---------------------------------------------------------------------

 SCF Done:  E(RwB97XD) =  -3207.01067395     A.U. after    1 cycles

 The electronic state is 1-A.
 Alpha  occ. eigenvalues -- -483.11808 -62.66642 -56.45748 -56.45407 -56.45404
 Alpha  occ. eigenvalues --  -19.28435 -19.21662 -14.48145 -10.40315 -10.34961
 Alpha  occ. eigenvalues --  -10.32722 -10.31502 -10.30836 -10.30826 -10.29386
 Alpha  occ. eigenvalues --  -10.29176 -10.29126 -10.29079 -10.28968  -8.80754
 Alpha  occ. eigenvalues --   -6.62872  -6.61785  -6.61773  -2.73265  -2.72948
 Alpha  occ. eigenvalues --   -2.72938  -2.72058  -2.72058  -1.19985  -1.10295
 Alpha  occ. eigenvalues --   -1.03640  -0.97262  -0.92768  -0.87684  -0.85324
 Alpha  occ. eigenvalues --   -0.82819  -0.81109  -0.78669  -0.73562  -0.70660
 Alpha  occ. eigenvalues --   -0.69007  -0.64075  -0.63030  -0.61840  -0.57523
 Alpha  occ. eigenvalues --   -0.57164  -0.56589  -0.56545  -0.55429  -0.54428
 Alpha  occ. eigenvalues --   -0.52649  -0.51870  -0.50703  -0.49661  -0.48104
 Alpha  occ. eigenvalues --   -0.47704  -0.47085  -0.46540  -0.43982  -0.43707
 Alpha  occ. eigenvalues --   -0.43312  -0.41923  -0.39234  -0.38225  -0.37160
 Alpha  occ. eigenvalues --   -0.35017  -0.33945  -0.33293  -0.27285
 Alpha virt. eigenvalues --    0.02975   0.05054   0.05905   0.09413   0.10595
 Alpha virt. eigenvalues --    0.13143   0.13629   0.14230   0.15077   0.16235
 Alpha virt. eigenvalues --    0.16809   0.17168   0.17415   0.18578   0.19035

 Mulliken charges:
               1
     1  C   -0.216781
     2  C    0.438445
     3  O   -0.504445
     4  C   -0.082275
     5  C   -0.292883
     6  H    0.155040
     7  H    0.156020
     8  H    0.153374
     9  N   -0.325695
    10  H    0.285240
    11  H    0.277757
    12  H    0.170101
    13  C    0.258657
    14  C   -0.281833
    15  C   -0.145140
    16  C   -0.154495
    17  C   -0.142654
    18  C   -0.234906
    19  H    0.171077
    20  H    0.143442
    21  H    0.145047
    22  H    0.144397
    23  H    0.142542
    24  Br  -0.159186
    25  O   -0.303294
    26  C   -0.191205
    27  H    0.139409
    28  H    0.127502
    29  H    0.126743
 Sum of Mulliken charges =  -0.00000

 Dipole moment (field-independent basis, Debye):
    X=             -3.6290    Y=             -3.9154    Z=              4.8216  Tot=              7.1936
 Quadrupole moment (field-independent basis, Debye-Ang):
   XX=            -97.0002   YY=            -93.3426   ZZ=            -91.2837
   XY=              7.1314   XZ=              3.0953   YZ=             -6.6115

  Exact polarizability: 271.110  -4.990 226.195  -4.191  13.190 201.399
 Approx polarizability: 206.530  -7.563 185.801  -3.932  16.479 171.432

 ******    1 imaginary frequencies (negative Signs) ******

                      1                      2                      3
                      A                      A                      A
 Frequencies --   -332.7367                27.6482                47.6716
 Red. masses --      5.9972                 4.2931                 3.3067
 Frc consts  --      0.3912                 0.0019                 0.0044
 IR Inten    --    800.8445                 0.7787                 1.1550

                      4                      5                      6
                      A                      A                      A
 Frequencies --     53.0157                73.8900                97.8542
 Red. masses --      4.7823                 3.1522                 3.9858
 Frc consts  --      0.0079                 0.0101                 0.0225
 IR Inten    --      6.0464                 9.5374                 4.1622

                      7                      8                      9
                      A                      A                      A
 Frequencies --    107.2733               120.7152               132.6235
 Red. masses --      4.0266                 3.3402                 4.0130
 Frc consts  --      0.0273                 0.0287                 0.0416
 IR Inten    --     10.4477                 5.2889                 8.4372

                     10                     11                     12
                      A                      A                      A
 Frequencies --    161.4865               175.4918               193.2273
 Red. masses --      3.0055                 1.3734                 1.2512
 Frc consts  --      0.0462                 0.0249                 0.0275
 IR Inten    --      3.3417                 2.1035                 1.1327

                     13                     14                     15
                      A                      A                      A
 Frequencies --    224.5158               245.4971               271.7966
 Red. masses --      4.0571                 4.1437                 3.8149
 Frc consts  --      0.1205                 0.1471                 0.1660
 IR Inten    --      3.2637                 8.1741                15.4975

                     16                     17                     18
                      A                      A                      A
 Frequencies --    316.2871               324.5486               405.6868
 Red. masses --      5.8072                 5.0762                 9.9001
 Frc consts  --      0.3423                 0.3150                 0.9600
 IR Inten    --      3.2755                56.6394                 8.7758

                     19                     20                     21
                      A                      A                      A
 Frequencies --    419.7501               433.0446               532.8834
 Red. masses --      3.1973                 3.7051                 2.2641
 Frc consts  --      0.3319                 0.4094                 0.3788
 IR Inten    --     12.9090                24.8792               103.1449

                     22                     23                     24
                      A                      A                      A
 Frequencies --    589.5884               609.5446               637.3902
 Red. masses --      2.5371                 6.5918                 5.4582
 Frc consts  --      0.5196                 1.4430                 1.3065
 IR Inten    --     54.1653                31.8320                 1.5288

                     25                     26                     27
                      A                      A                      A
 Frequencies --    696.5430               724.2609               782.4817
 Red. masses --      2.5249                 1.6111                 4.6894
 Frc consts  --      0.7218                 0.4979                 1.6917
 IR Inten    --     24.4181                95.7337                72.2924

                     28                     29                     30
                      A                      A                      A
 Frequencies --    788.3679               812.5197               837.6672
 Red. masses --      3.8207                 3.4779                 4.6173
 Frc consts  --      1.3991                 1.3528                 1.9089
 IR Inten    --     30.7202                25.5080                 6.8360

                     31                     32                     33
                      A                      A                      A
 Frequencies --    874.9966               958.2479               982.4838
 Red. masses --      1.2463                 1.5221                 3.0772
 Frc consts  --      0.5622                 0.8235                 1.7501
 IR Inten    --      0.6331                 3.8296                19.3098

                     34                     35                     36
                      A                      A                      A
 Frequencies --   1005.1170              1011.0175              1025.1105
 Red. masses --      1.1730                 1.3783                 1.6973
 Frc consts  --      0.6982                 0.8301                 1.0509
 IR Inten    --     58.7791                 7.9150                55.7715

                     37                     38                     39
                      A                      A                      A
 Frequencies --   1027.6077              1032.5210              1062.5492
 Red. masses --      2.1738                 1.3851                 3.0785
 Frc consts  --      1.3524                 0.8700                 2.0478
 IR Inten    --     22.5771                21.3109                52.8672

                     40                     41                     42
                      A                      A                      A
 Frequencies --   1077.1405              1086.9273              1120.2211
 Red. masses --      3.2969                 4.5148                 1.5983
 Frc consts  --      2.2537                 3.1426                 1.1817
 IR Inten    --    109.9885                45.3595                16.3148

                     43                     44                     45
                      A                      A                      A
 Frequencies --   1153.8575              1182.1575              1185.3393
 Red. masses --      1.1537                 1.2817                 1.1288
 Frc consts  --      0.9050                 1.0553                 0.9344
 IR Inten    --    119.6897                 2.4511                 3.3601

                     46                     47                     48
                      A                      A                      A
 Frequencies --   1205.8162              1213.4762              1221.0903
 Red. masses --      2.1140                 1.3174                 1.2617
 Frc consts  --      1.8110                 1.1429                 1.1085
 IR Inten    --     23.1934                20.7316                18.4313

                     49                     50                     51
                      A                      A                      A
 Frequencies --   1225.2876              1255.1526              1330.8235
 Red. masses --      1.9797                 2.5634                 5.2093
 Frc consts  --      1.7512                 2.3794                 5.4359
 IR Inten    --     70.4566               546.6039                56.6142

                     52                     53                     54
                      A                      A                      A
 Frequencies --   1344.7079              1366.8677              1390.0774
 Red. masses --      1.3333                 1.5275                 1.8458
 Frc consts  --      1.4205                 1.6815                 2.1014
 IR Inten    --      5.4176                77.0084               583.1683

                     55                     56                     57
                      A                      A                      A
 Frequencies --   1446.9510              1466.0450              1480.2925
 Red. masses --      1.6150                 1.7139                 1.1461
 Frc consts  --      1.9922                 2.1703                 1.4796
 IR Inten    --    148.9331                93.6651                94.4858

                     58                     59                     60
                      A                      A                      A
 Frequencies --   1484.0212              1491.1346              1496.9374
 Red. masses --      1.1180                 1.0396                 1.1018
 Frc consts  --      1.4507                 1.3619                 1.4546
 IR Inten    --     70.8140                15.6839                 2.8602

                     61                     62                     63
                      A                      A                      A
 Frequencies --   1501.7821              1506.0898              1546.1550
 Red. masses --      1.0554                 2.2146                 2.3586
 Frc consts  --      1.4024                 2.9597                 3.3221
 IR Inten    --     39.0219                90.2969                26.2488

                     64                     65                     66
                      A                      A                      A
 Frequencies --   1644.0624              1652.6192              1675.4669
 Red. masses --      1.1037                 5.3882                 5.8744
 Frc consts  --      1.7577                 8.6705                 9.7159
 IR Inten    --     64.6139                 9.2792                20.0771

                     67                     68                     69
                      A                      A                      A
 Frequencies --   1687.6801              3062.1402              3066.7429
 Red. masses --     10.2092                 1.0308                 1.0334
 Frc consts  --     17.1326                 5.6949                 5.7261
 IR Inten    --    455.5908                60.8571                36.0350

                     70                     71                     72
                      A                      A                      A
 Frequencies --   3137.6402              3142.0346              3166.8320
 Red. masses --      1.1067                 1.1048                 1.1050
 Frc consts  --      6.4194                 6.4263                 6.5295
 IR Inten    --     38.5005                14.7605                15.3047

                     73                     74                     75
                      A                      A                      A
 Frequencies --   3171.7188              3178.9734              3191.1597
 Red. masses --      1.1053                 1.0887                 1.0874
 Frc consts  --      6.5515                 6.4823                 6.5243
 IR Inten    --     26.2251                 2.5681                 6.7377

                     76                     77                     78
                      A                      A                      A
 Frequencies --   3199.1685              3209.2990              3221.2219
 Red. masses --      1.0884                 1.0932                 1.0981
 Frc consts  --      6.5633                 6.6337                 6.7130
 IR Inten    --      1.7281                30.9532                22.7161

                     79                     80                     81
                      A                      A                      A
 Frequencies --   3249.9385              3533.8768              3615.6149
 Red. masses --      1.0927                 1.0505                 1.0961
 Frc consts  --      6.7996                 7.7294                 8.4425
 IR Inten    --      4.6531                43.7348                43.8906

 - Thermochemistry -
 -------------------
 Temperature   298.150 Kelvin.  Pressure   1.00000 Atm.
 Atom     1 has atomic number  6 and mass  12.00000

 Molecular mass:   271.02079 amu.
 Principal axes and moments of inertia in atomic units:
                           1         2         3
     Eigenvalues --  2892.010526173.749637012.67704
           X            0.99875   0.04401   0.02376
           Y           -0.04221   0.99652  -0.07190
           Z           -0.02685   0.07080   0.99713
 This molecule is an asymmetric top.
 Rotational symmetry number  1.
 Warning -- assumption of classical behavior for rotation
           may cause significant error
 Rotational temperatures (Kelvin)      0.02995     0.01403     0.01235
 Rotational constants (GHZ):           0.62404     0.29232     0.25735
    1 imaginary frequencies ignored.
 Zero-point vibrational energy     618514.0 (Joules/Mol)
                                  147.82839 (Kcal/Mol)
 Warning -- explicit consideration of  22 degrees of freedom as
           vibrations may cause significant error
 Vibrational temperatures:     39.78    68.59    76.28   106.31   140.79
          (Kelvin)            154.34   173.68   190.82   232.34   252.49
                              278.01   323.03   353.22   391.05   455.07
                              466.95   583.69   603.93   623.05   766.70
                              848.29   877.00   917.06  1002.17  1042.05
                             1125.82  1134.29  1169.03  1205.22  1258.92
                             1378.70  1413.58  1446.14  1454.63  1474.91
                             1478.50  1485.57  1528.77  1549.76  1563.85
                             1611.75  1660.14  1700.86  1705.44  1734.90
                             1745.92  1756.88  1762.92  1805.88  1914.76
                             1934.73  1966.62  2000.01  2081.84  2109.31
                             2129.81  2135.18  2145.41  2153.76  2160.73
                             2166.93  2224.57  2365.44  2377.75  2410.62
                             2428.20  4405.74  4412.36  4514.36  4520.69
                             4556.36  4563.40  4573.83  4591.37  4602.89
                             4617.47  4634.62  4675.94  5084.46  5202.06

 Zero-point correction=                           0.235580 (Hartree/Particle)
 Thermal correction to Energy=                    0.251339
 Thermal correction to Enthalpy=                  0.252283
 Thermal correction to Gibbs Free Energy=         0.190087
 Sum of electronic and zero-point Energies=          -3206.775094
 Sum of electronic and thermal Energies=             -3206.759335
 Sum of electronic and thermal Enthalpies=           -3206.758391
 Sum of electronic and thermal Free Energies=        -3206.820587

                     E (Thermal)             CV                S
                      KCal/Mol        Cal/Mol-Kelvin    Cal/Mol-Kelvin
 Total                  157.718             55.740            130.902
 Electronic               0.000              0.000              0.000
 Translational            0.889              2.981             42.690
 Rotational               0.889              2.981             33.193
 Vibrational            155.940             49.779             55.020
 Vibration     1          0.593              1.984              5.991
 Vibration     2          0.595              1.978              4.912
 Vibration     3          0.596              1.976              4.702
 Vibration     4          0.599              1.966              4.047
 Vibration     5          0.603              1.951              3.497
 Vibration     6          0.606              1.943              3.318
 Vibration     7          0.609              1.932              3.089
 Vibration     8          0.613              1.921              2.908
 Vibration     9          0.622              1.890              2.532
 Vibration    10          0.627              1.873              2.376
 Vibration    11          0.635              1.849              2.197
 Vibration    12          0.649              1.804              1.922
 Vibration    13          0.660              1.770              1.763
 Vibration    14          0.675              1.725              1.585
 Vibration    15          0.703              1.643              1.329
 Vibration    16          0.709              1.626              1.287
 Vibration    17          0.771              1.458              0.942
 Vibration    18          0.782              1.427              0.893
 Vibration    19          0.794              1.398              0.849
 Vibration    20          0.888              1.177              0.581
 Vibration    21          0.947              1.054              0.468
 Vibration    22          0.969              1.012              0.434

 Optimization completed.
    -- Stationary point found.
 Normal termination of Gaussian 16 at Wed Feb 10 13:50:05 2021.
