 Gaussian 16, Revision A.03,
 Gaussian 16:  ES64L-G16RevA.03 25-Dec-2016

 ----------------------------------------------------------------------
 # wB97XD def2tzvp, opt=(ts, noeigen, calcfc, maxcycles=70, maxstep=8),
  freq=noraman, scrf=(iefpcm, solvent=water)
 ----------------------------------------------------------------------

 ------------------------
 1_iteration/TS-225-1.out
 ------------------------
 Symbolic Z-matrix:
 Charge =  0 Multiplicity = 1

 SCF Done:  E(RwB97XD) =  -3092.45881983     A.U. after   15 cycles
 Optimization completed.
    -- Stationary point found.
 Normal termination of Gaussian 16 at Wed Feb 10 09:49:42 2021.

 ---------------------------------------------------------------------
 #N Geom=AllCheck Guess=TCheck SCRF=Check GenChk RwB97XD/def2TZVP Freq
 ---------------------------------------------------------------------

 Structure from the checkpoint file:  "/beegfs/scratch/user/q/tla25/Gau-2519.chk"
 ------------------------
 1_iteration/TS-225-1.out
 ------------------------
 Charge =  0 Multiplicity = 1

                         Standard orientation:
 ---------------------------------------------------------------------
 Center     Atomic      Atomic             Coordinates (Angstroms)
 Number     Number       Type             X           Y           Z
 ---------------------------------------------------------------------
      1          6           0       -0.920539   -0.447871    0.055529
      2          6           0       -0.775170   -1.369931    1.115279
      3          8           0       -1.665920   -2.002611    1.681719
      4          6           0        0.088291    0.273509   -0.586941
      5          6           0       -0.369618    2.362009    1.351699
      6          1           0       -0.951959    1.507339    1.707409
      7          1           0        0.559042    2.414268    1.914119
      8          1           0       -0.940698    3.273439    1.524279
      9          7           0       -0.079108    2.168749   -0.062881
     10          1           0       -0.845108    2.490839   -0.641631
     11          1           0        0.760512    2.651138   -0.358291
     12          1           0       -0.117769    0.543579   -1.616171
     13          6           0        1.534931    0.011208   -0.355021
     14          6           0        2.132511    0.080928    0.901899
     15          6           0        3.486441   -0.171772    1.051819
     16          6           0        4.262761   -0.499153   -0.050861
     17          6           0        3.679241   -0.560942   -1.307481
     18          6           0        2.326781   -0.297522   -1.458671
     19          1           0        1.542121    0.339398    1.770449
     20          1           0        3.936181   -0.110503    2.034429
     21          1           0        5.320151   -0.697413    0.068549
     22          1           0        4.278191   -0.807593   -2.174681
     23          1           0        1.878351   -0.337132   -2.444071
     24         35           0       -2.699609   -0.147821   -0.586001
     25          1           0        0.274650   -1.536761    1.408549
 ---------------------------------------------------------------------

 SCF Done:  E(RwB97XD) =  -3092.45881983     A.U. after    1 cycles

 The electronic state is 1-A.
 Alpha  occ. eigenvalues -- -483.12235 -62.67074 -56.46170 -56.45845 -56.45839
 Alpha  occ. eigenvalues --  -19.21335 -14.48355 -10.35633 -10.35264 -10.31734
 Alpha  occ. eigenvalues --  -10.31419 -10.31337 -10.29931 -10.29905 -10.29661
 Alpha  occ. eigenvalues --  -10.29618 -10.29568  -8.81189  -6.63280  -6.62237
 Alpha  occ. eigenvalues --   -6.62220  -2.73682  -2.73373  -2.73361  -2.72516
 Alpha  occ. eigenvalues --   -2.72515  -1.11662  -1.03831  -0.97972  -0.93247
 Alpha  occ. eigenvalues --   -0.88088  -0.85975  -0.82202  -0.79324  -0.75866
 Alpha  occ. eigenvalues --   -0.71256  -0.69855  -0.64295  -0.62674  -0.60151
 Alpha  occ. eigenvalues --   -0.58339  -0.57050  -0.56483  -0.55160  -0.52849
 Alpha  occ. eigenvalues --   -0.52590  -0.51431  -0.49605  -0.48438  -0.47611
 Alpha  occ. eigenvalues --   -0.46963  -0.46850  -0.44086  -0.43389  -0.42174
 Alpha  occ. eigenvalues --   -0.38751  -0.37061  -0.34810  -0.34395  -0.32471
 Alpha  occ. eigenvalues --   -0.28347
 Alpha virt. eigenvalues --    0.01385   0.04571   0.06246   0.08271   0.10507
 Alpha virt. eigenvalues --    0.12496   0.13616   0.14036   0.15075   0.16204
 Alpha virt. eigenvalues --    0.16880   0.17718   0.18170   0.19101   0.20152

 Mulliken charges:
               1
     1  C   -0.123879
     2  C    0.093962
     3  O   -0.493415
     4  C    0.019878
     5  C   -0.304213
     6  H    0.149448
     7  H    0.161439
     8  H    0.160036
     9  N   -0.348630
    10  H    0.284860
    11  H    0.292645
    12  H    0.185280
    13  C    0.162375
    14  C   -0.313053
    15  C   -0.136446
    16  C   -0.149584
    17  C   -0.132447
    18  C   -0.244452
    19  H    0.197394
    20  H    0.147635
    21  H    0.148371
    22  H    0.147688
    23  H    0.145910
    24  Br  -0.156936
    25  H    0.106133
 Sum of Mulliken charges =  -0.00000

 Dipole moment (field-independent basis, Debye):
    X=              7.7387    Y=              9.5528    Z=             -3.0055  Tot=             12.6561
 Quadrupole moment (field-independent basis, Debye-Ang):
   XX=            -92.9446   YY=            -87.3577   ZZ=            -87.6765
   XY=            -11.5805   XZ=              5.8016   YZ=              7.8095

  Exact polarizability: 262.615   4.523 187.359  -3.603 -12.159 197.775
 Approx polarizability: 198.292   2.201 154.332  -2.588 -10.250 172.958

 ******    1 imaginary frequencies (negative Signs) ******

                      1                      2                      3
                      A                      A                      A
 Frequencies --   -313.1573                44.4477                55.3779
 Red. masses --      5.9449                 3.7390                 6.6019
 Frc consts  --      0.3435                 0.0044                 0.0119
 IR Inten    --    787.9116                 3.4632                 1.9078

                      4                      5                      6
                      A                      A                      A
 Frequencies --     78.5045                92.6701               110.1327
 Red. masses --      3.5341                 3.4972                 2.7854
 Frc consts  --      0.0128                 0.0177                 0.0199
 IR Inten    --      2.3098                 0.5177                10.4418

                      7                      8                      9
                      A                      A                      A
 Frequencies --    138.7322               188.6012               198.4525
 Red. masses --      4.1718                 4.4192                 1.4542
 Frc consts  --      0.0473                 0.0926                 0.0337
 IR Inten    --      6.0200                 8.8670                 1.1730

                     10                     11                     12
                      A                      A                      A
 Frequencies --    216.4241               266.5234               280.1688
 Red. masses --      6.4117                 2.9220                 4.8150
 Frc consts  --      0.1769                 0.1223                 0.2227
 IR Inten    --      2.1285                14.5368                 1.8054

                     13                     14                     15
                      A                      A                      A
 Frequencies --    300.0842               382.6713               430.0586
 Red. masses --      3.7127                 3.3285                 2.9850
 Frc consts  --      0.1970                 0.2872                 0.3253
 IR Inten    --     28.9759                14.0207                 1.6352

                     16                     17                     18
                      A                      A                      A
 Frequencies --    469.4802               540.0209               578.5718
 Red. masses --      3.9922                 3.8587                 3.2383
 Frc consts  --      0.5184                 0.6630                 0.6387
 IR Inten    --     34.1987                43.6951               111.6611

                     19                     20                     21
                      A                      A                      A
 Frequencies --    605.2246               635.7590               651.3068
 Red. masses --      2.7886                 6.1270                 2.6334
 Frc consts  --      0.6018                 1.4591                 0.6582
 IR Inten    --     44.8229                 8.6522                86.7684

                     22                     23                     24
                      A                      A                      A
 Frequencies --    732.3973               750.1735               806.6950
 Red. masses --      1.7483                 3.5455                 2.3593
 Frc consts  --      0.5525                 1.1756                 0.9046
 IR Inten    --     67.9308                77.6747                14.0406

                     25                     26                     27
                      A                      A                      A
 Frequencies --    851.6711               886.0646               970.9477
 Red. masses --      4.4565                 1.2524                 1.4018
 Frc consts  --      1.9045                 0.5793                 0.7786
 IR Inten    --     15.7928                 0.3549                 5.4323

                     28                     29                     30
                      A                      A                      A
 Frequencies --   1011.0957              1014.9764              1022.4291
 Red. masses --      1.0997                 1.5528                 1.5017
 Frc consts  --      0.6624                 0.9425                 0.9249
 IR Inten    --     52.2726                 3.8974               131.3108

                     31                     32                     33
                      A                      A                      A
 Frequencies --   1025.4449              1027.1045              1039.7959
 Red. masses --      1.4350                 5.0043                 1.3105
 Frc consts  --      0.8891                 3.1104                 0.8348
 IR Inten    --     70.7784                10.4915                 1.8020

                     34                     35                     36
                      A                      A                      A
 Frequencies --   1064.5836              1066.2757              1120.0715
 Red. masses --      2.2383                 1.6650                 1.6108
 Frc consts  --      1.4946                 1.1154                 1.1906
 IR Inten    --      5.3695                11.9884                18.6291

                     37                     38                     39
                      A                      A                      A
 Frequencies --   1133.5432              1184.5756              1188.5110
 Red. masses --      2.6182                 1.2978                 1.1792
 Frc consts  --      1.9821                 1.0730                 0.9814
 IR Inten    --     37.4222                49.7581                31.8576

                     40                     41                     42
                      A                      A                      A
 Frequencies --   1205.1932              1218.5404              1231.2252
 Red. masses --      1.3897                 1.1502                 2.4001
 Frc consts  --      1.1893                 1.0062                 2.1437
 IR Inten    --     35.1794                 0.5498                61.8739

                     43                     44                     45
                      A                      A                      A
 Frequencies --   1327.8628              1340.4959              1352.7649
 Red. masses --      4.0254                 1.3856                 1.5533
 Frc consts  --      4.1818                 1.4670                 1.6747
 IR Inten    --      1.4876                 1.1693               358.3245

                     46                     47                     48
                      A                      A                      A
 Frequencies --   1367.5004              1424.9697              1465.6746
 Red. masses --      1.4575                 1.6594                 1.2589
 Frc consts  --      1.6059                 1.9852                 1.5934
 IR Inten    --     20.3372                47.4952                42.1188

                     49                     50                     51
                      A                      A                      A
 Frequencies --   1485.7618              1499.8370              1508.6749
 Red. masses --      2.1375                 1.0415                 1.0925
 Frc consts  --      2.7800                 1.3803                 1.4651
 IR Inten    --     78.8562                17.1891                29.5274

                     52                     53                     54
                      A                      A                      A
 Frequencies --   1515.2901              1550.7177              1644.8881
 Red. masses --      2.2968                 2.4729                 1.0935
 Frc consts  --      3.1072                 3.5036                 1.7431
 IR Inten    --    157.4481                29.4907                79.5059

                     55                     56                     57
                      A                      A                      A
 Frequencies --   1654.7028              1665.7964              1677.4242
 Red. masses --      5.5936                 8.0165                 5.8078
 Frc consts  --      9.0236                13.1062                 9.6283
 IR Inten    --     29.5519              1161.8955                 1.3355

                     58                     59                     60
                      A                      A                      A
 Frequencies --   2985.5118              3051.6358              3128.8968
 Red. masses --      1.0816                 1.0400                 1.0977
 Frc consts  --      5.6801                 5.7062                 6.3314
 IR Inten    --     88.3902                25.0957                14.1076

                     61                     62                     63
                      A                      A                      A
 Frequencies --   3172.1083              3174.7047              3196.5244
 Red. masses --      1.1041                 1.0904                 1.0873
 Frc consts  --      6.5459                 6.4752                 6.5456
 IR Inten    --     14.2480                 8.3864                 3.3356

                     64                     65                     66
                      A                      A                      A
 Frequencies --   3203.4726              3212.8930              3222.3700
 Red. masses --      1.0887                 1.0923                 1.0957
 Frc consts  --      6.5823                 6.6432                 6.7032
 IR Inten    --      1.3770                19.4952                26.5445

                     67                     68                     69
                      A                      A                      A
 Frequencies --   3230.2996              3537.7408              3619.3274
 Red. masses --      1.0964                 1.0508                 1.0964
 Frc consts  --      6.7410                 7.7485                 8.4622
 IR Inten    --      6.4676                53.1801                52.5910

 - Thermochemistry -
 -------------------
 Temperature   298.150 Kelvin.  Pressure   1.00000 Atm.
 Atom     1 has atomic number  6 and mass  12.00000

 Molecular mass:   241.01023 amu.
 Principal axes and moments of inertia in atomic units:
                           1         2         3
     Eigenvalues --  1729.358415688.878615888.25948
           X            0.99983  -0.00914  -0.01597
           Y            0.01168   0.98585   0.16724
           Z            0.01422  -0.16739   0.98579
 This molecule is an asymmetric top.
 Rotational symmetry number  1.
 Warning -- assumption of classical behavior for rotation
           may cause significant error
 Rotational temperatures (Kelvin)      0.05008     0.01523     0.01471
 Rotational constants (GHZ):           1.04359     0.31724     0.30650
    1 imaginary frequencies ignored.
 Zero-point vibrational energy     532531.9 (Joules/Mol)
                                  127.27817 (Kcal/Mol)
 Warning -- explicit consideration of  18 degrees of freedom as
           vibrations may cause significant error
 Vibrational temperatures:     63.95    79.68   112.95   133.33   158.46
          (Kelvin)            199.60   271.36   285.53   311.39   383.47
                              403.10   431.75   550.58   618.76   675.48
                              776.97   832.44   870.78   914.72   937.09
                             1053.76  1079.33  1160.65  1225.36  1274.85
                             1396.98  1454.74  1460.32  1471.05  1475.39
                             1477.77  1496.03  1531.70  1534.13  1611.53
                             1630.92  1704.34  1710.00  1734.00  1753.21
                             1771.46  1910.50  1928.67  1946.33  1967.53
                             2050.21  2108.78  2137.68  2157.93  2170.65
                             2180.16  2231.14  2366.63  2380.75  2396.71
                             2413.44  4295.49  4390.62  4501.78  4563.96
                             4567.69  4599.09  4609.08  4622.64  4636.27
                             4647.68  5090.02  5207.40

 Zero-point correction=                           0.202831 (Hartree/Particle)
 Thermal correction to Energy=                    0.215803
 Thermal correction to Enthalpy=                  0.216747
 Thermal correction to Gibbs Free Energy=         0.161540
 Sum of electronic and zero-point Energies=          -3092.255989
 Sum of electronic and thermal Energies=             -3092.243017
 Sum of electronic and thermal Enthalpies=           -3092.242073
 Sum of electronic and thermal Free Energies=        -3092.297280

                     E (Thermal)             CV                S
                      KCal/Mol        Cal/Mol-Kelvin    Cal/Mol-Kelvin
 Total                  135.418             46.815            116.192
 Electronic               0.000              0.000              0.000
 Translational            0.889              2.981             42.340
 Rotational               0.889              2.981             32.427
 Vibrational            133.641             40.853             41.425
 Vibration     1          0.595              1.980              5.050
 Vibration     2          0.596              1.975              4.615
 Vibration     3          0.600              1.964              3.928
 Vibration     4          0.602              1.954              3.603
 Vibration     5          0.606              1.941              3.267
 Vibration     6          0.614              1.915              2.821
 Vibration     7          0.633              1.856              2.242
 Vibration     8          0.637              1.842              2.147
 Vibration     9          0.645              1.816              1.989
 Vibration    10          0.672              1.735              1.619
 Vibration    11          0.680              1.710              1.533
 Vibration    12          0.693              1.674              1.416
 Vibration    13          0.752              1.507              1.029
 Vibration    14          0.791              1.405              0.858
 Vibration    15          0.827              1.318              0.739
 Vibration    16          0.895              1.162              0.565
 Vibration    17          0.935              1.078              0.488
 Vibration    18          0.964              1.021              0.441

 Optimization completed.
    -- Stationary point found.
 Normal termination of Gaussian 16 at Wed Feb 10 10:28:57 2021.
