 Gaussian 16, Revision A.03,
 Gaussian 16:  ES64L-G16RevA.03 25-Dec-2016

 ----------------------------------------------------------------------
 # wB97XD def2tzvp, opt=(ts, noeigen, calcfc, maxcycles=70, maxstep=3),
  freq=noraman, scrf=(iefpcm, solvent=water)
 ----------------------------------------------------------------------

 ------------------------
 0_iteration/TS-263-0.out
 ------------------------
 Symbolic Z-matrix:
 Charge =  0 Multiplicity = 1

 SCF Done:  E(RwB97XD) =  -613.532487778     A.U. after   14 cycles
 SCF Done:  E(RwB97XD) =  -613.532833697     A.U. after   11 cycles
 SCF Done:  E(RwB97XD) =  -613.533145578     A.U. after   11 cycles
 SCF Done:  E(RwB97XD) =  -613.533403790     A.U. after   11 cycles
 SCF Done:  E(RwB97XD) =  -613.533555772     A.U. after   11 cycles
 SCF Done:  E(RwB97XD) =  -613.533635189     A.U. after   11 cycles
 SCF Done:  E(RwB97XD) =  -613.533658881     A.U. after   12 cycles
 SCF Done:  E(RwB97XD) =  -613.533620166     A.U. after   12 cycles
 SCF Done:  E(RwB97XD) =  -613.533657275     A.U. after   11 cycles
 SCF Done:  E(RwB97XD) =  -613.533670581     A.U. after   10 cycles
 SCF Done:  E(RwB97XD) =  -613.533671492     A.U. after   11 cycles
 SCF Done:  E(RwB97XD) =  -613.533675185     A.U. after   10 cycles
 SCF Done:  E(RwB97XD) =  -613.533675468     A.U. after    8 cycles
 SCF Done:  E(RwB97XD) =  -613.533675504     A.U. after    7 cycles
 Optimization completed.
    -- Stationary point found.
 Normal termination of Gaussian 16 at Sat Mar 27 10:59:51 2021.

 ---------------------------------------------------------------------
 #N Geom=AllCheck Guess=TCheck SCRF=Check GenChk RwB97XD/def2TZVP Freq
 ---------------------------------------------------------------------

 Structure from the checkpoint file:  "/beegfs/scratch/user/q/tla25/Gau-33847.chk"
 ------------------------
 0_iteration/TS-263-0.out
 ------------------------
 Charge =  0 Multiplicity = 1

                         Standard orientation:
 ---------------------------------------------------------------------
 Center     Atomic      Atomic             Coordinates (Angstroms)
 Number     Number       Type             X           Y           Z
 ---------------------------------------------------------------------
      1          6           0       -2.193165   -0.718923   -0.476788
      2          6           0       -0.828025   -0.996070   -0.167210
      3          8           0       -0.458800   -2.063485    0.350753
      4          6           0       -2.661664    0.508451   -0.979622
      5          6           0       -2.148886    1.846628    1.338820
      6          1           0       -2.541556    2.381360    2.201923
      7          1           0       -1.808934    0.857474    1.645056
      8          1           0       -1.309314    2.397651    0.920251
      9          7           0       -3.172389    1.675452    0.309382
     10          1           0       -4.017397    1.280015    0.706638
     11          1           0       -3.421586    2.557602   -0.125195
     12          1           0       -3.622592    0.484650   -1.486504
     13          1           0       -1.977990    1.177517   -1.494098
     14          6           0       -3.195753   -1.776938   -0.088918
     15          1           0       -4.177925   -1.542009   -0.506627
     16          1           0       -2.908091   -2.766204   -0.453776
     17          1           0       -3.322078   -1.872053    0.996490
     18          7           0        0.124946   -0.021616   -0.486174
     19          6           0        1.491477    0.011639   -0.239809
     20          6           0        2.186768    1.156964   -0.654421
     21          6           0        3.547652    1.280411   -0.446267
     22          6           0        4.260487    0.267394    0.182728
     23          6           0        3.578387   -0.866894    0.594902
     24          6           0        2.212334   -1.007232    0.392329
     25          1           0       -0.223424    0.808004   -0.929973
     26          1           0        1.645674    1.957768   -1.146501
     27          1           0        4.054368    2.178045   -0.779167
     28          1           0        5.326044    0.362277    0.346208
     29          1           0        4.115524   -1.669002    1.087223
     30          1           0        1.694109   -1.894644    0.715112
 ---------------------------------------------------------------------

 SCF Done:  E(RwB97XD) =  -613.533675504     A.U. after    1 cycles

 The electronic state is 1-A.
 Alpha  occ. eigenvalues --  -19.18701 -14.49694 -14.45018 -10.36471 -10.33337
 Alpha  occ. eigenvalues --  -10.32724 -10.31947 -10.28694 -10.28508 -10.28296
 Alpha  occ. eigenvalues --  -10.27720 -10.27508 -10.26088 -10.24388  -1.11397
 Alpha  occ. eigenvalues --   -1.04951  -1.02638  -0.94808  -0.88679  -0.84594
 Alpha  occ. eigenvalues --   -0.83632  -0.79990  -0.77462  -0.73817  -0.70904
 Alpha  occ. eigenvalues --   -0.68192  -0.64455  -0.63371  -0.61870  -0.58462
 Alpha  occ. eigenvalues --   -0.57562  -0.56396  -0.54198  -0.53197  -0.51981
 Alpha  occ. eigenvalues --   -0.51246  -0.50620  -0.49944  -0.48417  -0.48178
 Alpha  occ. eigenvalues --   -0.47707  -0.45021  -0.44844  -0.44086  -0.43815
 Alpha  occ. eigenvalues --   -0.43250  -0.42235  -0.38626  -0.33365  -0.32380
 Alpha  occ. eigenvalues --   -0.29553  -0.24679
 Alpha virt. eigenvalues --    0.05643   0.05781   0.08981   0.10003   0.12353
 Alpha virt. eigenvalues --    0.13510   0.14111   0.14932   0.16387   0.16817
 Alpha virt. eigenvalues --    0.17628   0.18133   0.18384   0.18577   0.19824

 Mulliken charges:
               1
     1  C   -0.217137
     2  C    0.336340
     3  O   -0.570033
     4  C   -0.274182
     5  C   -0.317663
     6  H    0.163626
     7  H    0.160846
     8  H    0.157350
     9  N   -0.240457
    10  H    0.288464
    11  H    0.289916
    12  H    0.170386
    13  H    0.165383
    14  C   -0.362567
    15  H    0.113126
    16  H    0.109362
    17  H    0.103171
    18  N   -0.249291
    19  C    0.307928
    20  C   -0.322587
    21  C   -0.098395
    22  C   -0.212971
    23  C   -0.104305
    24  C   -0.318670
    25  H    0.217236
    26  H    0.136411
    27  H    0.139834
    28  H    0.136999
    29  H    0.137535
    30  H    0.154346
 Sum of Mulliken charges =  -0.00000

 Dipole moment (field-independent basis, Debye):
    X=             -7.7274    Y=             11.4572    Z=             -0.0754  Tot=             13.8198
 Quadrupole moment (field-independent basis, Debye-Ang):
   XX=            -58.5408   YY=            -83.4458   ZZ=            -85.4691
   XY=            -19.6545   XZ=             -1.8369   YZ=             -0.8934

  Exact polarizability: 284.938  -9.380 221.960  14.490 -20.404 152.444
 Approx polarizability: 203.875  -7.053 183.045  11.480 -19.546 133.015

 ******    1 imaginary frequencies (negative Signs) ******

                      1                      2                      3
                      A                      A                      A
 Frequencies --   -375.8534                26.5351                28.3286
 Red. masses --      6.3468                 3.6808                 4.2109
 Frc consts  --      0.5282                 0.0015                 0.0020
 IR Inten    --   1176.5723                 2.7029                 3.6417

                      4                      5                      6
                      A                      A                      A
 Frequencies --     68.7128                89.1972                96.0469
 Red. masses --      2.4130                 3.7050                 3.9479
 Frc consts  --      0.0067                 0.0174                 0.0215
 IR Inten    --      3.1940                 7.6285                 9.4947

                      7                      8                      9
                      A                      A                      A
 Frequencies --    133.4452               152.6418               171.8744
 Red. masses --      3.3420                 1.6247                 1.4003
 Frc consts  --      0.0351                 0.0223                 0.0244
 IR Inten    --      2.8602                 8.7031                 3.4847

                     10                     11                     12
                      A                      A                      A
 Frequencies --    214.4893               234.1947               256.0835
 Red. masses --      1.3181                 4.1390                 3.0474
 Frc consts  --      0.0357                 0.1338                 0.1177
 IR Inten    --      5.5369                 3.5671                 6.6691

                     13                     14                     15
                      A                      A                      A
 Frequencies --    312.3338               321.6827               368.2077
 Red. masses --      3.4089                 3.9312                 5.4731
 Frc consts  --      0.1959                 0.2397                 0.4372
 IR Inten    --     32.5560                 0.2792                 7.1541

                     16                     17                     18
                      A                      A                      A
 Frequencies --    424.8249               454.8806               493.2989
 Red. masses --      3.0150                 2.8679                 1.9547
 Frc consts  --      0.3206                 0.3496                 0.2803
 IR Inten    --      0.0670                39.9559                 7.1697

                     19                     20                     21
                      A                      A                      A
 Frequencies --    521.4187               528.1133               595.3862
 Red. masses --      1.3674                 2.3608                 4.0496
 Frc consts  --      0.2190                 0.3879                 0.8458
 IR Inten    --    176.3759                 0.3215                32.0805

                     22                     23                     24
                      A                      A                      A
 Frequencies --    634.4402               644.3725               718.0947
 Red. masses --      5.9619                 3.2178                 1.9187
 Frc consts  --      1.4139                 0.7872                 0.5829
 IR Inten    --      2.8494                 9.0800                60.4034

                     25                     26                     27
                      A                      A                      A
 Frequencies --    735.9602               779.1305               781.5847
 Red. masses --      2.1606                 1.8514                 4.1282
 Frc consts  --      0.6895                 0.6622                 1.4858
 IR Inten    --     18.8983               110.6082                18.1094

                     28                     29                     30
                      A                      A                      A
 Frequencies --    857.8950               858.4738               891.2782
 Red. masses --      4.2116                 1.3343                 4.1597
 Frc consts  --      1.8263                 0.5794                 1.9469
 IR Inten    --      1.8252                 0.2775                53.2235

                     31                     32                     33
                      A                      A                      A
 Frequencies --    922.8826               934.3571               996.9684
 Red. masses --      1.4763                 1.6493                 1.3567
 Frc consts  --      0.7408                 0.8484                 0.7945
 IR Inten    --     15.0385                37.4816                 5.1138

                     34                     35                     36
                      A                      A                      A
 Frequencies --    997.7009              1009.8480              1016.7390
 Red. masses --      1.6811                 1.2679                 4.9866
 Frc consts  --      0.9859                 0.7618                 3.0372
 IR Inten    --     66.0090                 0.8227                15.4853

                     37                     38                     39
                      A                      A                      A
 Frequencies --   1025.5882              1050.8577              1055.6694
 Red. masses --      1.2281                 1.4148                 1.9944
 Frc consts  --      0.7611                 0.9205                 1.3095
 IR Inten    --      4.8956                25.5049                15.4449

                     40                     41                     42
                      A                      A                      A
 Frequencies --   1059.8227              1072.6691              1111.2511
 Red. masses --      1.9369                 1.4677                 1.5931
 Frc consts  --      1.2818                 0.9950                 1.1591
 IR Inten    --     12.0679                57.8206                96.6632

                     43                     44                     45
                      A                      A                      A
 Frequencies --   1126.8768              1178.7863              1204.9423
 Red. masses --      2.0122                 1.1147                 1.1516
 Frc consts  --      1.5054                 0.9126                 0.9851
 IR Inten    --    315.2150                 5.6567                43.3056

                     46                     47                     48
                      A                      A                      A
 Frequencies --   1214.4382              1240.9771              1260.2629
 Red. masses --      1.2838                 1.2787                 1.5185
 Frc consts  --      1.1156                 1.1602                 1.4210
 IR Inten    --    100.4520               205.2711               190.2003

                     49                     50                     51
                      A                      A                      A
 Frequencies --   1280.3836              1341.8588              1351.0908
 Red. masses --      2.0966                 2.2161                 1.3402
 Frc consts  --      2.0251                 2.3510                 1.4415
 IR Inten    --     67.3230               288.9233                 6.8331

                     52                     53                     54
                      A                      A                      A
 Frequencies --   1357.6105              1374.5393              1397.0404
 Red. masses --      2.3242                 2.1429                 3.1078
 Frc consts  --      2.5239                 2.3854                 3.5737
 IR Inten    --    122.4013               168.4447               349.5694

                     55                     56                     57
                      A                      A                      A
 Frequencies --   1414.6379              1456.5182              1468.9846
 Red. masses --      1.3705                 1.1771                 1.3151
 Frc consts  --      1.6159                 1.4713                 1.6720
 IR Inten    --      0.7186                11.5099               128.4165

                     58                     59                     60
                      A                      A                      A
 Frequencies --   1472.0473              1494.5777              1500.1204
 Red. masses --      1.5158                 1.0397                 1.0725
 Frc consts  --      1.9352                 1.3683                 1.4221
 IR Inten    --    144.5504                26.5960                72.9458

                     61                     62                     63
                      A                      A                      A
 Frequencies --   1504.4998              1532.1722              1542.9378
 Red. masses --      1.0424                 1.6890                 2.5694
 Frc consts  --      1.3902                 2.3361                 3.6039
 IR Inten    --     14.6001                72.5153               423.0543

                     64                     65                     66
                      A                      A                      A
 Frequencies --   1565.7105              1641.2623              1646.9888
 Red. masses --      1.9436                 5.8844                 1.1094
 Frc consts  --      2.8072                 9.3391                 1.7730
 IR Inten    --    202.3870               808.8775                28.5009

                     67                     68                     69
                      A                      A                      A
 Frequencies --   1663.9102              1672.6736              3005.9701
 Red. masses --      3.0504                 5.9645                 1.0476
 Frc consts  --      4.9758                 9.8321                 5.5770
 IR Inten    --    362.9949               261.5964               126.7081

                     70                     71                     72
                      A                      A                      A
 Frequencies --   3063.1123              3074.0366              3102.7975
 Red. masses --      1.0877                 1.0326                 1.1011
 Frc consts  --      6.0129                 5.7492                 6.2459
 IR Inten    --     68.2151                25.1608                45.6588

                     73                     74                     75
                      A                      A                      A
 Frequencies --   3117.5055              3156.8525              3170.6925
 Red. masses --      1.0605                 1.1049                 1.1067
 Frc consts  --      6.0725                 6.4875                 6.5552
 IR Inten    --     60.8912                 5.2416                17.7374

                     76                     77                     78
                      A                      A                      A
 Frequencies --   3180.7301              3183.4481              3191.6642
 Red. masses --      1.0879                 1.1125                 1.0881
 Frc consts  --      6.4849                 6.6426                 6.5305
 IR Inten    --     18.6903                26.1434                 5.1889

                     79                     80                     81
                      A                      A                      A
 Frequencies --   3201.9830              3218.8025              3269.4623
 Red. masses --      1.0928                 1.0977                 1.0924
 Frc consts  --      6.6010                 6.7009                 6.8797
 IR Inten    --     33.9986                24.9072                 7.2834

                     82                     83                     84
                      A                      A                      A
 Frequencies --   3517.5464              3597.9265              3680.0841
 Red. masses --      1.0510                 1.0964                 1.0750
 Frc consts  --      7.6616                 8.3625                 8.5780
 IR Inten    --     45.0048                50.2233                29.2036

 - Thermochemistry -
 -------------------
 Temperature   298.150 Kelvin.  Pressure   1.00000 Atm.
 Atom     1 has atomic number  6 and mass  12.00000

 Molecular mass:   192.12626 amu.
 Principal axes and moments of inertia in atomic units:
                           1         2         3
     Eigenvalues --  1405.826284917.186375772.61184
           X            0.99999  -0.00475  -0.00091
           Y            0.00474   0.99999  -0.00225
           Z            0.00092   0.00225   1.00000
 This molecule is an asymmetric top.
 Rotational symmetry number  1.
 Warning -- assumption of classical behavior for rotation
           may cause significant error
 Rotational temperatures (Kelvin)      0.06161     0.01761     0.01500
 Rotational constants (GHZ):           1.28376     0.36703     0.31264
    1 imaginary frequencies ignored.
 Zero-point vibrational energy     677599.2 (Joules/Mol)
                                  161.95010 (Kcal/Mol)
 Warning -- explicit consideration of  20 degrees of freedom as
           vibrations may cause significant error
 Vibrational temperatures:     38.18    40.76    98.86   128.33   138.19
          (Kelvin)            192.00   219.62   247.29   308.60   336.95
                              368.45   449.38   462.83   529.77   611.23
                              654.47   709.75   750.21   759.84   856.63
                              912.82   927.11  1033.18  1058.88  1120.99
                             1124.53  1234.32  1235.15  1282.35  1327.82
                             1344.33  1434.42  1435.47  1452.95  1462.86
                             1475.59  1511.95  1518.87  1524.85  1543.33
                             1598.84  1621.32  1696.01  1733.64  1747.31
                             1785.49  1813.24  1842.19  1930.64  1943.92
                             1953.30  1977.66  2010.03  2035.35  2095.60
                             2113.54  2117.95  2150.36  2158.34  2164.64
                             2204.45  2219.94  2252.71  2361.41  2369.65
                             2394.00  2406.60  4324.92  4407.14  4422.85
                             4464.23  4485.40  4542.01  4561.92  4576.36
                             4580.27  4592.09  4606.94  4631.14  4704.03
                             5060.96  5176.61  5294.82

 Zero-point correction=                           0.258084 (Hartree/Particle)
 Thermal correction to Energy=                    0.272377
 Thermal correction to Enthalpy=                  0.273321
 Thermal correction to Gibbs Free Energy=         0.215268
 Sum of electronic and zero-point Energies=           -613.275592
 Sum of electronic and thermal Energies=              -613.261299
 Sum of electronic and thermal Enthalpies=            -613.260355
 Sum of electronic and thermal Free Energies=         -613.318408

                     E (Thermal)             CV                S
                      KCal/Mol        Cal/Mol-Kelvin    Cal/Mol-Kelvin
 Total                  170.919             52.820            122.182
 Electronic               0.000              0.000              0.000
 Translational            0.889              2.981             41.664
 Rotational               0.889              2.981             32.056
 Vibrational            169.141             46.858             48.461
 Vibration     1          0.593              1.984              6.073
 Vibration     2          0.593              1.984              5.943
 Vibration     3          0.598              1.969              4.190
 Vibration     4          0.602              1.957              3.678
 Vibration     5          0.603              1.952              3.533
 Vibration     6          0.613              1.920              2.896
 Vibration     7          0.619              1.900              2.639
 Vibration     8          0.626              1.877              2.415
 Vibration     9          0.644              1.819              2.005
 Vibration    10          0.654              1.789              1.847
 Vibration    11          0.666              1.753              1.688
 Vibration    12          0.701              1.650              1.350
 Vibration    13          0.707              1.632              1.302
 Vibration    14          0.741              1.538              1.087
 Vibration    15          0.787              1.416              0.876
 Vibration    16          0.813              1.350              0.781
 Vibration    17          0.849              1.265              0.675
 Vibration    18          0.876              1.203              0.607
 Vibration    19          0.883              1.188              0.591
 Vibration    20          0.953              1.042              0.458

 Optimization completed.
    -- Stationary point found.
 Normal termination of Gaussian 16 at Sat Mar 27 11:46:57 2021.
