 Gaussian 16, Revision A.03,
 Gaussian 16:  ES64L-G16RevA.03 25-Dec-2016

 ----------------------------------------------------------------------
 # wB97XD def2tzvp, opt=(ts, noeigen, calcfc, maxcycles=70, maxstep=5),
  freq=noraman, scrf=(iefpcm, solvent=water)
 ----------------------------------------------------------------------

 ------------------------
 2_iteration/TS-221-2.out
 ------------------------
 Symbolic Z-matrix:
 Charge =  0 Multiplicity = 1

 SCF Done:  E(RwB97XD) =  -652.843458955     A.U. after   15 cycles
 Optimization completed.
    -- Stationary point found.
 Normal termination of Gaussian 16 at Thu Feb 11 05:06:31 2021.

 ---------------------------------------------------------------------
 #N Geom=AllCheck Guess=TCheck SCRF=Check GenChk RwB97XD/def2TZVP Freq
 ---------------------------------------------------------------------

 Structure from the checkpoint file:  "/beegfs/scratch/user/q/tla25/Gau-76100.chk"
 ------------------------
 2_iteration/TS-221-2.out
 ------------------------
 Charge =  0 Multiplicity = 1

                         Standard orientation:
 ---------------------------------------------------------------------
 Center     Atomic      Atomic             Coordinates (Angstroms)
 Number     Number       Type             X           Y           Z
 ---------------------------------------------------------------------
      1          6           0        1.122370    0.344530    0.866350
      2          6           0        1.693720   -0.527329   -0.112290
      3          8           0        1.195820   -0.721820   -1.248580
      4          6           0       -0.143120    0.911490    0.618020
      5          6           0        1.021158    2.906390   -0.922630
      6          1           0        1.328618    3.240781   -1.913860
      7          1           0        0.661688    3.758740   -0.348360
      8          1           0        1.882049    2.471021   -0.413590
      9          7           0       -0.017941    1.891410   -0.990880
     10          1           0       -0.900131    2.254679   -1.328300
     11          1           0        0.270659    1.093070   -1.558600
     12          1           0       -0.373781    1.740530    1.284700
     13          6           0       -1.395430    0.134819    0.318350
     14          6           0       -1.420009   -1.255951    0.296710
     15          6           0       -2.605259   -1.942382    0.081610
     16          6           0       -3.794129   -1.250312   -0.103350
     17          6           0       -3.788770    0.136288   -0.060600
     18          6           0       -2.600340    0.817368    0.152770
     19          1           0       -0.501239   -1.801870    0.457800
     20          1           0       -2.600968   -3.025282    0.064990
     21          1           0       -4.719589   -1.787943   -0.267010
     22          1           0       -4.711380    0.689267   -0.184980
     23          1           0       -2.614491    1.900918    0.204300
     24          6           0        1.984110    0.887491    1.982830
     25          1           0        1.481449    1.717391    2.483110
     26          1           0        2.194100    0.144321    2.762760
     27          1           0        2.955719    1.258951    1.635050
     28          7           0        2.899471   -1.109939    0.184320
     29          6           0        3.527621   -2.051518   -0.709350
     30          1           0        3.186121   -1.126148    1.146060
     31          1           0        3.624981   -1.620738   -1.705620
     32          1           0        4.523001   -2.282628   -0.332840
     33          1           0        2.964392   -2.986109   -0.801520
 ---------------------------------------------------------------------

 SCF Done:  E(RwB97XD) =  -652.843458955     A.U. after    1 cycles

 The electronic state is 1-A.
 Alpha  occ. eigenvalues --  -19.18656 -14.47181 -14.43322 -10.35574 -10.33067
 Alpha  occ. eigenvalues --  -10.31069 -10.30064 -10.29838 -10.28957 -10.28889
 Alpha  occ. eigenvalues --  -10.28821 -10.28745 -10.28547 -10.26741 -10.24050
 Alpha  occ. eigenvalues --   -1.10832  -1.02938  -0.99806  -0.96629  -0.89658
 Alpha  occ. eigenvalues --   -0.85370  -0.84832  -0.79384  -0.78366  -0.76777
 Alpha  occ. eigenvalues --   -0.71563  -0.69894  -0.67674  -0.64711  -0.62293
 Alpha  occ. eigenvalues --   -0.61301  -0.57059  -0.56285  -0.54893  -0.54379
 Alpha  occ. eigenvalues --   -0.53390  -0.52985  -0.52059  -0.50866  -0.50302
 Alpha  occ. eigenvalues --   -0.48587  -0.47924  -0.47395  -0.46843  -0.46649
 Alpha  occ. eigenvalues --   -0.45279  -0.44900  -0.44263  -0.42403  -0.42149
 Alpha  occ. eigenvalues --   -0.41522  -0.34107  -0.33350  -0.32282  -0.31928
 Alpha  occ. eigenvalues --   -0.24631
 Alpha virt. eigenvalues --    0.03230   0.05561   0.09502   0.10469   0.12183
 Alpha virt. eigenvalues --    0.13408   0.14125   0.15212   0.15661   0.16604
 Alpha virt. eigenvalues --    0.17014   0.17375   0.17595   0.18750   0.19178

 Mulliken charges:
               1
     1  C   -0.284991
     2  C    0.357094
     3  O   -0.621203
     4  C    0.102981
     5  C   -0.280389
     6  H    0.148346
     7  H    0.146608
     8  H    0.150179
     9  N   -0.305902
    10  H    0.269195
    11  H    0.271044
    12  H    0.149548
    13  C    0.124537
    14  C   -0.198899
    15  C   -0.135775
    16  C   -0.156761
    17  C   -0.135487
    18  C   -0.310537
    19  H    0.157505
    20  H    0.139670
    21  H    0.142867
    22  H    0.141702
    23  H    0.156565
    24  C   -0.434339
    25  H    0.122298
    26  H    0.125455
    27  H    0.117367
    28  N   -0.329834
    29  C   -0.254395
    30  H    0.251826
    31  H    0.124098
    32  H    0.134377
    33  H    0.115250
 Sum of Mulliken charges =   0.00000

 Dipole moment (field-independent basis, Debye):
    X=             -0.5917    Y=              4.6508    Z=              0.7314  Tot=              4.7450
 Quadrupole moment (field-independent basis, Debye-Ang):
   XX=            -80.3423   YY=            -75.0279   ZZ=            -95.5054
   XY=             -4.0916   XZ=              5.6605   YZ=             -7.0661

  Exact polarizability: 271.150 -15.962 241.320  15.488  -1.203 176.797
 Approx polarizability: 203.241 -11.276 194.403  12.745  -0.550 152.864

 ******    1 imaginary frequencies (negative Signs) ******

                      1                      2                      3
                      A                      A                      A
 Frequencies --   -418.4107                44.1982                57.6571
 Red. masses --      5.5567                 3.8982                 3.4043
 Frc consts  --      0.5732                 0.0045                 0.0067
 IR Inten    --    831.4075                 0.4209                 6.0686

                      4                      5                      6
                      A                      A                      A
 Frequencies --     82.5878                89.2140               107.0223
 Red. masses --      2.9218                 3.1673                 2.3536
 Frc consts  --      0.0117                 0.0149                 0.0159
 IR Inten    --      2.1562                 7.8829                 6.4940

                      7                      8                      9
                      A                      A                      A
 Frequencies --    121.8234               138.8591               155.5752
 Red. masses --      2.0101                 1.5470                 2.8100
 Frc consts  --      0.0176                 0.0176                 0.0401
 IR Inten    --     16.6527                 9.0291                17.3938

                     10                     11                     12
                      A                      A                      A
 Frequencies --    170.0293               190.5635               202.4215
 Red. masses --      2.7105                 1.3619                 1.2205
 Frc consts  --      0.0462                 0.0291                 0.0295
 IR Inten    --     27.5009                 4.8543                 0.8117

                     13                     14                     15
                      A                      A                      A
 Frequencies --    231.3724               266.9849               278.0630
 Red. masses --      2.6037                 2.9850                 4.1089
 Frc consts  --      0.0821                 0.1254                 0.1872
 IR Inten    --     20.2939                 2.3589                26.6611

                     16                     17                     18
                      A                      A                      A
 Frequencies --    304.4710               340.7518               347.6385
 Red. masses --      3.5713                 3.5483                 3.1571
 Frc consts  --      0.1951                 0.2427                 0.2248
 IR Inten    --     12.4587                25.4130                62.0301

                     19                     20                     21
                      A                      A                      A
 Frequencies --    419.3759               425.2083               447.9886
 Red. masses --      2.1340                 2.8538                 1.8807
 Frc consts  --      0.2211                 0.3040                 0.2224
 IR Inten    --     45.7933                 3.6999                98.5086

                     22                     23                     24
                      A                      A                      A
 Frequencies --    536.4021               565.8145               608.6156
 Red. masses --      3.1509                 3.3763                 4.1846
 Frc consts  --      0.5341                 0.6368                 0.9133
 IR Inten    --     84.3594                20.2596                13.4110

                     25                     26                     27
                      A                      A                      A
 Frequencies --    640.1096               654.0476               724.4583
 Red. masses --      6.0354                 4.6141                 1.5761
 Frc consts  --      1.4570                 1.1629                 0.4874
 IR Inten    --      2.1977                38.0957                95.7242

                     28                     29                     30
                      A                      A                      A
 Frequencies --    746.8266               780.3061               798.1652
 Red. masses --      1.6986                 2.2446                 5.0956
 Frc consts  --      0.5582                 0.8052                 1.9126
 IR Inten    --     50.3188                49.5761                49.2748

                     31                     32                     33
                      A                      A                      A
 Frequencies --    846.7931               876.6411               878.0823
 Red. masses --      3.1480                 3.2919                 1.2568
 Frc consts  --      1.3299                 1.4905                 0.5709
 IR Inten    --      3.6155                12.6381                 0.6948

                     34                     35                     36
                      A                      A                      A
 Frequencies --    962.6677               995.6771              1013.2675
 Red. masses --      1.4413                 1.1231                 1.3669
 Frc consts  --      0.7870                 0.6560                 0.8269
 IR Inten    --      5.6748                85.1080                13.1478

                     37                     38                     39
                      A                      A                      A
 Frequencies --   1019.6095              1026.6884              1028.0398
 Red. masses --      1.5792                 2.1930                 2.0559
 Frc consts  --      0.9673                 1.3620                 1.2802
 IR Inten    --    117.8123                 0.3788                 6.1878

                     40                     41                     42
                      A                      A                      A
 Frequencies --   1058.5387              1063.1320              1067.6186
 Red. masses --      1.3082                 1.8407                 1.6481
 Frc consts  --      0.8636                 1.2258                 1.1068
 IR Inten    --     25.4300                18.0471                13.2980

                     43                     44                     45
                      A                      A                      A
 Frequencies --   1087.3739              1100.4672              1119.9485
 Red. masses --      2.5650                 3.1271                 1.6113
 Frc consts  --      1.7869                 2.2312                 1.1908
 IR Inten    --      1.4402                69.7293                 9.5320

                     46                     47                     48
                      A                      A                      A
 Frequencies --   1139.3103              1152.1639              1177.8874
 Red. masses --      1.1645                 1.2975                 1.6859
 Frc consts  --      0.8906                 1.0148                 1.3781
 IR Inten    --     73.6224                 9.6043                46.4500

                     49                     50                     51
                      A                      A                      A
 Frequencies --   1182.3515              1204.3239              1208.0681
 Red. masses --      1.1422                 2.4899                 1.2421
 Frc consts  --      0.9408                 2.1277                 1.0680
 IR Inten    --      0.1747                39.7234                23.1279

                     52                     53                     54
                      A                      A                      A
 Frequencies --   1214.3434              1230.0755              1280.4772
 Red. masses --      1.2874                 3.2361                 1.8516
 Frc consts  --      1.1185                 2.8849                 1.7887
 IR Inten    --     36.6381                13.2252               165.7063

                     55                     56                     57
                      A                      A                      A
 Frequencies --   1332.2024              1352.1368              1362.5320
 Red. masses --      4.5308                 1.3058                 1.4893
 Frc consts  --      4.7377                 1.4066                 1.6290
 IR Inten    --     70.0987                 8.9780                25.2625

                     58                     59                     60
                      A                      A                      A
 Frequencies --   1380.0459              1421.0013              1443.9371
 Red. masses --      2.1704                 1.3170                 1.4515
 Frc consts  --      2.4355                 1.5669                 1.7830
 IR Inten    --    377.7602               104.1274                34.3390

                     61                     62                     63
                      A                      A                      A
 Frequencies --   1452.4785              1462.8349              1477.0359
 Red. masses --      1.2539                 1.6019                 1.1421
 Frc consts  --      1.5586                 2.0197                 1.4681
 IR Inten    --     23.6274                62.8593                10.9060

                     64                     65                     66
                      A                      A                      A
 Frequencies --   1478.1539              1491.0523              1501.2002
 Red. masses --      1.0883                 1.0422                 2.0168
 Frc consts  --      1.4010                 1.3652                 2.6779
 IR Inten    --     53.9946                12.7833                50.6285

                     67                     68                     69
                      A                      A                      A
 Frequencies --   1504.1544              1505.8799              1513.0202
 Red. masses --      1.0818                 1.1243                 1.1189
 Frc consts  --      1.4421                 1.5021                 1.5091
 IR Inten    --      5.0500                26.4045               182.4059

                     70                     71                     72
                      A                      A                      A
 Frequencies --   1542.9356              1546.5133              1610.8938
 Red. masses --      2.0271                 2.0641                 3.5034
 Frc consts  --      2.8434                 2.9087                 5.3563
 IR Inten    --    390.6685               306.2215               399.5097

                     73                     74                     75
                      A                      A                      A
 Frequencies --   1650.1914              1654.3803              1675.1753
 Red. masses --      1.2589                 4.4780                 5.8565
 Frc consts  --      2.0198                 7.2212                 9.6830
 IR Inten    --     18.6483                 4.9278                 2.8773

                     76                     77                     78
                      A                      A                      A
 Frequencies --   2993.1777              3026.6074              3028.3639
 Red. masses --      1.0414                 1.0483                 1.1003
 Frc consts  --      5.4973                 5.6578                 5.9453
 IR Inten    --    159.2450               119.3812                71.9242

                     79                     80                     81
                      A                      A                      A
 Frequencies --   3061.3894              3105.0243              3105.8235
 Red. masses --      1.0327                 1.0951                 1.0874
 Frc consts  --      5.7023                 6.2205                 6.1801
 IR Inten    --     60.5144                39.6478                42.6571

                     82                     83                     84
                      A                      A                      A
 Frequencies --   3130.3963              3136.7916              3150.2140
 Red. masses --      1.0876                 1.1043                 1.1037
 Frc consts  --      6.2796                 6.4018                 6.4536
 IR Inten    --     35.2641                13.2860                29.1202

                     85                     86                     87
                      A                      A                      A
 Frequencies --   3155.7333              3178.1389              3194.8787
 Red. masses --      1.1054                 1.0887                 1.0871
 Frc consts  --      6.4862                 6.4792                 6.5379
 IR Inten    --     19.2415                15.0845                 0.2746

                     88                     89                     90
                      A                      A                      A
 Frequencies --   3205.0731              3218.4985              3233.2738
 Red. masses --      1.0922                 1.0972                 1.0932
 Frc consts  --      6.6106                 6.6961                 6.7333
 IR Inten    --     28.4683                28.8284                 9.8101

                     91                     92                     93
                      A                      A                      A
 Frequencies --   3420.4646              3595.0351              3678.1202
 Red. masses --      1.0631                 1.0859                 1.0773
 Frc consts  --      7.3281                 8.2687                 8.5869
 IR Inten    --     97.7409                74.1924                47.8543

 - Thermochemistry -
 -------------------
 Temperature   298.150 Kelvin.  Pressure   1.00000 Atm.
 Atom     1 has atomic number  6 and mass  12.00000

 Molecular mass:   206.14191 amu.
 Principal axes and moments of inertia in atomic units:
                           1         2         3
     Eigenvalues --  2060.073054427.028225409.01146
           X            0.99996  -0.00564   0.00650
           Y            0.00564   0.99998   0.00031
           Z           -0.00650  -0.00028   0.99998
 This molecule is an asymmetric top.
 Rotational symmetry number  1.
 Warning -- assumption of classical behavior for rotation
           may cause significant error
 Rotational temperatures (Kelvin)      0.04204     0.01956     0.01601
 Rotational constants (GHZ):           0.87606     0.40766     0.33365
    1 imaginary frequencies ignored.
 Zero-point vibrational energy     749968.0 (Joules/Mol)
                                  179.24665 (Kcal/Mol)
 Warning -- explicit consideration of  23 degrees of freedom as
           vibrations may cause significant error
 Vibrational temperatures:     63.59    82.96   118.83   128.36   153.98
          (Kelvin)            175.28   199.79   223.84   244.63   274.18
                              291.24   332.89   384.13   400.07   438.07
                              490.27   500.17   603.39   611.78   644.56
                              771.76   814.08   875.66   920.98   941.03
                             1042.33  1074.52  1122.69  1148.38  1218.35
                             1261.29  1263.36  1385.06  1432.56  1457.87
                             1466.99  1477.18  1479.12  1523.00  1529.61
                             1536.06  1564.49  1583.33  1611.36  1639.21
                             1657.71  1694.72  1701.14  1732.75  1738.14
                             1747.17  1769.80  1842.32  1916.74  1945.42
                             1960.38  1985.58  2044.50  2077.50  2089.79
                             2104.69  2125.13  2126.73  2145.29  2159.89
                             2164.14  2166.63  2176.90  2219.94  2225.09
                             2317.72  2374.26  2380.28  2410.20  4306.52
                             4354.61  4357.14  4404.66  4467.44  4468.59
                             4503.94  4513.14  4532.46  4540.40  4572.63
                             4596.72  4611.39  4630.70  4651.96  4921.29
                             5172.45  5291.99

 Zero-point correction=                           0.285648 (Hartree/Particle)
 Thermal correction to Energy=                    0.301535
 Thermal correction to Enthalpy=                  0.302479
 Thermal correction to Gibbs Free Energy=         0.242363
 Sum of electronic and zero-point Energies=           -652.557811
 Sum of electronic and thermal Energies=              -652.541924
 Sum of electronic and thermal Enthalpies=            -652.540980
 Sum of electronic and thermal Free Energies=         -652.601096

                     E (Thermal)             CV                S
                      KCal/Mol        Cal/Mol-Kelvin    Cal/Mol-Kelvin
 Total                  189.216             58.585            126.525
 Electronic               0.000              0.000              0.000
 Translational            0.889              2.981             41.874
 Rotational               0.889              2.981             32.267
 Vibrational            187.438             52.623             52.384
 Vibration     1          0.595              1.980              5.061
 Vibration     2          0.596              1.974              4.536
 Vibration     3          0.600              1.961              3.828
 Vibration     4          0.602              1.957              3.677
 Vibration     5          0.606              1.944              3.322
 Vibration     6          0.609              1.931              3.071
 Vibration     7          0.614              1.914              2.820
 Vibration     8          0.620              1.896              2.603
 Vibration     9          0.625              1.879              2.435
 Vibration    10          0.634              1.853              2.222
 Vibration    11          0.639              1.836              2.111
 Vibration    12          0.653              1.793              1.868
 Vibration    13          0.672              1.734              1.616
 Vibration    14          0.679              1.714              1.546
 Vibration    15          0.695              1.665              1.392
 Vibration    16          0.720              1.594              1.209
 Vibration    17          0.725              1.580              1.177
 Vibration    18          0.782              1.428              0.894
 Vibration    19          0.787              1.415              0.874
 Vibration    20          0.807              1.365              0.802
 Vibration    21          0.891              1.170              0.573
 Vibration    22          0.922              1.105              0.512
 Vibration    23          0.967              1.014              0.435

 Optimization completed.
    -- Stationary point found.
 Normal termination of Gaussian 16 at Thu Feb 11 06:17:10 2021.
