 Gaussian 16, Revision A.03,
 Gaussian 16:  ES64L-G16RevA.03 25-Dec-2016

 ----------------------------------------------------------------------
 # wB97XD def2tzvp, opt=(ts, noeigen, calcfc, maxcycles=70, maxstep=5),
  freq=noraman, scrf=(iefpcm, solvent=water)
 ----------------------------------------------------------------------

 ------------------------
 2_iteration/TS-207-2.out
 ------------------------
 Symbolic Z-matrix:
 Charge =  0 Multiplicity = 1

 SCF Done:  E(RwB97XD) =  -1036.32102646     A.U. after   14 cycles
 SCF Done:  E(RwB97XD) =  -1036.32102715     A.U. after   10 cycles
 SCF Done:  E(RwB97XD) =  -1036.32102716     A.U. after    7 cycles
 Optimization completed.
    -- Stationary point found.
 Normal termination of Gaussian 16 at Sun Apr 18 02:30:24 2021.

 ---------------------------------------------------------------------
 #N Geom=AllCheck Guess=TCheck SCRF=Check GenChk RwB97XD/def2TZVP Freq
 ---------------------------------------------------------------------

 Structure from the checkpoint file:  "/beegfs/scratch/user/q/tla25/Gau-334677.chk"
 ------------------------
 2_iteration/TS-207-2.out
 ------------------------
 Charge =  0 Multiplicity = 1

                         Standard orientation:
 ---------------------------------------------------------------------
 Center     Atomic      Atomic             Coordinates (Angstroms)
 Number     Number       Type             X           Y           Z
 ---------------------------------------------------------------------
      1          6           0       -1.317339    0.007318   -0.120897
      2          6           0       -0.330366   -1.063577   -0.128632
      3          8           0       -0.573468   -2.230094    0.193306
      4          6           0       -1.021790    1.346614    0.287057
      5          6           0       -1.001702    0.298279    2.809540
      6          1           0       -1.235721    0.445053    3.861996
      7          1           0       -1.647560   -0.466416    2.384436
      8          1           0        0.031096   -0.026120    2.705569
      9          7           0       -1.203931    1.543589    2.064744
     10          1           0       -2.144631    1.887452    2.221806
     11          1           0       -0.574731    2.274443    2.380823
     12          1           0       -1.823214    2.030802    0.020687
     13          6           0        0.288098    2.032974   -0.007285
     14          6           0        1.408871    1.990715    0.816891
     15          6           0        2.583141    2.631039    0.450953
     16          6           0        2.659596    3.320909   -0.748931
     17          6           0        1.549023    3.370283   -1.578938
     18          6           0        0.373294    2.737507   -1.206752
     19          1           0        1.396934    1.426981    1.740645
     20          1           0        3.444319    2.578099    1.104396
     21          1           0        3.578168    3.815943   -1.035932
     22          1           0        1.593908    3.907868   -2.517399
     23          1           0       -0.490823    2.780259   -1.859185
     24          6           0       -2.731070   -0.358762   -0.289687
     25          6           0       -3.110315   -1.492245   -1.036074
     26          6           0       -4.434764   -1.819641   -1.253482
     27          6           0       -5.460273   -1.031817   -0.739911
     28          6           0       -5.119360    0.091122   -0.006490
     29          6           0       -3.787420    0.415224    0.218232
     30          1           0       -2.341220   -2.123695   -1.457970
     31          1           0       -4.671832   -2.699249   -1.840872
     32          1           0       -6.497545   -1.289869   -0.910956
     33          1           0       -5.893313    0.726060    0.408432
     34          1           0       -3.593570    1.304512    0.803218
     35          7           0        0.943577   -0.726946   -0.559648
     36          6           0        2.159583   -1.361622   -0.320002
     37          6           0        2.300829   -2.544667    0.408891
     38          6           0        3.564292   -3.079841    0.617696
     39          6           0        4.700442   -2.467126    0.111744
     40          6           0        4.560356   -1.291287   -0.614309
     41          6           0        3.308726   -0.744062   -0.827567
     42          1           0        1.026347    0.169358   -1.005355
     43          1           0        1.424003   -3.035132    0.799152
     44          1           0        3.654562   -3.997152    1.187011
     45          1           0        5.679368   -2.897186    0.278770
     46          1           0        5.432871   -0.792000   -1.017328
     47          1           0        3.211704    0.180232   -1.386350
 ---------------------------------------------------------------------

 SCF Done:  E(RwB97XD) =  -1036.32102716     A.U. after    1 cycles

 The electronic state is 1-A.
 Alpha  occ. eigenvalues --  -19.19971 -14.50919 -14.45379 -10.37819 -10.35029
 Alpha  occ. eigenvalues --  -10.33431 -10.32407 -10.31399 -10.29952 -10.29770
 Alpha  occ. eigenvalues --  -10.29696 -10.29681 -10.29523 -10.29449 -10.28850
 Alpha  occ. eigenvalues --  -10.28714 -10.28520 -10.28129 -10.28004 -10.27958
 Alpha  occ. eigenvalues --  -10.27937 -10.27737 -10.27402 -10.27203 -10.25730
 Alpha  occ. eigenvalues --   -1.12827  -1.06268  -1.03314  -0.97833  -0.95626
 Alpha  occ. eigenvalues --   -0.95079  -0.90703  -0.86648  -0.85959  -0.84866
 Alpha  occ. eigenvalues --   -0.84449  -0.83923  -0.81474  -0.80196  -0.75379
 Alpha  occ. eigenvalues --   -0.72293  -0.71543  -0.71095  -0.69902  -0.68381
 Alpha  occ. eigenvalues --   -0.67160  -0.65541  -0.64241  -0.62388  -0.61080
 Alpha  occ. eigenvalues --   -0.60616  -0.58999  -0.57656  -0.57398  -0.55932
 Alpha  occ. eigenvalues --   -0.55656  -0.54097  -0.53582  -0.53345  -0.52386
 Alpha  occ. eigenvalues --   -0.52141  -0.51700  -0.51516  -0.50592  -0.50462
 Alpha  occ. eigenvalues --   -0.49383  -0.49298  -0.48753  -0.48429  -0.46399
 Alpha  occ. eigenvalues --   -0.46162  -0.45661  -0.45270  -0.44359  -0.43755
 Alpha  occ. eigenvalues --   -0.42904  -0.42493  -0.42016  -0.41281  -0.39198
 Alpha  occ. eigenvalues --   -0.35229  -0.34669  -0.34105  -0.33471  -0.33270
 Alpha  occ. eigenvalues --   -0.32410  -0.29344  -0.24452
 Alpha virt. eigenvalues --    0.03530   0.04314   0.04635   0.05568   0.06323
 Alpha virt. eigenvalues --    0.07052   0.09636   0.10183   0.11908   0.12943
 Alpha virt. eigenvalues --    0.13582   0.13949   0.14332   0.14626   0.15768

 Mulliken charges:
               1
     1  C   -0.240000
     2  C    0.289815
     3  O   -0.522630
     4  C    0.054498
     5  C   -0.294929
     6  H    0.173623
     7  H    0.162731
     8  H    0.157872
     9  N   -0.247253
    10  H    0.285067
    11  H    0.298522
    12  H    0.192767
    13  C    0.069434
    14  C   -0.249300
    15  C   -0.151207
    16  C   -0.146569
    17  C   -0.119380
    18  C   -0.272674
    19  H    0.153703
    20  H    0.144533
    21  H    0.146299
    22  H    0.146292
    23  H    0.144752
    24  C    0.221332
    25  C   -0.274277
    26  C   -0.134065
    27  C   -0.189884
    28  C   -0.177404
    29  C   -0.279987
    30  H    0.128461
    31  H    0.131991
    32  H    0.134023
    33  H    0.132789
    34  H    0.109265
    35  N   -0.196244
    36  C    0.294640
    37  C   -0.315432
    38  C   -0.106068
    39  C   -0.200401
    40  C   -0.107610
    41  C   -0.316617
    42  H    0.241324
    43  H    0.151722
    44  H    0.139333
    45  H    0.137997
    46  H    0.139485
    47  H    0.159658
 Sum of Mulliken charges =  -0.00000

 Dipole moment (field-independent basis, Debye):
    X=              1.8436    Y=             10.9306    Z=              5.6351  Tot=             12.4351
 Quadrupole moment (field-independent basis, Debye-Ang):
   XX=           -144.4543   YY=           -146.1463   ZZ=           -130.5393
   XY=             -5.1579   XZ=             -9.2807   YZ=              5.3557

  Exact polarizability: 520.290  17.657 371.820   9.862  -9.234 310.381
 Approx polarizability: 376.129  10.671 305.170   5.181 -10.263 267.953

 ******    1 imaginary frequencies (negative Signs) ******

                      1                      2                      3
                      A                      A                      A
 Frequencies --   -310.5347                16.0385                28.3974
 Red. masses --      5.9576                 4.5851                 4.8337
 Frc consts  --      0.3385                 0.0007                 0.0023
 IR Inten    --    713.3053                 1.3778                 0.8658

                      4                      5                      6
                      A                      A                      A
 Frequencies --     44.4955                46.8047                57.8891
 Red. masses --      4.5297                 3.9458                 4.1770
 Frc consts  --      0.0053                 0.0051                 0.0082
 IR Inten    --      0.2025                 1.2521                 1.8294

                      7                      8                      9
                      A                      A                      A
 Frequencies --     68.3913                90.2217                97.3350
 Red. masses --      3.9510                 4.7283                 4.7678
 Frc consts  --      0.0109                 0.0227                 0.0266
 IR Inten    --      3.8613                10.4239                 2.5457

                     10                     11                     12
                      A                      A                      A
 Frequencies --    103.3136               130.7655               144.2784
 Red. masses --      2.5540                 4.3472                 1.8994
 Frc consts  --      0.0161                 0.0438                 0.0233
 IR Inten    --      5.8968                 3.5516                 5.8227

                     13                     14                     15
                      A                      A                      A
 Frequencies --    160.4491               186.4924               213.0642
 Red. masses --      2.6244                 2.9140                 4.1169
 Frc consts  --      0.0398                 0.0597                 0.1101
 IR Inten    --      5.6576                 3.4799                 2.1729

                     16                     17                     18
                      A                      A                      A
 Frequencies --    234.5365               251.0114               273.5763
 Red. masses --      3.3446                 5.3098                 4.4070
 Frc consts  --      0.1084                 0.1971                 0.1943
 IR Inten    --     23.1952                 4.7508                 5.4636

                     19                     20                     21
                      A                      A                      A
 Frequencies --    278.9407               314.1984               322.9233
 Red. masses --      4.9291                 2.9694                 5.5812
 Frc consts  --      0.2260                 0.1727                 0.3429
 IR Inten    --      8.0981                22.8529                17.2503

                     22                     23                     24
                      A                      A                      A
 Frequencies --    361.2444               396.6806               419.0253
 Red. masses --      6.9088                 4.8390                 2.9031
 Frc consts  --      0.5312                 0.4486                 0.3003
 IR Inten    --      2.2052                42.1686                 1.8204

                     25                     26                     27
                      A                      A                      A
 Frequencies --    424.3051               426.7617               495.4259
 Red. masses --      2.9168                 3.0174                 3.9647
 Frc consts  --      0.3094                 0.3238                 0.5733
 IR Inten    --      1.2050                 0.3984                25.1836

                     28                     29                     30
                      A                      A                      A
 Frequencies --    529.9735               540.7001               544.1760
 Red. masses --      2.9478                 4.7895                 3.1513
 Frc consts  --      0.4878                 0.8250                 0.5498
 IR Inten    --     19.3253                19.9352                26.8503

                     31                     32                     33
                      A                      A                      A
 Frequencies --    581.4464               595.1653               620.9763
 Red. masses --      1.3476                 3.2046                 3.5027
 Frc consts  --      0.2684                 0.6688                 0.7958
 IR Inten    --     63.1531                74.0244                72.9620

                     34                     35                     36
                      A                      A                      A
 Frequencies --    633.6474               637.9793               640.9447
 Red. masses --      6.2518                 6.2306                 5.2759
 Frc consts  --      1.4789                 1.4941                 1.2770
 IR Inten    --      3.8856                12.4803                19.0440

                     37                     38                     39
                      A                      A                      A
 Frequencies --    670.1449               685.0815               717.8086
 Red. masses --      4.4448                 3.6623                 1.8024
 Frc consts  --      1.1761                 1.0127                 0.5472
 IR Inten    --     19.8977                63.0856                71.7123

                     40                     41                     42
                      A                      A                      A
 Frequencies --    718.2084               723.3294               732.7840
 Red. masses --      1.7453                 1.8920                 1.6761
 Frc consts  --      0.5304                 0.5832                 0.5303
 IR Inten    --     66.6805                49.5448               125.2285

                     43                     44                     45
                      A                      A                      A
 Frequencies --    775.2505               783.0424               788.2435
 Red. masses --      3.8658                 1.8194                 3.1252
 Frc consts  --      1.3689                 0.6573                 1.1440
 IR Inten    --     37.5306                82.0986                78.7211

                     46                     47                     48
                      A                      A                      A
 Frequencies --    795.3142               849.2713               852.9789
 Red. masses --      2.2953                 4.3926                 1.3435
 Frc consts  --      0.8554                 1.8667                 0.5759
 IR Inten    --     59.7109                38.4303                 2.6359

                     49                     50                     51
                      A                      A                      A
 Frequencies --    866.7145               869.8981               879.0433
 Red. masses --      1.3215                 2.6188                 1.3310
 Frc consts  --      0.5849                 1.1676                 0.6060
 IR Inten    --      0.6032                10.7643                 0.8479

                     52                     53                     54
                      A                      A                      A
 Frequencies --    901.5418               918.9495               933.1903
 Red. masses --      5.0466                 1.5712                 1.4747
 Frc consts  --      2.4167                 0.7817                 0.7566
 IR Inten    --     15.9642                 9.5307                18.1219

                     55                     56                     57
                      A                      A                      A
 Frequencies --    959.2850               995.3394              1004.0150
 Red. masses --      1.5075                 1.3485                 1.4646
 Frc consts  --      0.8174                 0.7871                 0.8699
 IR Inten    --      3.8289                 0.2974                 4.0110

                     58                     59                     60
                      A                      A                      A
 Frequencies --   1004.4392              1009.5743              1014.2730
 Red. masses --      2.6252                 1.3162                 1.3171
 Frc consts  --      1.5605                 0.7904                 0.7983
 IR Inten    --     33.0439                 0.8806                 2.9195

                     61                     62                     63
                      A                      A                      A
 Frequencies --   1015.0817              1015.5782              1019.3155
 Red. masses --      1.7434                 2.8666                 5.0498
 Frc consts  --      1.0584                 1.7420                 3.0913
 IR Inten    --      5.1419                10.9745                 8.6096

                     64                     65                     66
                      A                      A                      A
 Frequencies --   1025.6829              1031.1456              1034.5761
 Red. masses --      3.4360                 1.8014                 1.3191
 Frc consts  --      2.1298                 1.1285                 0.8318
 IR Inten    --     10.7315                17.6917                 0.3667

                     67                     68                     69
                      A                      A                      A
 Frequencies --   1051.7547              1061.6954              1066.3053
 Red. masses --      2.8211                 2.1358                 2.0950
 Frc consts  --      1.8386                 1.4184                 1.4035
 IR Inten    --     36.4246                17.0740                23.6564

                     70                     71                     72
                      A                      A                      A
 Frequencies --   1067.8822              1083.7446              1119.3991
 Red. masses --      2.0396                 1.2101                 1.5895
 Frc consts  --      1.3704                 0.8374                 1.1735
 IR Inten    --     10.1077               101.1392                 8.3366

                     73                     74                     75
                      A                      A                      A
 Frequencies --   1119.7366              1122.3120              1180.5489
 Red. masses --      1.5555                 1.5773                 1.1986
 Frc consts  --      1.1491                 1.1705                 0.9842
 IR Inten    --     16.4860                13.8628                15.1486

                     76                     77                     78
                      A                      A                      A
 Frequencies --   1181.2004              1186.3557              1188.3872
 Red. masses --      1.1137                 1.1432                 2.5351
 Frc consts  --      0.9155                 0.9479                 2.1094
 IR Inten    --      3.6821                 0.9851               203.8953

                     79                     80                     81
                      A                      A                      A
 Frequencies --   1209.1374              1217.9634              1219.5180
 Red. masses --      1.2048                 1.1846                 1.1954
 Frc consts  --      1.0378                 1.0353                 1.0475
 IR Inten    --     20.4596                23.0898                 8.0823

                     82                     83                     84
                      A                      A                      A
 Frequencies --   1231.8906              1254.7162              1271.6952
 Red. masses --      2.0609                 1.6245                 1.9510
 Frc consts  --      1.8426                 1.5068                 1.8590
 IR Inten    --    212.2272               361.0478               338.6328

                     85                     86                     87
                      A                      A                      A
 Frequencies --   1277.9387              1285.5539              1307.6032
 Red. masses --      1.5955                 2.0033                 3.6151
 Frc consts  --      1.5352                 1.9507                 3.6418
 IR Inten    --     64.5715                61.1892                82.4274

                     88                     89                     90
                      A                      A                      A
 Frequencies --   1335.6018              1344.1078              1345.9936
 Red. masses --      3.4639                 2.8075                 3.4595
 Frc consts  --      3.6406                 2.9884                 3.6928
 IR Inten    --     84.2391               264.1449               255.0056

                     91                     92                     93
                      A                      A                      A
 Frequencies --   1352.4301              1362.7017              1367.2985
 Red. masses --      1.3927                 1.7882                 1.4203
 Frc consts  --      1.5009                 1.9565                 1.5645
 IR Inten    --     11.7840                 5.5387                37.9334

                     94                     95                     96
                      A                      A                      A
 Frequencies --   1378.9469              1435.9624              1464.4884
 Red. masses --      1.5975                 2.0767                 1.1926
 Frc consts  --      1.7897                 2.5230                 1.5070
 IR Inten    --    146.3546               170.7962                14.1200

                     97                     98                     99
                      A                      A                      A
 Frequencies --   1472.4072              1488.1470              1493.6383
 Red. masses --      2.0430                 2.3504                 1.0433
 Frc consts  --      2.6097                 3.0667                 1.3713
 IR Inten    --    406.2653                 5.4500                26.0886

                    100                    101                    102
                      A                      A                      A
 Frequencies --   1496.9147              1500.9531              1536.9255
 Red. masses --      1.7076                 1.2234                 2.1787
 Frc consts  --      2.2544                 1.6238                 3.0322
 IR Inten    --     13.4785                 5.5778               490.4712

                    103                    104                    105
                      A                      A                      A
 Frequencies --   1545.1011              1548.2614              1555.9018
 Red. masses --      2.4589                 2.3043                 2.0442
 Frc consts  --      3.4586                 3.2545                 2.9156
 IR Inten    --    216.8872                10.5229               277.9569

                    106                    107                    108
                      A                      A                      A
 Frequencies --   1630.4938              1644.2784              1648.3865
 Red. masses --      4.6790                 1.1208                 6.6697
 Frc consts  --      7.3289                 1.7853                10.6776
 IR Inten    --      7.1616               136.9623               377.9825

                    109                    110                    111
                      A                      A                      A
 Frequencies --   1653.4657              1658.1826              1669.4525
 Red. masses --      5.6075                 4.7878                 5.0701
 Frc consts  --      9.0326                 7.7562                 8.3255
 IR Inten    --      1.0830               123.9710               228.2651

                    112                    113                    114
                      A                      A                      A
 Frequencies --   1677.1108              1679.3402              3088.2309
 Red. masses --      5.8913                 6.1708                 1.0327
 Frc consts  --      9.7630                10.2535                 5.8026
 IR Inten    --     68.1386               311.0300                18.2774

                    115                    116                    117
                      A                      A                      A
 Frequencies --   3136.5972              3177.4267              3182.9119
 Red. masses --      1.0866                 1.1065                 1.1055
 Frc consts  --      6.2984                 6.5818                 6.5987
 IR Inten    --     14.0278                10.1468                 7.7227

                    118                    119                    120
                      A                      A                      A
 Frequencies --   3183.9879              3185.9622              3190.0435
 Red. masses --      1.0855                 1.0874                 1.0891
 Frc consts  --      6.4834                 6.5032                 6.5301
 IR Inten    --     16.8452                13.6867                14.8046

                    121                    122                    123
                      A                      A                      A
 Frequencies --   3194.0083              3194.3248              3202.1708
 Red. masses --      1.0880                 1.0883                 1.0873
 Frc consts  --      6.5397                 6.5430                 6.5690
 IR Inten    --      4.9709                 4.1905                 0.6716

                    124                    125                    126
                      A                      A                      A
 Frequencies --   3204.5670              3208.8317              3210.2059
 Red. masses --      1.0930                 1.0913                 1.0911
 Frc consts  --      6.6131                 6.6205                 6.6248
 IR Inten    --     30.9514                65.6919                 8.8536

                    127                    128                    129
                      A                      A                      A
 Frequencies --   3217.0194              3218.2483              3220.3367
 Red. masses --      1.0949                 1.0946                 1.0978
 Frc consts  --      6.6761                 6.6797                 6.7075
 IR Inten    --     38.4930                32.8173                24.6310

                    130                    131                    132
                      A                      A                      A
 Frequencies --   3227.0240              3227.2546              3263.7397
 Red. masses --      1.0933                 1.0986                 1.0925
 Frc consts  --      6.7081                 6.7413                 6.8565
 IR Inten    --     11.1796                12.6316                 3.0212

                    133                    134                    135
                      A                      A                      A
 Frequencies --   3519.3148              3590.5583              3654.4803
 Red. masses --      1.0523                 1.0945                 1.0765
 Frc consts  --      7.6793                 8.3137                 8.4708
 IR Inten    --     47.1295                65.3878               121.8082

 - Thermochemistry -
 -------------------
 Temperature   298.150 Kelvin.  Pressure   1.00000 Atm.
 Atom     1 has atomic number  6 and mass  12.00000

 Molecular mass:   330.17321 amu.
 Principal axes and moments of inertia in atomic units:
                           1         2         3
     Eigenvalues --  5554.20091********************
           X            1.00000  -0.00088  -0.00275
           Y            0.00088   1.00000  -0.00039
           Z            0.00275   0.00039   1.00000
 This molecule is an asymmetric top.
 Rotational symmetry number  1.
 Warning -- assumption of classical behavior for rotation
           may cause significant error
 Rotational temperatures (Kelvin)      0.01559     0.00779     0.00612
 Rotational constants (GHZ):           0.32493     0.16241     0.12760
    1 imaginary frequencies ignored.
 Zero-point vibrational energy    1034708.5 (Joules/Mol)
                                  247.30127 (Kcal/Mol)
 Warning -- explicit consideration of  31 degrees of freedom as
           vibrations may cause significant error
 Vibrational temperatures:     23.08    40.86    64.02    67.34    83.29
          (Kelvin)             98.40   129.81   140.04   148.65   188.14
                              207.58   230.85   268.32   306.55   337.45
                              361.15   393.62   401.33   452.06   464.61
                              519.75   570.73   602.88   610.48   614.01
                              712.81   762.51   777.95   782.95   836.57
                              856.31   893.45   911.68   917.91   922.18
                              964.19   985.68  1032.77  1033.34  1040.71
                             1054.31  1115.41  1126.62  1134.11  1144.28
                             1221.91  1227.25  1247.01  1251.59  1264.75
                             1297.12  1322.16  1342.65  1380.20  1432.07
                             1444.55  1445.16  1452.55  1459.31  1460.48
                             1461.19  1466.57  1475.73  1483.59  1488.52
                             1513.24  1527.54  1534.18  1536.44  1559.27
                             1610.57  1611.05  1614.76  1698.55  1699.48
                             1706.90  1709.82  1739.68  1752.38  1754.61
                             1772.42  1805.26  1829.69  1838.67  1849.63
                             1881.35  1921.63  1933.87  1936.58  1945.85
                             1960.62  1967.24  1984.00  2066.03  2107.07
                             2118.47  2141.11  2149.01  2153.73  2159.54
                             2211.29  2223.06  2227.60  2238.60  2345.92
                             2365.75  2371.66  2378.97  2385.75  2401.97
                             2412.99  2416.20  4443.28  4512.86  4571.61
                             4579.50  4581.05  4583.89  4589.76  4595.47
                             4595.92  4607.21  4610.66  4616.79  4618.77
                             4628.57  4630.34  4633.35  4642.97  4643.30
                             4695.79  5063.51  5166.01  5257.98

 Zero-point correction=                           0.394100 (Hartree/Particle)
 Thermal correction to Energy=                    0.415681
 Thermal correction to Enthalpy=                  0.416625
 Thermal correction to Gibbs Free Energy=         0.341353
 Sum of electronic and zero-point Energies=          -1035.926928
 Sum of electronic and thermal Energies=             -1035.905346
 Sum of electronic and thermal Enthalpies=           -1035.904402
 Sum of electronic and thermal Free Energies=        -1035.979675

                     E (Thermal)             CV                S
                      KCal/Mol        Cal/Mol-Kelvin    Cal/Mol-Kelvin
 Total                  260.844             84.316            158.424
 Electronic               0.000              0.000              0.000
 Translational            0.889              2.981             43.278
 Rotational               0.889              2.981             35.122
 Vibrational            259.066             78.355             80.024
 Vibration     1          0.593              1.986              7.073
 Vibration     2          0.593              1.984              5.938
 Vibration     3          0.595              1.980              5.048
 Vibration     4          0.595              1.979              4.948
 Vibration     5          0.596              1.974              4.528
 Vibration     6          0.598              1.969              4.199
 Vibration     7          0.602              1.956              3.655
 Vibration     8          0.603              1.951              3.507
 Vibration     9          0.605              1.947              3.391
 Vibration    10          0.612              1.923              2.935
 Vibration    11          0.616              1.909              2.746
 Vibration    12          0.622              1.891              2.544
 Vibration    13          0.632              1.858              2.262
 Vibration    14          0.644              1.821              2.017
 Vibration    15          0.654              1.788              1.844
 Vibration    16          0.663              1.761              1.723
 Vibration    17          0.676              1.722              1.574
 Vibration    18          0.679              1.712              1.540
 Vibration    19          0.702              1.647              1.340
 Vibration    20          0.708              1.630              1.295
 Vibration    21          0.735              1.552              1.117
 Vibration    22          0.763              1.477              0.975
 Vibration    23          0.782              1.429              0.895
 Vibration    24          0.786              1.417              0.877
 Vibration    25          0.788              1.412              0.869
 Vibration    26          0.851              1.260              0.670
 Vibration    27          0.885              1.184              0.587
 Vibration    28          0.896              1.160              0.564
 Vibration    29          0.899              1.152              0.556
 Vibration    30          0.938              1.071              0.483
 Vibration    31          0.953              1.042              0.458

 Optimization completed.
    -- Stationary point found.
 Normal termination of Gaussian 16 at Sun Apr 18 04:38:32 2021.
