 Gaussian 16, Revision A.03,
 Gaussian 16:  ES64L-G16RevA.03 25-Dec-2016

 ----------------------------------------------------------------------
 # wB97XD def2tzvp, opt=(ts, noeigen, calcfc, maxcycles=70, maxstep=8),
  freq=noraman, scrf=(iefpcm, solvent=water)
 ----------------------------------------------------------------------

 ------------------------
 1_iteration/TS-285-1.out
 ------------------------
 Symbolic Z-matrix:
 Charge =  0 Multiplicity = 1

 SCF Done:  E(RwB97XD) =  -652.850907888     A.U. after   14 cycles
 SCF Done:  E(RwB97XD) =  -652.851062795     A.U. after   12 cycles
 SCF Done:  E(RwB97XD) =  -652.851062531     A.U. after   12 cycles
 SCF Done:  E(RwB97XD) =  -652.851060345     A.U. after   12 cycles
 SCF Done:  E(RwB97XD) =  -652.851072601     A.U. after   10 cycles
 SCF Done:  E(RwB97XD) =  -652.851073048     A.U. after   10 cycles
 SCF Done:  E(RwB97XD) =  -652.851067545     A.U. after   10 cycles
 SCF Done:  E(RwB97XD) =  -652.851073879     A.U. after   10 cycles
 SCF Done:  E(RwB97XD) =  -652.851073683     A.U. after    9 cycles
 SCF Done:  E(RwB97XD) =  -652.851073914     A.U. after    9 cycles
 SCF Done:  E(RwB97XD) =  -652.851073942     A.U. after    7 cycles
 Optimization completed.
    -- Stationary point found.
 Normal termination of Gaussian 16 at Wed Feb 10 17:50:53 2021.

 ---------------------------------------------------------------------
 #N Geom=AllCheck Guess=TCheck SCRF=Check GenChk RwB97XD/def2TZVP Freq
 ---------------------------------------------------------------------

 Structure from the checkpoint file:  "/beegfs/scratch/user/q/tla25/Gau-30299.chk"
 ------------------------
 1_iteration/TS-285-1.out
 ------------------------
 Charge =  0 Multiplicity = 1

                         Standard orientation:
 ---------------------------------------------------------------------
 Center     Atomic      Atomic             Coordinates (Angstroms)
 Number     Number       Type             X           Y           Z
 ---------------------------------------------------------------------
      1          6           0        0.318957    0.059953    0.431048
      2          6           0        0.860523    1.377731    0.148947
      3          8           0        2.035195    1.566960   -0.227333
      4          6           0        1.219014   -0.992645    0.680535
      5          6           0        3.025494   -2.446202   -1.184546
      6          1           0        3.292555   -2.583647   -2.234073
      7          1           0        3.922376   -2.179214   -0.629767
      8          1           0        2.636527   -3.385422   -0.792523
      9          7           0        2.021357   -1.400453   -1.011772
     10          1           0        2.377386   -0.469394   -1.212240
     11          1           0        1.208899   -1.557393   -1.594624
     12          1           0        0.740601   -1.957765    0.819976
     13          6           0        2.453356   -0.852670    1.531493
     14          1           0        2.132485   -0.756394    2.571165
     15          1           0        3.087660   -1.736655    1.468122
     16          1           0        3.029479    0.029444    1.265342
     17          6           0       -1.102306   -0.258763    0.199835
     18          6           0       -1.848985    0.328972   -0.834503
     19          6           0       -3.175032   -0.004824   -1.058655
     20          6           0       -3.807760   -0.955749   -0.269167
     21          6           0       -3.090184   -1.557524    0.755178
     22          6           0       -1.770336   -1.205870    0.991355
     23          1           0       -1.373069    1.052298   -1.485555
     24          1           0       -3.713490    0.470613   -1.870069
     25          1           0       -4.842145   -1.220759   -0.447639
     26          1           0       -3.566842   -2.294985    1.390229
     27          1           0       -1.245733   -1.664126    1.821687
     28          7           0        0.042467    2.453238    0.312113
     29          6           0        0.413016    3.781106   -0.110096
     30          1           0       -0.900034    2.294042    0.616543
     31          1           0       -0.426432    4.450072    0.069531
     32          1           0        1.276171    4.151921    0.446138
     33          1           0        0.660742    3.811099   -1.174517
 ---------------------------------------------------------------------

 SCF Done:  E(RwB97XD) =  -652.851073942     A.U. after    1 cycles

 The electronic state is 1-A.
 Alpha  occ. eigenvalues --  -19.19284 -14.46929 -14.43757 -10.36493 -10.32884
 Alpha  occ. eigenvalues --  -10.31337 -10.30353 -10.29461 -10.28287 -10.28284
 Alpha  occ. eigenvalues --  -10.27800 -10.27712 -10.27695 -10.26981 -10.24529
 Alpha  occ. eigenvalues --   -1.11654  -1.02566  -1.00410  -0.95766  -0.89884
 Alpha  occ. eigenvalues --   -0.84815  -0.84090  -0.80754  -0.78721  -0.76582
 Alpha  occ. eigenvalues --   -0.70209  -0.68779  -0.67763  -0.65109  -0.62026
 Alpha  occ. eigenvalues --   -0.60954  -0.57688  -0.55649  -0.55049  -0.54704
 Alpha  occ. eigenvalues --   -0.53269  -0.52839  -0.52243  -0.51677  -0.49863
 Alpha  occ. eigenvalues --   -0.48810  -0.48524  -0.47586  -0.46926  -0.46602
 Alpha  occ. eigenvalues --   -0.45468  -0.44928  -0.44208  -0.41957  -0.41503
 Alpha  occ. eigenvalues --   -0.40277  -0.34745  -0.33344  -0.32646  -0.32453
 Alpha  occ. eigenvalues --   -0.24292
 Alpha virt. eigenvalues --    0.05469   0.05887   0.07655   0.10355   0.12459
 Alpha virt. eigenvalues --    0.13749   0.13888   0.14544   0.15535   0.15720
 Alpha virt. eigenvalues --    0.16693   0.17540   0.18137   0.18634   0.18757

 Mulliken charges:
               1
     1  C   -0.164715
     2  C    0.358210
     3  O   -0.588249
     4  C    0.003080
     5  C   -0.292491
     6  H    0.147596
     7  H    0.154163
     8  H    0.150006
     9  N   -0.317081
    10  H    0.265759
    11  H    0.273687
    12  H    0.137251
    13  C   -0.389385
    14  H    0.132378
    15  H    0.132880
    16  H    0.145958
    17  C    0.118876
    18  C   -0.299861
    19  C   -0.137084
    20  C   -0.177302
    21  C   -0.141533
    22  C   -0.280091
    23  H    0.151415
    24  H    0.135084
    25  H    0.137284
    26  H    0.134856
    27  H    0.144391
    28  N   -0.324981
    29  C   -0.250246
    30  H    0.259830
    31  H    0.137632
    32  H    0.121942
    33  H    0.120741
 Sum of Mulliken charges =  -0.00000

 Dipole moment (field-independent basis, Debye):
    X=              0.6549    Y=             -4.0746    Z=             -1.8566  Tot=              4.5253
 Quadrupole moment (field-independent basis, Debye-Ang):
   XX=            -89.5367   YY=            -80.8159   ZZ=            -87.1844
   XY=            -16.1409   XZ=             -2.4573   YZ=              1.0576

  Exact polarizability: 287.317  -1.396 234.650   1.842 -15.391 191.844
 Approx polarizability: 213.294   1.935 181.742   0.891 -14.423 163.797

 ******    1 imaginary frequencies (negative Signs) ******

                      1                      2                      3
                      A                      A                      A
 Frequencies --   -380.4278                40.0484                47.2462
 Red. masses --      6.1992                 2.5282                 3.5079
 Frc consts  --      0.5286                 0.0024                 0.0046
 IR Inten    --    955.9856                 6.6489                 9.7958

                      4                      5                      6
                      A                      A                      A
 Frequencies --     53.2295                68.4442                78.1761
 Red. masses --      2.2847                 3.5305                 3.2859
 Frc consts  --      0.0038                 0.0097                 0.0118
 IR Inten    --     10.0444                 8.4681                14.6237

                      7                      8                      9
                      A                      A                      A
 Frequencies --    101.4011               117.4891               148.0759
 Red. masses --      1.6958                 1.7951                 2.9743
 Frc consts  --      0.0103                 0.0146                 0.0384
 IR Inten    --      1.0452                16.2338                 1.0397

                     10                     11                     12
                      A                      A                      A
 Frequencies --    162.1471               186.6695               199.2446
 Red. masses --      1.0447                 3.3685                 2.9898
 Frc consts  --      0.0162                 0.0692                 0.0699
 IR Inten    --      1.7499                 9.1617                15.6830

                     13                     14                     15
                      A                      A                      A
 Frequencies --    231.9764               251.7583               286.0207
 Red. masses --      2.0894                 2.1880                 3.7371
 Frc consts  --      0.0662                 0.0817                 0.1801
 IR Inten    --     26.5278                 0.2022                77.9806

                     16                     17                     18
                      A                      A                      A
 Frequencies --    308.7439               339.5326               392.6398
 Red. masses --      3.2360                 3.2102                 4.5919
 Frc consts  --      0.1817                 0.2180                 0.4171
 IR Inten    --      0.9504                 8.5639                19.3629

                     19                     20                     21
                      A                      A                      A
 Frequencies --    401.3207               428.5270               432.6406
 Red. masses --      1.3413                 2.9367                 3.2669
 Frc consts  --      0.1273                 0.3177                 0.3603
 IR Inten    --     72.7191                 8.1261                 4.5891

                     22                     23                     24
                      A                      A                      A
 Frequencies --    489.4105               533.6580               604.3708
 Red. masses --      3.3759                 3.2133                 3.4245
 Frc consts  --      0.4764                 0.5392                 0.7370
 IR Inten    --    127.6804                11.4090                13.8222

                     25                     26                     27
                      A                      A                      A
 Frequencies --    637.7455               666.9917               687.7771
 Red. masses --      6.1368                 2.3170                 1.9147
 Frc consts  --      1.4706                 0.6073                 0.5336
 IR Inten    --      1.9934                32.9773                 3.2208

                     28                     29                     30
                      A                      A                      A
 Frequencies --    728.1709               784.4149               794.4374
 Red. masses --      1.6020                 3.2506                 3.5516
 Frc consts  --      0.5005                 1.1784                 1.3207
 IR Inten    --     79.1775                 6.0655               106.2567

                     31                     32                     33
                      A                      A                      A
 Frequencies --    824.2117               873.2429               935.0640
 Red. masses --      3.3922                 1.2494                 1.5226
 Frc consts  --      1.3577                 0.5613                 0.7844
 IR Inten    --     31.2314                 3.2494                 0.8703

                     34                     35                     36
                      A                      A                      A
 Frequencies --    950.5014               974.6535              1005.6356
 Red. masses --      1.6648                 3.5740                 1.3656
 Frc consts  --      0.8862                 2.0003                 0.8137
 IR Inten    --     37.9867                20.7746                 0.7732

                     37                     38                     39
                      A                      A                      A
 Frequencies --   1009.9287              1013.7358              1018.3380
 Red. masses --      1.2135                 1.3269                 4.2860
 Frc consts  --      0.7293                 0.8034                 2.6187
 IR Inten    --      4.7306                 1.2485                17.7459

                     40                     41                     42
                      A                      A                      A
 Frequencies --   1040.6499              1050.7435              1068.6362
 Red. masses --      1.3678                 1.6578                 1.9396
 Frc consts  --      0.8727                 1.0784                 1.3050
 IR Inten    --    146.7348                34.4879                21.5203

                     43                     44                     45
                      A                      A                      A
 Frequencies --   1079.8398              1111.0043              1113.7451
 Red. masses --      2.3040                 2.2105                 1.6689
 Frc consts  --      1.5829                 1.6075                 1.2197
 IR Inten    --    188.6311                47.0930                 9.6772

                     46                     47                     48
                      A                      A                      A
 Frequencies --   1156.1850              1158.3207              1170.9433
 Red. masses --      1.5229                 1.7303                 1.3957
 Frc consts  --      1.1994                 1.3678                 1.1275
 IR Inten    --     10.8435                 7.2543               107.4717

                     49                     50                     51
                      A                      A                      A
 Frequencies --   1180.6682              1188.7621              1209.7432
 Red. masses --      1.1497                 1.6313                 1.3937
 Frc consts  --      0.9442                 1.3582                 1.2017
 IR Inten    --      7.3808                24.6942                38.2405

                     52                     53                     54
                      A                      A                      A
 Frequencies --   1217.0518              1271.7270              1300.7960
 Red. masses --      1.1380                 1.9473                 3.4763
 Frc consts  --      0.9931                 1.8555                 3.4656
 IR Inten    --     14.4355               112.6344               117.0813

                     55                     56                     57
                      A                      A                      A
 Frequencies --   1306.5781              1346.9104              1350.4048
 Red. masses --      2.8390                 1.4574                 2.1206
 Frc consts  --      2.8555                 1.5578                 2.2784
 IR Inten    --     96.9794                62.6091               195.7942

                     58                     59                     60
                      A                      A                      A
 Frequencies --   1376.4172              1396.6034              1448.7963
 Red. masses --      1.5712                 1.2753                 1.4564
 Frc consts  --      1.7538                 1.4656                 1.8011
 IR Inten    --    137.4223                11.0456                77.6814

                     61                     62                     63
                      A                      A                      A
 Frequencies --   1456.1681              1467.6890              1474.8922
 Red. masses --      1.2424                 1.3110                 1.0434
 Frc consts  --      1.5522                 1.6639                 1.3372
 IR Inten    --     68.1048                50.7139                13.8836

                     64                     65                     66
                      A                      A                      A
 Frequencies --   1485.0908              1491.7193              1494.3411
 Red. masses --      1.7596                 1.0485                 1.1621
 Frc consts  --      2.2865                 1.3747                 1.5289
 IR Inten    --     30.4107                 2.9436                23.7575

                     67                     68                     69
                      A                      A                      A
 Frequencies --   1500.9468              1507.9917              1510.1252
 Red. masses --      1.3448                 1.1013                 1.1237
 Frc consts  --      1.7850                 1.4755                 1.5098
 IR Inten    --     94.0629                11.2390                42.7785

                     70                     71                     72
                      A                      A                      A
 Frequencies --   1538.0827              1544.5131              1621.5622
 Red. masses --      2.2261                 1.9751                 5.5728
 Frc consts  --      3.1027                 2.7760                 8.6335
 IR Inten    --    156.5064               636.1859               779.9919

                     73                     74                     75
                      A                      A                      A
 Frequencies --   1634.4828              1655.3861              1666.4204
 Red. masses --      5.5877                 1.1050                 5.2823
 Frc consts  --      8.7951                 1.7841                 8.6426
 IR Inten    --    123.6017                50.0784                20.3168

                     76                     77                     78
                      A                      A                      A
 Frequencies --   3040.4233              3059.0067              3063.4095
 Red. masses --      1.0377                 1.0364                 1.0396
 Frc consts  --      5.6519                 5.7139                 5.7483
 IR Inten    --    100.2599                72.6744                35.8605

                     79                     80                     81
                      A                      A                      A
 Frequencies --   3096.0644              3128.2250              3133.1187
 Red. masses --      1.1022                 1.0987                 1.1023
 Frc consts  --      6.2251                 6.3348                 6.3752
 IR Inten    --     54.8462                41.1613                23.9501

                     82                     83                     84
                      A                      A                      A
 Frequencies --   3152.1728              3156.3796              3164.2627
 Red. masses --      1.1008                 1.0905                 1.1043
 Frc consts  --      6.4442                 6.4010                 6.5144
 IR Inten    --     26.8559                 8.1836                22.7892

                     85                     86                     87
                      A                      A                      A
 Frequencies --   3178.2202              3182.3690              3187.0424
 Red. masses --      1.0996                 1.0856                 1.0872
 Frc consts  --      6.5442                 6.4775                 6.5065
 IR Inten    --     15.9525                14.8441                 0.6123

                     88                     89                     90
                      A                      A                      A
 Frequencies --   3198.3651              3203.4820              3216.0722
 Red. masses --      1.0916                 1.0939                 1.0983
 Frc consts  --      6.5790                 6.6141                 6.6933
 IR Inten    --     22.3492                52.2215                23.1019

                     91                     92                     93
                      A                      A                      A
 Frequencies --   3499.9543              3600.1604              3683.8984
 Red. masses --      1.0553                 1.0927                 1.0779
 Frc consts  --      7.6161                 8.3444                 8.6188
 IR Inten    --     47.1151                55.3016                60.9448

 - Thermochemistry -
 -------------------
 Temperature   298.150 Kelvin.  Pressure   1.00000 Atm.
 Atom     1 has atomic number  6 and mass  12.00000

 Molecular mass:   206.14191 amu.
 Principal axes and moments of inertia in atomic units:
                           1         2         3
     Eigenvalues --  2655.205013951.632785564.53285
           X            0.99841  -0.05638   0.00113
           Y            0.05638   0.99840  -0.00486
           Z           -0.00086   0.00491   0.99999
 This molecule is an asymmetric top.
 Rotational symmetry number  1.
 Warning -- assumption of classical behavior for rotation
           may cause significant error
 Rotational temperatures (Kelvin)      0.03262     0.02192     0.01557
 Rotational constants (GHZ):           0.67970     0.45671     0.32433
    1 imaginary frequencies ignored.
 Zero-point vibrational energy     749724.7 (Joules/Mol)
                                  179.18851 (Kcal/Mol)
 Warning -- explicit consideration of  23 degrees of freedom as
           vibrations may cause significant error
 Vibrational temperatures:     57.62    67.98    76.59    98.48   112.48
          (Kelvin)            145.89   169.04   213.05   233.29   268.58
                              286.67   333.76   362.22   411.52   444.21
                              488.51   564.92   577.41   616.55   622.47
                              704.15   767.81   869.55   917.57   959.65
                              989.56  1047.68  1128.60  1143.02  1185.86
                             1256.40  1345.35  1367.56  1402.31  1446.89
                             1453.06  1458.54  1465.16  1497.26  1511.79
                             1537.53  1553.65  1598.49  1602.43  1663.49
                             1666.57  1684.73  1698.72  1710.36  1740.55
                             1751.07  1829.73  1871.56  1879.87  1937.90
                             1942.93  1980.36  2009.40  2084.49  2095.10
                             2111.68  2122.04  2136.71  2146.25  2150.02
                             2159.53  2169.66  2172.73  2212.96  2222.21
                             2333.07  2351.66  2381.73  2397.61  4374.49
                             4401.23  4407.56  4454.55  4500.82  4507.86
                             4535.27  4541.33  4552.67  4572.75  4578.72
                             4585.44  4601.73  4609.10  4627.21  5035.65
                             5179.83  5300.31

 Zero-point correction=                           0.285555 (Hartree/Particle)
 Thermal correction to Energy=                    0.301811
 Thermal correction to Enthalpy=                  0.302755
 Thermal correction to Gibbs Free Energy=         0.240793
 Sum of electronic and zero-point Energies=           -652.565519
 Sum of electronic and thermal Energies=              -652.549263
 Sum of electronic and thermal Enthalpies=            -652.548319
 Sum of electronic and thermal Free Energies=         -652.610281

                     E (Thermal)             CV                S
                      KCal/Mol        Cal/Mol-Kelvin    Cal/Mol-Kelvin
 Total                  189.389             59.012            130.411
 Electronic               0.000              0.000              0.000
 Translational            0.889              2.981             41.874
 Rotational               0.889              2.981             32.435
 Vibrational            187.612             53.050             56.102
 Vibration     1          0.594              1.981              5.257
 Vibration     2          0.595              1.979              4.929
 Vibration     3          0.596              1.976              4.694
 Vibration     4          0.598              1.969              4.198
 Vibration     5          0.599              1.964              3.936
 Vibration     6          0.604              1.948              3.427
 Vibration     7          0.608              1.935              3.141
 Vibration     8          0.617              1.905              2.697
 Vibration     9          0.622              1.889              2.525
 Vibration    10          0.632              1.858              2.261
 Vibration    11          0.637              1.841              2.140
 Vibration    12          0.653              1.792              1.864
 Vibration    13          0.664              1.760              1.718
 Vibration    14          0.684              1.700              1.497
 Vibration    15          0.698              1.657              1.369
 Vibration    16          0.719              1.596              1.214
 Vibration    17          0.760              1.486              0.990
 Vibration    18          0.767              1.467              0.958
 Vibration    19          0.790              1.408              0.863
 Vibration    20          0.794              1.399              0.850
 Vibration    21          0.845              1.274              0.685
 Vibration    22          0.889              1.176              0.579
 Vibration    23          0.963              1.023              0.442

 Optimization completed.
    -- Stationary point found.
 Normal termination of Gaussian 16 at Wed Feb 10 18:59:01 2021.
