 Gaussian 16, Revision A.03,
 Gaussian 16:  ES64L-G16RevA.03 25-Dec-2016

 ----------------------------------------------------------------------
 # wB97XD def2tzvp, opt=(ts, noeigen, calcfc, maxcycles=70, maxstep=8),
  freq=noraman, scrf=(iefpcm, solvent=water)
 ----------------------------------------------------------------------

 ------------------------
 1_iteration/TS-265-1.out
 ------------------------
 Symbolic Z-matrix:
 Charge =  0 Multiplicity = 1

 SCF Done:  E(RwB97XD) =  -2861.40718999     A.U. after   15 cycles
 SCF Done:  E(RwB97XD) =  -2861.40789366     A.U. after   13 cycles
 SCF Done:  E(RwB97XD) =  -2861.40836344     A.U. after   13 cycles
 SCF Done:  E(RwB97XD) =  -2861.40847952     A.U. after   12 cycles
 SCF Done:  E(RwB97XD) =  -2861.40848247     A.U. after   11 cycles
 SCF Done:  E(RwB97XD) =  -2861.40827533     A.U. after   12 cycles
 SCF Done:  E(RwB97XD) =  -2861.40847497     A.U. after   12 cycles
 SCF Done:  E(RwB97XD) =  -2861.40848229     A.U. after   10 cycles
 SCF Done:  E(RwB97XD) =  -2861.40848415     A.U. after   10 cycles
 SCF Done:  E(RwB97XD) =  -2861.40848443     A.U. after    8 cycles
 SCF Done:  E(RwB97XD) =  -2861.40848438     A.U. after    8 cycles
 Optimization completed.
    -- Stationary point found.
 Normal termination of Gaussian 16 at Wed Feb 10 10:57:10 2021.

 ---------------------------------------------------------------------
 #N Geom=AllCheck Guess=TCheck SCRF=Check GenChk RwB97XD/def2TZVP Freq
 ---------------------------------------------------------------------

 Structure from the checkpoint file:  "/beegfs/scratch/user/q/tla25/Gau-6463.chk"
 ------------------------
 1_iteration/TS-265-1.out
 ------------------------
 Charge =  0 Multiplicity = 1

                         Standard orientation:
 ---------------------------------------------------------------------
 Center     Atomic      Atomic             Coordinates (Angstroms)
 Number     Number       Type             X           Y           Z
 ---------------------------------------------------------------------
      1          6           0       -0.039473    0.383908    0.593521
      2          6           0       -0.084290    1.778395    0.312639
      3          8           0       -0.918137    2.387274   -0.343391
      4          6           0        0.980841   -0.183674    1.310995
      5          6           0        2.703942    0.113944   -0.982860
      6          1           0        3.373936   -0.256859   -1.759883
      7          1           0        1.746078    0.370891   -1.438309
      8          1           0        3.128837    1.017597   -0.547742
      9          7           0        2.476480   -0.862641    0.069411
     10          1           0        3.305292   -1.030095    0.625210
     11          1           0        2.160230   -1.749047   -0.302670
     12          1           0        0.877701   -1.167289    1.744514
     13          1           0        1.650696    0.490208    1.831396
     14         35           0       -1.381546   -0.731885   -0.173829
     15          1           0        0.754937    2.325429    0.786995
 ---------------------------------------------------------------------

 SCF Done:  E(RwB97XD) =  -2861.40848438     A.U. after    1 cycles

 The electronic state is 1-A.
 Alpha  occ. eigenvalues -- -483.12383 -62.67229 -56.46328 -56.45996 -56.45992
 Alpha  occ. eigenvalues --  -19.22343 -14.46672 -10.36032 -10.33710 -10.31567
 Alpha  occ. eigenvalues --  -10.31231  -8.81352  -6.63457  -6.62391  -6.62376
 Alpha  occ. eigenvalues --   -2.73857  -2.73540  -2.73530  -2.72666  -2.72666
 Alpha  occ. eigenvalues --   -1.12785  -1.02261  -0.93071  -0.84429  -0.78378
 Alpha  occ. eigenvalues --   -0.74661  -0.63385  -0.61718  -0.56825  -0.56663
 Alpha  occ. eigenvalues --   -0.54928  -0.52677  -0.49913  -0.48166  -0.47174
 Alpha  occ. eigenvalues --   -0.45611  -0.42299  -0.38541  -0.37089  -0.33810
 Alpha  occ. eigenvalues --   -0.28949
 Alpha virt. eigenvalues --    0.03130   0.07887   0.10657   0.12820   0.14674
 Alpha virt. eigenvalues --    0.15105   0.16560   0.18255   0.19299   0.20330
 Alpha virt. eigenvalues --    0.21270   0.22926   0.23799   0.24675   0.27108

 Mulliken charges:
               1
     1  C   -0.070474
     2  C    0.087913
     3  O   -0.466283
     4  C   -0.200582
     5  C   -0.297627
     6  H    0.150601
     7  H    0.152704
     8  H    0.152498
     9  N   -0.397510
    10  H    0.281859
    11  H    0.279210
    12  H    0.189735
    13  H    0.190604
    14  Br  -0.141810
    15  H    0.089162
 Sum of Mulliken charges =  -0.00000

 Dipole moment (field-independent basis, Debye):
    X=              9.9499    Y=             -5.1634    Z=              2.1139  Tot=             11.4074
 Quadrupole moment (field-independent basis, Debye-Ang):
   XX=            -42.6373   YY=            -61.8557   ZZ=            -52.9729
   XY=              1.1751   XZ=              1.0371   YZ=              2.8477

  Exact polarizability: 140.700 -16.083 124.642  11.599  -1.740  93.218
 Approx polarizability: 108.950 -11.685 102.153  11.663  -3.260  82.076

 ******    1 imaginary frequencies (negative Signs) ******

                      1                      2                      3
                      A                      A                      A
 Frequencies --   -315.7779                55.0218                87.9972
 Red. masses --      5.6578                 2.9426                 4.3781
 Frc consts  --      0.3324                 0.0052                 0.0200
 IR Inten    --    790.0559                 0.4828                 0.8516

                      4                      5                      6
                      A                      A                      A
 Frequencies --    109.3936               177.6901               191.7623
 Red. masses --      2.5291                 1.2908                10.9906
 Frc consts  --      0.0178                 0.0240                 0.2381
 IR Inten    --     13.1306                 2.1867                11.9524

                      7                      8                      9
                      A                      A                      A
 Frequencies --    237.3641               338.7325               362.9606
 Red. masses --      2.8519                 2.5728                 2.5305
 Frc consts  --      0.0947                 0.1739                 0.1964
 IR Inten    --      3.5662                10.9481                 2.3292

                     10                     11                     12
                      A                      A                      A
 Frequencies --    460.7099               534.8534               592.4042
 Red. masses --      3.2032                 2.4853                 1.9671
 Frc consts  --      0.4006                 0.4189                 0.4067
 IR Inten    --     73.3563                20.9496                57.1970

                     13                     14                     15
                      A                      A                      A
 Frequencies --    669.3818               888.7344               965.8655
 Red. masses --      4.6014                 1.3804                 1.1635
 Frc consts  --      1.2147                 0.6424                 0.6395
 IR Inten    --     64.7231                33.6817               117.8970

                     16                     17                     18
                      A                      A                      A
 Frequencies --    995.8412              1016.4719              1040.9939
 Red. masses --      1.1031                 1.4816                 1.4360
 Frc consts  --      0.6445                 0.9019                 0.9169
 IR Inten    --     16.8028                 4.2279                34.8613

                     19                     20                     21
                      A                      A                      A
 Frequencies --   1076.2292              1138.6086              1196.0473
 Red. masses --      1.8556                 1.5224                 1.3993
 Frc consts  --      1.2663                 1.1629                 1.1794
 IR Inten    --     64.5087               120.7601                12.5397

                     22                     23                     24
                      A                      A                      A
 Frequencies --   1266.9601              1344.3952              1349.6890
 Red. masses --      3.1706                 1.3446                 1.5038
 Frc consts  --      2.9986                 1.4318                 1.6141
 IR Inten    --     25.2212                 6.1447               352.3490

                     25                     26                     27
                      A                      A                      A
 Frequencies --   1447.1698              1462.5270              1493.2044
 Red. masses --      1.3020                 1.1813                 1.0401
 Frc consts  --      1.6066                 1.4888                 1.3664
 IR Inten    --     18.5464                 7.8333                11.2279

                     28                     29                     30
                      A                      A                      A
 Frequencies --   1508.4680              1542.6883              1650.5192
 Red. masses --      1.0339                 2.3733                 1.0900
 Frc consts  --      1.3861                 3.3278                 1.7495
 IR Inten    --     15.4161               323.8303                55.6556

                     31                     32                     33
                      A                      A                      A
 Frequencies --   1698.8841              2919.3900              3056.6604
 Red. masses --      9.1423                 1.0816                 1.0333
 Frc consts  --     15.5465                 5.4312                 5.6880
 IR Inten    --   1026.5305               134.4448                32.9106

                     34                     35                     36
                      A                      A                      A
 Frequencies --   3128.3399              3149.3208              3170.4326
 Red. masses --      1.1044                 1.1047                 1.0608
 Frc consts  --      6.3683                 6.4552                 6.2824
 IR Inten    --     21.0383                21.6327                15.3234

                     37                     38                     39
                      A                      A                      A
 Frequencies --   3267.5789              3542.9778              3627.1515
 Red. masses --      1.1171                 1.0500                 1.0963
 Frc consts  --      7.0277                 7.7657                 8.4981
 IR Inten    --      0.9471                42.1433                38.1392

 - Thermochemistry -
 -------------------
 Temperature   298.150 Kelvin.  Pressure   1.00000 Atm.
 Atom     1 has atomic number  6 and mass  12.00000

 Molecular mass:   164.97893 amu.
 Principal axes and moments of inertia in atomic units:
                           1         2         3
     Eigenvalues --   895.133811585.531072088.60026
           X            0.99838  -0.05469  -0.01561
           Y            0.05459   0.99849  -0.00663
           Z            0.01594   0.00576   0.99986
 This molecule is an asymmetric top.
 Rotational symmetry number  1.
 Warning -- assumption of classical behavior for rotation
           may cause significant error
 Rotational temperatures (Kelvin)      0.09676     0.05463     0.04147
 Rotational constants (GHZ):           2.01617     1.13826     0.86409
    1 imaginary frequencies ignored.
 Zero-point vibrational energy     315595.3 (Joules/Mol)
                                   75.42910 (Kcal/Mol)
 Warning -- explicit consideration of  11 degrees of freedom as
           vibrations may cause significant error
 Vibrational temperatures:     79.16   126.61   157.39   255.66   275.90
          (Kelvin)            341.51   487.36   522.22   662.86   769.53
                              852.34   963.09  1278.69  1389.67  1432.79
                             1462.48  1497.76  1548.45  1638.20  1720.85
                             1822.87  1934.28  1941.90  2082.15  2104.25
                             2148.39  2170.35  2219.58  2374.73  2444.32
                             4200.35  4397.85  4500.98  4531.17  4561.55
                             4701.32  5097.55  5218.66

 Zero-point correction=                           0.120204 (Hartree/Particle)
 Thermal correction to Energy=                    0.128805
 Thermal correction to Enthalpy=                  0.129749
 Thermal correction to Gibbs Free Energy=         0.085094
 Sum of electronic and zero-point Energies=          -2861.288280
 Sum of electronic and thermal Energies=             -2861.279679
 Sum of electronic and thermal Enthalpies=           -2861.278735
 Sum of electronic and thermal Free Energies=        -2861.323391

                     E (Thermal)             CV                S
                      KCal/Mol        Cal/Mol-Kelvin    Cal/Mol-Kelvin
 Total                   80.826             28.588             93.985
 Electronic               0.000              0.000              0.000
 Translational            0.889              2.981             41.210
 Rotational               0.889              2.981             29.473
 Vibrational             79.049             22.626             23.302
 Vibration     1          0.596              1.976              4.628
 Vibration     2          0.601              1.958              3.704
 Vibration     3          0.606              1.942              3.280
 Vibration     4          0.628              1.870              2.353
 Vibration     5          0.634              1.851              2.211
 Vibration     6          0.656              1.783              1.823
 Vibration     7          0.719              1.598              1.218
 Vibration     8          0.737              1.549              1.109
 Vibration     9          0.819              1.337              0.764
 Vibration    10          0.890              1.173              0.576
 Vibration    11          0.950              1.048              0.463

 Optimization completed.
    -- Stationary point found.
 Normal termination of Gaussian 16 at Wed Feb 10 11:02:49 2021.
