 Gaussian 16, Revision A.03,
 Gaussian 16:  ES64L-G16RevA.03 25-Dec-2016

 ----------------------------------------------------------------------
 # wB97XD def2tzvp, opt=(ts, noeigen, calcfc, maxcycles=70, maxstep=5),
  freq=noraman, scrf=(iefpcm, solvent=water)
 ----------------------------------------------------------------------

 ------------------------
 2_iteration/TS-216-2.out
 ------------------------
 Symbolic Z-matrix:
 Charge =  0 Multiplicity = 1

 SCF Done:  E(RwB97XD) =  -749.896436228     A.U. after   15 cycles
 SCF Done:  E(RwB97XD) =  -749.896615384     A.U. after   12 cycles
 SCF Done:  E(RwB97XD) =  -749.896629477     A.U. after   10 cycles
 SCF Done:  E(RwB97XD) =  -749.896631580     A.U. after    9 cycles
 SCF Done:  E(RwB97XD) =  -749.896632291     A.U. after    9 cycles
 SCF Done:  E(RwB97XD) =  -749.896632507     A.U. after    8 cycles
 SCF Done:  E(RwB97XD) =  -749.896632516     A.U. after    7 cycles
 SCF Done:  E(RwB97XD) =  -749.896632566     A.U. after    6 cycles
 Optimization completed.
    -- Stationary point found.
 Normal termination of Gaussian 16 at Wed Mar 31 23:48:16 2021.

 ---------------------------------------------------------------------
 #N Geom=AllCheck Guess=TCheck SCRF=Check GenChk RwB97XD/def2TZVP Freq
 ---------------------------------------------------------------------

 Structure from the checkpoint file:  "/beegfs/scratch/user/q/tla25/Gau-100019.chk"
 ------------------------
 2_iteration/TS-216-2.out
 ------------------------
 Charge =  0 Multiplicity = 1

                         Standard orientation:
 ---------------------------------------------------------------------
 Center     Atomic      Atomic             Coordinates (Angstroms)
 Number     Number       Type             X           Y           Z
 ---------------------------------------------------------------------
      1          6           0        0.165707    0.507565    0.941247
      2          6           0        0.888066    0.084214   -0.208505
      3          8           0        0.390028    0.003122   -1.344854
      4          6           0       -1.204800    0.759725    0.947287
      5          6           0       -0.592097    3.385366   -0.143295
      6          1           0       -0.425401    4.008567   -1.023788
      7          1           0       -1.014881    3.996445    0.652674
      8          1           0        0.370372    2.991025    0.191862
      9          7           0       -1.472597    2.264463   -0.413905
     10          1           0       -2.438001    2.537566   -0.538398
     11          1           0       -1.165395    1.726688   -1.217819
     12          1           0       -1.545370    1.339877    1.800001
     13          6           0       -2.276232   -0.138267    0.432944
     14          6           0       -2.010107   -1.412191   -0.061381
     15          6           0       -3.042274   -2.241988   -0.470277
     16          6           0       -4.360504   -1.816553   -0.384769
     17          6           0       -4.641184   -0.557405    0.126588
     18          6           0       -3.607012    0.267771    0.536961
     19          1           0       -0.988022   -1.757304   -0.120812
     20          1           0       -2.815391   -3.229187   -0.852968
     21          1           0       -5.165125   -2.466902   -0.703843
     22          1           0       -5.666321   -0.220444    0.213755
     23          1           0       -3.836217    1.243231    0.951395
     24          1           0        0.739082    0.905469    1.767491
     25          6           0        2.358823   -0.200143   -0.052801
     26          6           0        3.195821   -0.053650   -1.156024
     27          6           0        4.552498   -0.316046   -1.054090
     28          6           0        5.088664   -0.743907    0.153447
     29          6           0        4.261263   -0.904917    1.255861
     30          6           0        2.905569   -0.629958    1.153921
     31          1           0        2.767131    0.271493   -2.095230
     32          1           0        5.194058   -0.188485   -1.917099
     33          1           0        6.147787   -0.954423    0.233829
     34          1           0        4.671847   -1.248620    2.196988
     35          1           0        2.264607   -0.768914    2.015453
 ---------------------------------------------------------------------

 SCF Done:  E(RwB97XD) =  -749.896632566     A.U. after    1 cycles

 The electronic state is 1-A.
 Alpha  occ. eigenvalues --  -19.20736 -14.46125 -10.35291 -10.33800 -10.30817
 Alpha  occ. eigenvalues --  -10.30306 -10.29358 -10.29292 -10.29189 -10.29170
 Alpha  occ. eigenvalues --  -10.29160 -10.29093 -10.29029 -10.29022 -10.29010
 Alpha  occ. eigenvalues --  -10.28962 -10.28893 -10.25234  -1.11277  -1.01864
 Alpha  occ. eigenvalues --   -0.97030  -0.96548  -0.89796  -0.86584  -0.85296
 Alpha  occ. eigenvalues --   -0.85110  -0.83331  -0.77844  -0.75666  -0.71422
 Alpha  occ. eigenvalues --   -0.70463  -0.70088  -0.67523  -0.63453  -0.61806
 Alpha  occ. eigenvalues --   -0.61576  -0.58653  -0.56694  -0.55634  -0.55324
 Alpha  occ. eigenvalues --   -0.54386  -0.53984  -0.53017  -0.52307  -0.51186
 Alpha  occ. eigenvalues --   -0.50991  -0.50857  -0.49253  -0.47834  -0.47394
 Alpha  occ. eigenvalues --   -0.47035  -0.46513  -0.44847  -0.43870  -0.43031
 Alpha  occ. eigenvalues --   -0.42494  -0.42265  -0.40924  -0.34321  -0.33880
 Alpha  occ. eigenvalues --   -0.33622  -0.33106  -0.31937  -0.28092
 Alpha virt. eigenvalues --   -0.00049   0.04234   0.05252   0.05395   0.09339
 Alpha virt. eigenvalues --    0.10698   0.13221   0.13548   0.14011   0.14699
 Alpha virt. eigenvalues --    0.15403   0.16208   0.16861   0.17179   0.17457

 Mulliken charges:
               1
     1  C   -0.487229
     2  C    0.326864
     3  O   -0.539256
     4  C    0.136367
     5  C   -0.262283
     6  H    0.141208
     7  H    0.144211
     8  H    0.137495
     9  N   -0.384651
    10  H    0.270881
    11  H    0.269530
    12  H    0.165036
    13  C    0.134874
    14  C   -0.195518
    15  C   -0.129224
    16  C   -0.153085
    17  C   -0.131051
    18  C   -0.302731
    19  H    0.148809
    20  H    0.142571
    21  H    0.145061
    22  H    0.143833
    23  H    0.158438
    24  H    0.161000
    25  C    0.141033
    26  C   -0.253733
    27  C   -0.121800
    28  C   -0.140395
    29  C   -0.140142
    30  C   -0.246032
    31  H    0.137235
    32  H    0.142288
    33  H    0.145250
    34  H    0.142328
    35  H    0.152817
 Sum of Mulliken charges =  -0.00000

 Dipole moment (field-independent basis, Debye):
    X=             -3.1115    Y=              4.5396    Z=              1.9179  Tot=              5.8282
 Quadrupole moment (field-independent basis, Debye-Ang):
   XX=            -85.8368   YY=            -92.4839   ZZ=           -107.5355
   XY=             -8.4429   XZ=              2.1153   YZ=             -0.3486

  Exact polarizability: 375.884 -21.648 251.246  -1.729   4.105 235.779
 Approx polarizability: 270.456 -15.735 204.687   0.628   4.367 209.388

 ******    1 imaginary frequencies (negative Signs) ******

                      1                      2                      3
                      A                      A                      A
 Frequencies --   -369.0870                30.3568                34.5164
 Red. masses --      5.1747                 5.0804                 3.8551
 Frc consts  --      0.4153                 0.0028                 0.0027
 IR Inten    --    787.3060                 1.5500                 0.4909

                      4                      5                      6
                      A                      A                      A
 Frequencies --     41.0107                65.6448                90.3039
 Red. masses --      3.7960                 3.1049                 3.0448
 Frc consts  --      0.0038                 0.0079                 0.0146
 IR Inten    --      0.8160                 1.7990                 5.9679

                      7                      8                      9
                      A                      A                      A
 Frequencies --    116.1766               131.5776               138.6501
 Red. masses --      2.8438                 5.4347                 3.5438
 Frc consts  --      0.0226                 0.0554                 0.0401
 IR Inten    --     22.2261                 9.8157                17.2031

                     10                     11                     12
                      A                      A                      A
 Frequencies --    179.3105               193.6402               230.1550
 Red. masses --      4.1677                 1.3189                 4.7954
 Frc consts  --      0.0790                 0.0291                 0.1497
 IR Inten    --      1.0494                 8.1378                 1.2795

                     13                     14                     15
                      A                      A                      A
 Frequencies --    254.0475               293.7507               301.5927
 Red. masses --      2.9594                 4.9169                 5.8649
 Frc consts  --      0.1125                 0.2500                 0.3143
 IR Inten    --      5.8992                18.1715                35.9228

                     16                     17                     18
                      A                      A                      A
 Frequencies --    382.2242               420.6245               421.5957
 Red. masses --      3.7889                 2.8690                 2.8790
 Frc consts  --      0.3261                 0.2991                 0.3015
 IR Inten    --     13.2369                 1.3429                 0.1087

                     19                     20                     21
                      A                      A                      A
 Frequencies --    432.6043               478.5705               525.1510
 Red. masses --      4.0055                 4.2096                 2.6034
 Frc consts  --      0.4417                 0.5681                 0.4230
 IR Inten    --     17.7198                17.8919                77.7317

                     22                     23                     24
                      A                      A                      A
 Frequencies --    540.5797               605.5816               628.0127
 Red. masses --      4.0726                 5.5472                 1.9280
 Frc consts  --      0.7012                 1.1986                 0.4480
 IR Inten    --     38.5279                 2.9263                61.1398

                     25                     26                     27
                      A                      A                      A
 Frequencies --    635.8590               639.4174               710.5605
 Red. masses --      5.9615                 5.2135                 1.7946
 Frc consts  --      1.4201                 1.2559                 0.5339
 IR Inten    --      3.8208                14.6006                42.2573

                     28                     29                     30
                      A                      A                      A
 Frequencies --    719.8646               722.2507               730.4192
 Red. masses --      1.7848                 1.7095                 2.8148
 Frc consts  --      0.5449                 0.5254                 0.8848
 IR Inten    --     88.5477                68.5469                32.2731

                     31                     32                     33
                      A                      A                      A
 Frequencies --    753.1305               784.1154               811.2999
 Red. masses --      1.8602                 2.1634                 3.7016
 Frc consts  --      0.6217                 0.7837                 1.4355
 IR Inten    --    126.0449                58.5575                27.5599

                     34                     35                     36
                      A                      A                      A
 Frequencies --    835.3151               874.5504               881.2296
 Red. masses --      3.1133                 1.2502                 1.2496
 Frc consts  --      1.2799                 0.5634                 0.5717
 IR Inten    --     15.5913                 2.4899                 0.5630

                     37                     38                     39
                      A                      A                      A
 Frequencies --    919.7539               960.2287               968.0673
 Red. masses --      3.3715                 1.3532                 1.2379
 Frc consts  --      1.6804                 0.7351                 0.6835
 IR Inten    --     31.3179               103.7625                66.7786

                     40                     41                     42
                      A                      A                      A
 Frequencies --    971.0927              1011.9980              1017.1224
 Red. masses --      1.4960                 1.3726                 1.3806
 Frc consts  --      0.8312                 0.8282                 0.8415
 IR Inten    --      3.5586                 4.2371                 1.5726

                     43                     44                     45
                      A                      A                      A
 Frequencies --   1022.8501              1025.7695              1028.0297
 Red. masses --      1.1605                 6.0558                 3.9519
 Frc consts  --      0.7154                 3.7543                 2.4607
 IR Inten    --     36.0069                 1.2777                 0.2784

                     46                     47                     48
                      A                      A                      A
 Frequencies --   1029.9458              1032.3171              1050.8337
 Red. masses --      1.4098                 1.3201                 3.0310
 Frc consts  --      0.8811                 0.8289                 1.9720
 IR Inten    --      1.5979                 0.3962                23.3181

                     49                     50                     51
                      A                      A                      A
 Frequencies --   1063.0126              1073.5825              1085.9929
 Red. masses --      2.2143                 1.5638                 2.2041
 Frc consts  --      1.4742                 1.0619                 1.5316
 IR Inten    --     18.3070                31.5153                81.9868

                     52                     53                     54
                      A                      A                      A
 Frequencies --   1101.4775              1109.4780              1120.3176
 Red. masses --      2.1963                 1.6040                 1.5866
 Frc consts  --      1.5700                 1.1633                 1.1733
 IR Inten    --     15.6234                10.2080                15.9443

                     55                     56                     57
                      A                      A                      A
 Frequencies --   1181.1543              1182.8198              1183.6555
 Red. masses --      1.8022                 1.1481                 1.2008
 Frc consts  --      1.4814                 0.9464                 0.9912
 IR Inten    --     56.7805                 1.7756                 3.8142

                     58                     59                     60
                      A                      A                      A
 Frequencies --   1186.6184              1201.5152              1214.0133
 Red. masses --      1.3936                 1.1777                 1.1222
 Frc consts  --      1.1562                 1.0017                 0.9745
 IR Inten    --     15.9348                48.6887                 7.7698

                     61                     62                     63
                      A                      A                      A
 Frequencies --   1255.5288              1265.3853              1331.1476
 Red. masses --      1.4854                 2.9893                 3.5253
 Frc consts  --      1.3796                 2.8201                 3.6805
 IR Inten    --    123.9847               146.0955                 9.0188

                     64                     65                     66
                      A                      A                      A
 Frequencies --   1337.0761              1346.0976              1350.6043
 Red. masses --      4.1922                 1.3327                 1.6266
 Frc consts  --      4.4157                 1.4228                 1.7482
 IR Inten    --     13.0704                 5.2695                 4.0331

                     67                     68                     69
                      A                      A                      A
 Frequencies --   1365.5641              1444.6940              1457.4363
 Red. masses --      1.4142                 1.6947                 1.3121
 Frc consts  --      1.5538                 2.0840                 1.6421
 IR Inten    --     16.2407               105.4271                52.1663

                     70                     71                     72
                      A                      A                      A
 Frequencies --   1477.8737              1489.4470              1495.1257
 Red. masses --      2.4067                 1.0417                 2.2531
 Frc consts  --      3.0971                 1.3616                 2.9674
 IR Inten    --    440.3320                11.4131               101.3283

                     73                     74                     75
                      A                      A                      A
 Frequencies --   1505.5266              1510.3533              1539.5328
 Red. masses --      1.0343                 2.8375                 2.3623
 Frc consts  --      1.3812                 3.8136                 3.2989
 IR Inten    --     18.6350               663.0973                45.2302

                     76                     77                     78
                      A                      A                      A
 Frequencies --   1547.5103              1619.3698              1644.5557
 Red. masses --      2.4114                 4.5312                 1.2715
 Frc consts  --      3.4025                 7.0010                 2.0262
 IR Inten    --     32.5354               390.3254                24.7954

                     79                     80                     81
                      A                      A                      A
 Frequencies --   1654.0849              1661.9480              1672.5175
 Red. masses --      5.7233                 5.2492                 5.9433
 Frc consts  --      9.2260                 8.5424                 9.7953
 IR Inten    --      8.1239                58.5026                11.5182

                     82                     83                     84
                      A                      A                      A
 Frequencies --   1676.0806              3046.1087              3112.1411
 Red. masses --      5.8221                 1.0342                 1.1035
 Frc consts  --      9.6365                 5.6536                 6.2973
 IR Inten    --      1.2037                58.8446                19.0607

                     85                     86                     87
                      A                      A                      A
 Frequencies --   3148.1895              3162.4781              3186.8816
 Red. masses --      1.1039                 1.0879                 1.0881
 Frc consts  --      6.4460                 6.4104                 6.5111
 IR Inten    --     25.2564                21.7136                10.1001

                     88                     89                     90
                      A                      A                      A
 Frequencies --   3193.3648              3198.0505              3200.7200
 Red. masses --      1.0858                 1.0877                 1.0885
 Frc consts  --      6.5236                 6.5541                 6.5704
 IR Inten    --      0.8706                 0.4661                 6.3514

                     91                     92                     93
                      A                      A                      A
 Frequencies --   3207.8175              3208.4703              3212.1403
 Red. masses --      1.0914                 1.0926                 1.0903
 Frc consts  --      6.6168                 6.6268                 6.6283
 IR Inten    --     17.3289                27.1699                 6.4351

                     94                     95                     96
                      A                      A                      A
 Frequencies --   3216.8368              3220.5565              3222.5214
 Red. masses --      1.0938                 1.0974                 1.0983
 Frc consts  --      6.6687                 6.7062                 6.7197
 IR Inten    --     30.9250                28.6461                19.9881

                     97                     98                     99
                      A                      A                      A
 Frequencies --   3236.6447              3514.2128              3619.2188
 Red. masses --      1.0937                 1.0531                 1.0942
 Frc consts  --      6.7504                 7.6625                 8.4446
 IR Inten    --      7.8136                19.7909                74.2832

 - Thermochemistry -
 -------------------
 Temperature   298.150 Kelvin.  Pressure   1.00000 Atm.
 Atom     1 has atomic number  6 and mass  12.00000

 Molecular mass:   239.13101 amu.
 Principal axes and moments of inertia in atomic units:
                           1         2         3
     Eigenvalues --  2164.952908388.825029428.76251
           X            0.99999  -0.00454   0.00140
           Y            0.00453   0.99999   0.00266
           Z           -0.00141  -0.00265   1.00000
 This molecule is an asymmetric top.
 Rotational symmetry number  1.
 Warning -- assumption of classical behavior for rotation
           may cause significant error
 Rotational temperatures (Kelvin)      0.04001     0.01032     0.00919
 Rotational constants (GHZ):           0.83362     0.21514     0.19141
    1 imaginary frequencies ignored.
 Zero-point vibrational energy     771167.6 (Joules/Mol)
                                  184.31347 (Kcal/Mol)
 Warning -- explicit consideration of  22 degrees of freedom as
           vibrations may cause significant error
 Vibrational temperatures:     43.68    49.66    59.01    94.45   129.93
          (Kelvin)            167.15   189.31   199.49   257.99   278.61
                              331.14   365.52   422.64   433.92   549.94
                              605.18   606.58   622.42   688.56   755.58
                              777.77   871.30   903.57   914.86   919.98
                             1022.34  1035.72  1039.16  1050.91  1083.59
                             1128.17  1167.28  1201.83  1258.28  1267.89
                             1323.32  1381.55  1392.83  1397.19  1456.04
                             1463.41  1471.65  1475.85  1479.11  1481.86
                             1485.27  1511.92  1529.44  1544.65  1562.50
                             1584.78  1596.29  1611.89  1699.42  1701.81
                             1703.02  1707.28  1728.71  1746.69  1806.43
                             1820.61  1915.22  1923.75  1936.73  1943.22
                             1964.74  2078.59  2096.93  2126.33  2142.98
                             2151.15  2166.12  2173.06  2215.04  2226.52
                             2329.91  2366.15  2379.86  2391.17  2406.38
                             2411.51  4382.67  4477.68  4529.54  4550.10
                             4585.21  4594.54  4601.28  4605.12  4615.33
                             4616.27  4621.55  4628.31  4633.66  4636.49
                             4656.81  5056.17  5207.25

 Zero-point correction=                           0.293722 (Hartree/Particle)
 Thermal correction to Energy=                    0.309858
 Thermal correction to Enthalpy=                  0.310803
 Thermal correction to Gibbs Free Energy=         0.248216
 Sum of electronic and zero-point Energies=           -749.602910
 Sum of electronic and thermal Energies=              -749.586774
 Sum of electronic and thermal Enthalpies=            -749.585830
 Sum of electronic and thermal Free Energies=         -749.648417

                     E (Thermal)             CV                S
                      KCal/Mol        Cal/Mol-Kelvin    Cal/Mol-Kelvin
 Total                  194.439             61.808            131.724
 Electronic               0.000              0.000              0.000
 Translational            0.889              2.981             42.317
 Rotational               0.889              2.981             33.504
 Vibrational            192.662             55.847             55.904
 Vibration     1          0.594              1.984              5.806
 Vibration     2          0.594              1.983              5.551
 Vibration     3          0.594              1.981              5.210
 Vibration     4          0.597              1.971              4.280
 Vibration     5          0.602              1.956              3.653
 Vibration     6          0.608              1.936              3.163
 Vibration     7          0.612              1.922              2.923
 Vibration     8          0.614              1.915              2.822
 Vibration     9          0.629              1.868              2.336
 Vibration    10          0.635              1.849              2.193
 Vibration    11          0.652              1.795              1.878
 Vibration    12          0.665              1.756              1.702
 Vibration    13          0.689              1.685              1.452
 Vibration    14          0.694              1.671              1.408
 Vibration    15          0.752              1.508              1.030
 Vibration    16          0.783              1.425              0.890
 Vibration    17          0.784              1.423              0.887
 Vibration    18          0.793              1.399              0.850
 Vibration    19          0.835              1.298              0.714
 Vibration    20          0.880              1.194              0.598
 Vibration    21          0.896              1.160              0.564
 Vibration    22          0.964              1.020              0.440

 Optimization completed.
    -- Stationary point found.
 Normal termination of Gaussian 16 at Thu Apr  1 01:20:11 2021.
