 Gaussian 16, Revision A.03,
 Gaussian 16:  ES64L-G16RevA.03 25-Dec-2016

 ----------------------------------------------------------------------
 # wB97XD def2tzvp, opt=(ts, noeigen, calcfc, maxcycles=70, maxstep=1),
  freq=noraman, scrf=(iefpcm, solvent=water)
 ----------------------------------------------------------------------

 ------------------------
 0_iteration/TS-275-0.out
 ------------------------
 Symbolic Z-matrix:
 Charge =  0 Multiplicity = 1

 SCF Done:  E(RwB97XD) =  -802.788040687     A.U. after   15 cycles
 SCF Done:  E(RwB97XD) =  -802.788016643     A.U. after   10 cycles
 SCF Done:  E(RwB97XD) =  -802.787996259     A.U. after   10 cycles
 SCF Done:  E(RwB97XD) =  -802.787979554     A.U. after   10 cycles
 SCF Done:  E(RwB97XD) =  -802.787966588     A.U. after   10 cycles
 SCF Done:  E(RwB97XD) =  -802.787957568     A.U. after   10 cycles
 SCF Done:  E(RwB97XD) =  -802.787953176     A.U. after   10 cycles
 SCF Done:  E(RwB97XD) =  -802.787956757     A.U. after   11 cycles
 SCF Done:  E(RwB97XD) =  -802.787974625     A.U. after   10 cycles
 SCF Done:  E(RwB97XD) =  -802.787995459     A.U. after   10 cycles
 SCF Done:  E(RwB97XD) =  -802.788013057     A.U. after   10 cycles
 SCF Done:  E(RwB97XD) =  -802.788025770     A.U. after   10 cycles
 SCF Done:  E(RwB97XD) =  -802.788033303     A.U. after   10 cycles
 SCF Done:  E(RwB97XD) =  -802.788035947     A.U. after   10 cycles
 Optimization completed.
    -- Stationary point found.
 Normal termination of Gaussian 16 at Tue Feb  9 09:47:14 2021.

 ---------------------------------------------------------------------
 #N Geom=AllCheck Guess=TCheck SCRF=Check GenChk RwB97XD/def2TZVP Freq
 ---------------------------------------------------------------------

 Structure from the checkpoint file:  "/beegfs/scratch/user/q/tla25/Gau-92464.chk"
 ------------------------
 0_iteration/TS-275-0.out
 ------------------------
 Charge =  0 Multiplicity = 1

                         Standard orientation:
 ---------------------------------------------------------------------
 Center     Atomic      Atomic             Coordinates (Angstroms)
 Number     Number       Type             X           Y           Z
 ---------------------------------------------------------------------
      1          6           0        0.462873    0.181047    0.381148
      2          6           0        1.256842   -0.974538    0.048029
      3          8           0        0.821927   -2.126971    0.198289
      4          6           0       -0.835946    0.071471    0.830942
      5          6           0       -3.499899   -0.186258   -0.120447
      6          1           0       -4.205433   -0.269959   -0.947695
      7          1           0       -3.579793   -1.073918    0.505429
      8          1           0       -3.756202    0.687232    0.477339
      9          7           0       -2.121419   -0.056009   -0.584090
     10          1           0       -1.821331   -0.860761   -1.120542
     11          1           0       -1.988668    0.768732   -1.156512
     12          1           0       -1.308301    0.932271    1.287680
     13          1           0       -1.104102   -0.882902    1.266589
     14         17           0        1.066107    1.792109   -0.030586
     15          7           0        2.508944   -0.778600   -0.456351
     16          1           0        2.943275    0.125430   -0.416620
     17          1           0        3.105419   -1.584263   -0.516968
 ---------------------------------------------------------------------

 SCF Done:  E(RwB97XD) =  -802.788035947     A.U. after    1 cycles

 The electronic state is 1-A.
 Alpha  occ. eigenvalues -- -101.68606 -19.19619 -14.47874 -14.43587 -10.37817
 Alpha  occ. eigenvalues --  -10.32790 -10.31753 -10.30043  -9.57140  -7.31742
 Alpha  occ. eigenvalues --   -7.30958  -7.30918  -1.12166  -1.03339  -0.99421
 Alpha  occ. eigenvalues --   -0.95090  -0.84586  -0.78644  -0.74180  -0.64499
 Alpha  occ. eigenvalues --   -0.63181  -0.61369  -0.57155  -0.56073  -0.53375
 Alpha  occ. eigenvalues --   -0.51011  -0.50781  -0.49601  -0.47956  -0.46070
 Alpha  occ. eigenvalues --   -0.44147  -0.41007  -0.39984  -0.34926  -0.33598
 Alpha  occ. eigenvalues --   -0.26609
 Alpha virt. eigenvalues --    0.06608   0.10442   0.11666   0.13394   0.14808
 Alpha virt. eigenvalues --    0.15973   0.16593   0.18195   0.18752   0.19015
 Alpha virt. eigenvalues --    0.21240   0.22029   0.22743   0.24068   0.26733

 Mulliken charges:
               1
     1  C   -0.129803
     2  C    0.293753
     3  O   -0.557403
     4  C   -0.189742
     5  C   -0.270811
     6  H    0.150860
     7  H    0.149593
     8  H    0.149726
     9  N   -0.337074
    10  H    0.281505
    11  H    0.280187
    12  H    0.169448
    13  H    0.162596
    14  Cl  -0.201639
    15  N   -0.479504
    16  H    0.262408
    17  H    0.265901
 Sum of Mulliken charges =  -0.00000

 Dipole moment (field-independent basis, Debye):
    X=             -5.8393    Y=              2.3661    Z=             -2.0087  Tot=              6.6129
 Quadrupole moment (field-independent basis, Debye-Ang):
   XX=            -32.2577   YY=            -66.9641   ZZ=            -54.7952
   XY=             -0.2573   XZ=              0.8786   YZ=              1.2817

  Exact polarizability: 154.871  -0.713 113.981  -3.811  -1.865  83.816
 Approx polarizability: 111.633   2.264  98.023  -3.158  -2.241  74.613

 ******    1 imaginary frequencies (negative Signs) ******

                      1                      2                      3
                      A                      A                      A
 Frequencies --   -364.2344                35.5584                75.2458
 Red. masses --      5.8664                 2.6356                 3.9724
 Frc consts  --      0.4585                 0.0020                 0.0133
 IR Inten    --   1014.5137                 0.4684                20.1983

                      4                      5                      6
                      A                      A                      A
 Frequencies --     79.8883               125.8146               175.9137
 Red. masses --      2.2913                 4.8960                 1.2774
 Frc consts  --      0.0086                 0.0457                 0.0233
 IR Inten    --     13.5594                22.5456                 5.4658

                      7                      8                      9
                      A                      A                      A
 Frequencies --    197.3244               249.7789               274.0803
 Red. masses --      3.3533                 5.1172                 1.3411
 Frc consts  --      0.0769                 0.1881                 0.0594
 IR Inten    --     39.6974                33.7585               323.0562

                     10                     11                     12
                      A                      A                      A
 Frequencies --    353.2705               418.3680               460.0808
 Red. masses --      2.4393                 4.0826                 8.7702
 Frc consts  --      0.1794                 0.4210                 1.0938
 IR Inten    --      1.3117               170.4209                 5.9469

                     13                     14                     15
                      A                      A                      A
 Frequencies --    529.9728               560.0284               622.9245
 Red. masses --      1.1351                 3.3121                 1.1444
 Frc consts  --      0.1878                 0.6120                 0.2616
 IR Inten    --     11.7176                 9.4534                21.5505

                     16                     17                     18
                      A                      A                      A
 Frequencies --    696.4778               776.2493               871.1884
 Red. masses --      4.2228                 9.4448                 1.9778
 Frc consts  --      1.2069                 3.3531                 0.8844
 IR Inten    --     49.4757                46.6933                 2.2073

                     19                     20                     21
                      A                      A                      A
 Frequencies --    992.7927              1019.7717              1070.8079
 Red. masses --      1.1588                 1.1239                 2.3402
 Frc consts  --      0.6729                 0.6886                 1.5810
 IR Inten    --      2.8572                84.1064               153.5470

                     22                     23                     24
                      A                      A                      A
 Frequencies --   1078.0714              1099.6911              1191.0172
 Red. masses --      2.2531                 1.9447                 1.2923
 Frc consts  --      1.5428                 1.3856                 1.0801
 IR Inten    --     92.3376                22.8000                55.4588

                     25                     26                     27
                      A                      A                      A
 Frequencies --   1195.4485              1218.1776              1324.7113
 Red. masses --      1.1849                 1.4311                 2.0471
 Frc consts  --      0.9977                 1.2512                 2.1165
 IR Inten    --    246.5457                28.3637                38.7394

                     28                     29                     30
                      A                      A                      A
 Frequencies --   1342.9570              1416.5832              1462.1977
 Red. masses --      1.3277                 2.8146                 1.2022
 Frc consts  --      1.4108                 3.3278                 1.5144
 IR Inten    --      0.2536               690.3162                28.3820

                     31                     32                     33
                      A                      A                      A
 Frequencies --   1491.3204              1499.4038              1507.3839
 Red. masses --      1.0454                 2.2373                 1.0330
 Frc consts  --      1.3698                 2.9636                 1.3830
 IR Inten    --     14.5209               437.5616                13.3108

                     34                     35                     36
                      A                      A                      A
 Frequencies --   1609.9799              1647.3357              1653.4861
 Red. masses --      1.5474                 1.1720                 2.7902
 Frc consts  --      2.3632                 1.8739                 4.4945
 IR Inten    --    337.2729                51.9631               502.7972

                     37                     38                     39
                      A                      A                      A
 Frequencies --   3066.0192              3143.2986              3155.6928
 Red. masses --      1.0334                 1.1046                 1.0598
 Frc consts  --      5.7236                 6.4303                 6.2179
 IR Inten    --     57.4875                21.2476                23.6772

                     40                     41                     42
                      A                      A                      A
 Frequencies --   3159.6454              3245.3408              3534.9791
 Red. masses --      1.1056                 1.1170                 1.0504
 Frc consts  --      6.5033                 6.9312                 7.7338
 IR Inten    --     18.7106                 1.2678                22.4371

                     43                     44                     45
                      A                      A                      A
 Frequencies --   3618.0957              3625.7280              3750.2777
 Red. masses --      1.0968                 1.0454                 1.1043
 Frc consts  --      8.4592                 8.0971                 9.1507
 IR Inten    --     45.8052                76.8238                78.8827

 - Thermochemistry -
 -------------------
 Temperature   298.150 Kelvin.  Pressure   1.00000 Atm.
 Atom     1 has atomic number  6 and mass  12.00000

 Molecular mass:   136.04034 amu.
 Principal axes and moments of inertia in atomic units:
                           1         2         3
     Eigenvalues --   853.042451705.226012370.34077
           X            0.99987  -0.01604  -0.00263
           Y            0.01605   0.99986   0.00555
           Z            0.00254  -0.00559   0.99998
 This molecule is an asymmetric top.
 Rotational symmetry number  1.
 Warning -- assumption of classical behavior for rotation
           may cause significant error
 Rotational temperatures (Kelvin)      0.10154     0.05079     0.03654
 Rotational constants (GHZ):           2.11565     1.05836     0.76138
    1 imaginary frequencies ignored.
 Zero-point vibrational energy     362602.4 (Joules/Mol)
                                   86.66404 (Kcal/Mol)
 Warning -- explicit consideration of  13 degrees of freedom as
           vibrations may cause significant error
 Vibrational temperatures:     51.16   108.26   114.94   181.02   253.10
          (Kelvin)            283.91   359.38   394.34   508.28   601.94
                              661.95   762.51   805.76   896.25  1002.08
                             1116.85  1253.45  1428.41  1467.22  1540.65
                             1551.10  1582.21  1713.61  1719.98  1752.69
                             1905.96  1932.22  2038.15  2103.78  2145.68
                             2157.31  2168.79  2316.40  2370.15  2379.00
                             4411.32  4522.51  4540.34  4546.02  4669.32
                             5086.05  5205.63  5216.61  5395.81

 Zero-point correction=                           0.138108 (Hartree/Particle)
 Thermal correction to Energy=                    0.148110
 Thermal correction to Enthalpy=                  0.149054
 Thermal correction to Gibbs Free Energy=         0.101461
 Sum of electronic and zero-point Energies=           -802.649928
 Sum of electronic and thermal Energies=              -802.639926
 Sum of electronic and thermal Enthalpies=            -802.638981
 Sum of electronic and thermal Free Energies=         -802.686575

                     E (Thermal)             CV                S
                      KCal/Mol        Cal/Mol-Kelvin    Cal/Mol-Kelvin
 Total                   92.941             33.742            100.169
 Electronic               0.000              0.000              0.000
 Translational            0.889              2.981             40.635
 Rotational               0.889              2.981             29.623
 Vibrational             91.163             27.781             29.910
 Vibration     1          0.594              1.982              5.492
 Vibration     2          0.599              1.966              4.011
 Vibration     3          0.600              1.963              3.894
 Vibration     4          0.611              1.927              3.009
 Vibration     5          0.628              1.872              2.371
 Vibration     6          0.637              1.844              2.158
 Vibration     7          0.663              1.763              1.732
 Vibration     8          0.676              1.721              1.570
 Vibration     9          0.729              1.569              1.152
 Vibration    10          0.781              1.430              0.898
 Vibration    11          0.818              1.339              0.766
 Vibration    12          0.885              1.184              0.587
 Vibration    13          0.916              1.118              0.524

 Optimization completed.
    -- Stationary point found.
 Normal termination of Gaussian 16 at Tue Feb  9 09:53:54 2021.
