 Gaussian 16, Revision A.03,
 Gaussian 16:  ES64L-G16RevA.03 25-Dec-2016

 ----------------------------------------------------------------------
 # wB97XD def2tzvp, opt=(ts, noeigen, calcfc, maxcycles=70, maxstep=5),
  freq=noraman, scrf=(iefpcm, solvent=water)
 ----------------------------------------------------------------------

 ------------------------
 2_iteration/TS-222-2.out
 ------------------------
 Symbolic Z-matrix:
 Charge =  0 Multiplicity = 1

 SCF Done:  E(RwB97XD) =  -692.145068103     A.U. after   14 cycles
 SCF Done:  E(RwB97XD) =  -692.145075907     A.U. after   10 cycles
 SCF Done:  E(RwB97XD) =  -692.145075946     A.U. after    7 cycles
 Optimization completed.
    -- Stationary point found.
 Normal termination of Gaussian 16 at Thu Feb 11 04:40:36 2021.

 ---------------------------------------------------------------------
 #N Geom=AllCheck Guess=TCheck SCRF=Check GenChk RwB97XD/def2TZVP Freq
 ---------------------------------------------------------------------

 Structure from the checkpoint file:  "/beegfs/scratch/user/q/tla25/Gau-25636.chk"
 ------------------------
 2_iteration/TS-222-2.out
 ------------------------
 Charge =  0 Multiplicity = 1

                         Standard orientation:
 ---------------------------------------------------------------------
 Center     Atomic      Atomic             Coordinates (Angstroms)
 Number     Number       Type             X           Y           Z
 ---------------------------------------------------------------------
      1          6           0        0.923477    0.493122    0.770637
      2          6           0        1.496376   -0.217230   -0.336850
      3          8           0        0.996107   -0.181641   -1.490639
      4          6           0       -0.409320    0.937844    0.655170
      5          6           0        0.389993    3.234064   -0.692253
      6          1           0        1.344486    2.865531   -0.315095
      7          1           0        0.558255    3.732204   -1.647759
      8          1           0       -0.022734    3.947847    0.019223
      9          7           0       -0.508062    2.098084   -0.825915
     10          1           0       -1.449375    2.368677   -1.080109
     11          1           0       -0.140095    1.406532   -1.484973
     12          1           0       -0.687325    1.659106    1.421164
     13          6           0       -1.577128    0.046178    0.336692
     14          6           0       -1.436904   -1.325697    0.151652
     15          6           0       -2.542138   -2.127424   -0.089242
     16          6           0       -3.814127   -1.574098   -0.134963
     17          6           0       -3.972002   -0.211465    0.072465
     18          6           0       -2.862836    0.585619    0.308931
     19          1           0       -0.452379   -1.768946    0.210145
     20          1           0       -2.409183   -3.192396   -0.234311
     21          1           0       -4.676831   -2.202039   -0.318460
     22          1           0       -4.959999    0.231332    0.057598
     23          1           0       -3.002016    1.646488    0.487463
     24          6           0        1.801719    1.111666    1.839859
     25          1           0        1.418333    2.095743    2.123066
     26          1           0        1.869099    0.526656    2.764462
     27          1           0        2.826545    1.258170    1.487898
     28          7           0        2.680497   -0.897237   -0.159388
     29          6           0        3.021868   -1.543244    1.089446
     30          6           0        3.397894   -1.380865   -1.315776
     31          1           0        2.202177   -1.448753    1.796546
     32          1           0        3.194794   -2.609765    0.914686
     33          1           0        3.925822   -1.121593    1.538969
     34          1           0        3.267821   -0.694968   -2.148703
     35          1           0        4.460295   -1.449197   -1.073302
     36          1           0        3.055173   -2.374255   -1.630874
 ---------------------------------------------------------------------

 SCF Done:  E(RwB97XD) =  -692.145075946     A.U. after    1 cycles

 The electronic state is 1-A.
 Alpha  occ. eigenvalues --  -19.18809 -14.46832 -14.43979 -10.35671 -10.32886
 Alpha  occ. eigenvalues --  -10.30995 -10.30074 -10.29883 -10.29725 -10.28979
 Alpha  occ. eigenvalues --  -10.28918 -10.28855 -10.28791 -10.28623 -10.26446
 Alpha  occ. eigenvalues --  -10.23984  -1.11057  -1.02764  -1.01345  -0.96660
 Alpha  occ. eigenvalues --   -0.89599  -0.85310  -0.84830  -0.80737  -0.78705
 Alpha  occ. eigenvalues --   -0.77711  -0.76576  -0.71287  -0.69647  -0.67163
 Alpha  occ. eigenvalues --   -0.63205  -0.61308  -0.60405  -0.56426  -0.56247
 Alpha  occ. eigenvalues --   -0.55281  -0.54976  -0.54496  -0.53357  -0.52454
 Alpha  occ. eigenvalues --   -0.50965  -0.50336  -0.49328  -0.48037  -0.47724
 Alpha  occ. eigenvalues --   -0.47497  -0.47013  -0.46780  -0.45190  -0.44997
 Alpha  occ. eigenvalues --   -0.44142  -0.43943  -0.42391  -0.42029  -0.41265
 Alpha  occ. eigenvalues --   -0.33969  -0.33424  -0.32160  -0.30634  -0.24521
 Alpha virt. eigenvalues --    0.03260   0.05491   0.09242   0.10435   0.11807
 Alpha virt. eigenvalues --    0.13397   0.14312   0.15308   0.15548   0.16366
 Alpha virt. eigenvalues --    0.16885   0.16984   0.17305   0.17635   0.18449

 Mulliken charges:
               1
     1  C   -0.276301
     2  C    0.266398
     3  O   -0.614203
     4  C    0.082963
     5  C   -0.292137
     6  H    0.154901
     7  H    0.148377
     8  H    0.146335
     9  N   -0.298793
    10  H    0.266018
    11  H    0.271699
    12  H    0.154645
    13  C    0.111350
    14  C   -0.190320
    15  C   -0.148022
    16  C   -0.152856
    17  C   -0.136805
    18  C   -0.306530
    19  H    0.163475
    20  H    0.139278
    21  H    0.142989
    22  H    0.141837
    23  H    0.156092
    24  C   -0.403636
    25  H    0.131171
    26  H    0.115297
    27  H    0.122055
    28  N   -0.113163
    29  C   -0.286576
    30  C   -0.293856
    31  H    0.145201
    32  H    0.134345
    33  H    0.130777
    34  H    0.133081
    35  H    0.133405
    36  H    0.121510
 Sum of Mulliken charges =   0.00000

 Dipole moment (field-independent basis, Debye):
    X=             -1.3860    Y=              3.8064    Z=              1.0582  Tot=              4.1868
 Quadrupole moment (field-independent basis, Debye-Ang):
   XX=            -86.4301   YY=            -79.5584   ZZ=           -104.7133
   XY=             -6.6838   XZ=              3.5556   YZ=             -3.7712

  Exact polarizability: 290.421 -20.463 258.630  11.943   4.758 193.544
 Approx polarizability: 218.020 -14.065 206.572   9.164   3.879 166.282

 ******    1 imaginary frequencies (negative Signs) ******

                      1                      2                      3
                      A                      A                      A
 Frequencies --   -427.4767                38.1605                53.6571
 Red. masses --      5.6983                 3.8423                 3.8207
 Frc consts  --      0.6135                 0.0033                 0.0065
 IR Inten    --    911.9589                 0.3927                 2.6023

                      4                      5                      6
                      A                      A                      A
 Frequencies --     75.1082                77.3939                98.3175
 Red. masses --      3.1339                 2.4894                 1.5598
 Frc consts  --      0.0104                 0.0088                 0.0089
 IR Inten    --      4.2285                 0.7654                 1.8928

                      7                      8                      9
                      A                      A                      A
 Frequencies --    112.5543               132.9544               147.8298
 Red. masses --      2.7197                 2.0616                 1.3016
 Frc consts  --      0.0203                 0.0215                 0.0168
 IR Inten    --      1.9032                22.3649                 0.7191

                     10                     11                     12
                      A                      A                      A
 Frequencies --    150.7766               181.6906               196.5914
 Red. masses --      3.8309                 1.3358                 1.9006
 Frc consts  --      0.0513                 0.0260                 0.0433
 IR Inten    --     12.9667                10.4847                35.3687

                     13                     14                     15
                      A                      A                      A
 Frequencies --    208.1422               227.2947               236.4515
 Red. masses --      1.5495                 2.1832                 2.3400
 Frc consts  --      0.0396                 0.0665                 0.0771
 IR Inten    --      5.0821                 5.6261                13.3502

                     16                     17                     18
                      A                      A                      A
 Frequencies --    261.5503               285.3972               300.1579
 Red. masses --      3.1971                 2.4415                 3.2408
 Frc consts  --      0.1289                 0.1172                 0.1720
 IR Inten    --      9.8887                 3.7636                21.4849

                     19                     20                     21
                      A                      A                      A
 Frequencies --    344.4024               377.0887               416.2482
 Red. masses --      3.7172                 3.8254                 3.0555
 Frc consts  --      0.2598                 0.3205                 0.3119
 IR Inten    --     12.0623                42.5177                 3.4202

                     22                     23                     24
                      A                      A                      A
 Frequencies --    421.8660               454.5804               538.4637
 Red. masses --      2.8806                 3.2175                 3.1716
 Frc consts  --      0.3021                 0.3917                 0.5418
 IR Inten    --      0.2219                27.1555                79.2277

                     25                     26                     27
                      A                      A                      A
 Frequencies --    576.0147               600.3373               638.9976
 Red. masses --      3.9447                 3.6296                 6.2486
 Frc consts  --      0.7711                 0.7707                 1.5032
 IR Inten    --     64.8205                23.5214                 6.6228

                     28                     29                     30
                      A                      A                      A
 Frequencies --    650.8059               722.1909               729.3844
 Red. masses --      4.4506                 1.5789                 5.1580
 Frc consts  --      1.1106                 0.4852                 1.6168
 IR Inten    --     27.9722                97.5088                 2.4240

                     31                     32                     33
                      A                      A                      A
 Frequencies --    755.6345               787.2347               799.8347
 Red. masses --      1.6891                 2.3912                 4.1455
 Frc consts  --      0.5682                 0.8731                 1.5625
 IR Inten    --     73.7599                30.0291                39.6403

                     34                     35                     36
                      A                      A                      A
 Frequencies --    868.0253               875.2240               959.4694
 Red. masses --      3.5152                 1.2545                 1.4845
 Frc consts  --      1.5605                 0.5662                 0.8052
 IR Inten    --      2.1661                 1.9282                 8.9962

                     37                     38                     39
                      A                      A                      A
 Frequencies --    982.4963               999.9455              1012.7727
 Red. masses --      2.3934                 1.2298                 1.3364
 Frc consts  --      1.3612                 0.7245                 0.8077
 IR Inten    --     68.2958                60.4508                13.2212

                     40                     41                     42
                      A                      A                      A
 Frequencies --   1023.3562              1026.7452              1028.2090
 Red. masses --      1.5841                 2.5126                 1.8119
 Frc consts  --      0.9774                 1.5606                 1.1286
 IR Inten    --    107.8137                 0.7065                14.4198

                     43                     44                     45
                      A                      A                      A
 Frequencies --   1060.9620              1062.9384              1077.2663
 Red. masses --      1.4675                 1.7417                 1.3546
 Frc consts  --      0.9733                 1.1594                 0.9262
 IR Inten    --     13.1861                 8.7587                56.7414

                     46                     47                     48
                      A                      A                      A
 Frequencies --   1087.4381              1097.9504              1110.3164
 Red. masses --      1.3637                 3.4064                 1.5934
 Frc consts  --      0.9501                 2.4194                 1.1574
 IR Inten    --     20.4287                79.8763                18.6888

                     49                     50                     51
                      A                      A                      A
 Frequencies --   1134.3476              1144.7848              1147.8471
 Red. masses --      1.2387                 2.0704                 1.1675
 Frc consts  --      0.9391                 1.5986                 0.9063
 IR Inten    --     11.4531               141.5939               105.7344

                     52                     53                     54
                      A                      A                      A
 Frequencies --   1167.2531              1182.6916              1203.5182
 Red. masses --      1.4030                 1.1350                 1.1914
 Frc consts  --      1.1263                 0.9354                 1.0167
 IR Inten    --     32.7161                 0.5670                13.0095

                     55                     56                     57
                      A                      A                      A
 Frequencies --   1215.1744              1227.4197              1232.6422
 Red. masses --      1.3489                 3.4707                 1.8480
 Frc consts  --      1.1736                 3.0807                 1.6543
 IR Inten    --     70.7975                13.1139                40.1870

                     58                     59                     60
                      A                      A                      A
 Frequencies --   1307.1696              1329.3129              1352.9087
 Red. masses --      4.5737                 4.3646                 1.5422
 Frc consts  --      4.6045                 4.5442                 1.6631
 IR Inten    --     24.3132                17.1798                 8.5851

                     61                     62                     63
                      A                      A                      A
 Frequencies --   1359.4052              1364.9091              1407.2471
 Red. masses --      1.6970                 1.6282                 1.7987
 Frc consts  --      1.8477                 1.7871                 2.0987
 IR Inten    --     41.5542               114.3927               423.4465

                     64                     65                     66
                      A                      A                      A
 Frequencies --   1422.6175              1440.2316              1446.2028
 Red. masses --      1.6836                 1.4593                 1.1974
 Frc consts  --      2.0076                 1.7834                 1.4755
 IR Inten    --    481.0265                33.5469                 0.0998

                     67                     68                     69
                      A                      A                      A
 Frequencies --   1457.0095              1475.2439              1476.7863
 Red. masses --      1.5643                 1.2220                 1.0547
 Frc consts  --      1.9566                 1.5669                 1.3552
 IR Inten    --     61.4636                58.5161                 7.5607

                     70                     71                     72
                      A                      A                      A
 Frequencies --   1483.8204              1492.4265              1493.3312
 Red. masses --      1.1112                 1.0540                 1.0589
 Frc consts  --      1.4415                 1.3831                 1.3913
 IR Inten    --      6.4017                41.7616                43.1645

                     73                     74                     75
                      A                      A                      A
 Frequencies --   1498.3888              1501.9363              1504.0138
 Red. masses --      1.9198                 1.0939                 1.0671
 Frc consts  --      2.5395                 1.4539                 1.4222
 IR Inten    --     44.7941                67.3288                 5.2107

                     76                     77                     78
                      A                      A                      A
 Frequencies --   1510.1755              1533.3715              1543.2794
 Red. masses --      1.0693                 1.4730                 2.3074
 Frc consts  --      1.4368                 2.0405                 3.2379
 IR Inten    --     51.0584               182.2925                35.8300

                     79                     80                     81
                      A                      A                      A
 Frequencies --   1576.0261              1645.0194              1653.6766
 Red. masses --      4.4741                 1.1487                 5.6584
 Frc consts  --      6.5476                 1.8315                 9.1168
 IR Inten    --    572.7114                17.6066                 2.4772

                     82                     83                     84
                      A                      A                      A
 Frequencies --   1674.8276              3004.7149              3009.0716
 Red. masses --      5.9287                 1.0455                 1.0506
 Frc consts  --      9.7983                 5.5612                 5.6047
 IR Inten    --      3.1036               166.3390               112.5494

                     85                     86                     87
                      A                      A                      A
 Frequencies --   3025.2378              3058.0778              3060.3414
 Red. masses --      1.0397                 1.0901                 1.0331
 Frc consts  --      5.6065                 6.0063                 5.7006
 IR Inten    --    158.4267                42.4338                71.1279

                     88                     89                     90
                      A                      A                      A
 Frequencies --   3074.0668              3089.2321              3094.9226
 Red. masses --      1.1023                 1.0901                 1.1011
 Frc consts  --      6.1375                 6.1297                 6.2139
 IR Inten    --     85.3421                44.1100                43.5292

                     91                     92                     93
                      A                      A                      A
 Frequencies --   3132.9195              3135.5375              3153.8771
 Red. masses --      1.0880                 1.1043                 1.1055
 Frc consts  --      6.2919                 6.3968                 6.4786
 IR Inten    --     34.8479                15.7125                19.6305

                     94                     95                     96
                      A                      A                      A
 Frequencies --   3167.0354              3168.5265              3179.6364
 Red. masses --      1.0983                 1.0963                 1.0886
 Frc consts  --      6.4907                 6.4850                 6.4845
 IR Inten    --     16.8111                15.7031                14.8279

                     97                     98                     99
                      A                      A                      A
 Frequencies --   3194.8844              3205.2599              3217.3765
 Red. masses --      1.0871                 1.0920                 1.0961
 Frc consts  --      6.5376                 6.6097                 6.6852
 IR Inten    --      0.2859                26.3838                29.1148

                    100                    101                    102
                      A                      A                      A
 Frequencies --   3226.3085              3366.8980              3591.3708
 Red. masses --      1.0949                 1.0668                 1.0838
 Frc consts  --      6.7148                 7.1248                 8.2363
 IR Inten    --     11.8845               159.5580                72.1096

 - Thermochemistry -
 -------------------
 Temperature   298.150 Kelvin.  Pressure   1.00000 Atm.
 Atom     1 has atomic number  6 and mass  12.00000

 Molecular mass:   220.15756 amu.
 Principal axes and moments of inertia in atomic units:
                           1         2         3
     Eigenvalues --  2374.444464911.028965987.75335
           X            0.99986  -0.01454   0.00812
           Y            0.01453   0.99989   0.00196
           Z           -0.00815  -0.00184   0.99997
 This molecule is an asymmetric top.
 Rotational symmetry number  1.
 Warning -- assumption of classical behavior for rotation
           may cause significant error
 Rotational temperatures (Kelvin)      0.03648     0.01764     0.01447
 Rotational constants (GHZ):           0.76007     0.36749     0.30141
    1 imaginary frequencies ignored.
 Zero-point vibrational energy     823213.4 (Joules/Mol)
                                  196.75273 (Kcal/Mol)
 Warning -- explicit consideration of  25 degrees of freedom as
           vibrations may cause significant error
 Vibrational temperatures:     54.90    77.20   108.06   111.35   141.46
          (Kelvin)            161.94   191.29   212.69   216.93   261.41
                              282.85   299.47   327.03   340.20   376.31
                              410.62   431.86   495.52   542.55   598.89
                              606.97   654.04   774.73   828.76   863.75
                              919.38   936.36  1039.07  1049.42  1087.19
                             1132.66  1150.78  1248.89  1259.25  1380.46
                             1413.59  1438.70  1457.15  1472.38  1477.26
                             1479.36  1526.49  1529.33  1549.95  1564.58
                             1579.71  1597.50  1632.07  1647.09  1651.50
                             1679.42  1701.63  1731.59  1748.36  1765.98
                             1773.50  1880.73  1912.58  1946.53  1955.88
                             1963.80  2024.71  2046.83  2072.17  2080.76
                             2096.31  2122.55  2124.77  2134.89  2147.27
                             2148.57  2155.85  2160.95  2163.94  2172.81
                             2206.18  2220.43  2267.55  2366.82  2379.27
                             2409.70  4323.11  4329.38  4352.64  4399.89
                             4403.15  4422.90  4444.72  4452.90  4507.57
                             4511.34  4537.73  4556.66  4558.80  4574.79
                             4596.73  4611.65  4629.09  4641.94  4844.22
                             5167.18

 Zero-point correction=                           0.313545 (Hartree/Particle)
 Thermal correction to Energy=                    0.330744
 Thermal correction to Enthalpy=                  0.331688
 Thermal correction to Gibbs Free Energy=         0.268537
 Sum of electronic and zero-point Energies=           -691.831531
 Sum of electronic and thermal Energies=              -691.814332
 Sum of electronic and thermal Enthalpies=            -691.813388
 Sum of electronic and thermal Free Energies=         -691.876539

                     E (Thermal)             CV                S
                      KCal/Mol        Cal/Mol-Kelvin    Cal/Mol-Kelvin
 Total                  207.545             63.323            132.914
 Electronic               0.000              0.000              0.000
 Translational            0.889              2.981             42.070
 Rotational               0.889              2.981             32.612
 Vibrational            205.767             57.362             58.231
 Vibration     1          0.594              1.982              5.352
 Vibration     2          0.596              1.976              4.678
 Vibration     3          0.599              1.966              4.015
 Vibration     4          0.599              1.964              3.956
 Vibration     5          0.604              1.950              3.487
 Vibration     6          0.607              1.939              3.224
 Vibration     7          0.613              1.920              2.903
 Vibration     8          0.617              1.905              2.700
 Vibration     9          0.618              1.902              2.662
 Vibration    10          0.630              1.865              2.311
 Vibration    11          0.636              1.845              2.165
 Vibration    12          0.641              1.828              2.060
 Vibration    13          0.651              1.799              1.900
 Vibration    14          0.655              1.785              1.829
 Vibration    15          0.669              1.743              1.651
 Vibration    16          0.683              1.701              1.501
 Vibration    17          0.693              1.673              1.416
 Vibration    18          0.723              1.587              1.192
 Vibration    19          0.748              1.519              1.051
 Vibration    20          0.779              1.435              0.905
 Vibration    21          0.784              1.423              0.886
 Vibration    22          0.813              1.351              0.782
 Vibration    23          0.894              1.165              0.569
 Vibration    24          0.932              1.083              0.493
 Vibration    25          0.958              1.031              0.449

 Optimization completed.
    -- Stationary point found.
 Normal termination of Gaussian 16 at Thu Feb 11 06:08:41 2021.
