 Gaussian 16, Revision A.03,
 Gaussian 16:  ES64L-G16RevA.03 25-Dec-2016

 ----------------------------------------------------------------------
 # wB97XD def2tzvp, opt=(ts, noeigen, calcfc, maxcycles=70, maxstep=1),
  freq=noraman, scrf=(iefpcm, solvent=water)
 ----------------------------------------------------------------------

 ------------------------
 0_iteration/TS-253-0.out
 ------------------------
 Symbolic Z-matrix:
 Charge =  0 Multiplicity = 1

 SCF Done:  E(RwB97XD) =  -382.475963138     A.U. after   14 cycles
 SCF Done:  E(RwB97XD) =  -382.475928976     A.U. after   10 cycles
 SCF Done:  E(RwB97XD) =  -382.475898692     A.U. after   10 cycles
 SCF Done:  E(RwB97XD) =  -382.475872326     A.U. after   10 cycles
 SCF Done:  E(RwB97XD) =  -382.475850070     A.U. after   10 cycles
 SCF Done:  E(RwB97XD) =  -382.475832307     A.U. after   10 cycles
 SCF Done:  E(RwB97XD) =  -382.475819834     A.U. after   10 cycles
 SCF Done:  E(RwB97XD) =  -382.475814262     A.U. after   10 cycles
 SCF Done:  E(RwB97XD) =  -382.475818218     A.U. after   10 cycles
 SCF Done:  E(RwB97XD) =  -382.475832489     A.U. after   10 cycles
 SCF Done:  E(RwB97XD) =  -382.476727722     A.U. after    9 cycles
 SCF Done:  E(RwB97XD) =  -382.476765821     A.U. after    9 cycles
 SCF Done:  E(RwB97XD) =  -382.476796083     A.U. after    9 cycles
 SCF Done:  E(RwB97XD) =  -382.476816871     A.U. after    9 cycles
 SCF Done:  E(RwB97XD) =  -382.476829833     A.U. after    9 cycles
 SCF Done:  E(RwB97XD) =  -382.476835332     A.U. after    9 cycles
 SCF Done:  E(RwB97XD) =  -382.476835633     A.U. after    9 cycles
 SCF Done:  E(RwB97XD) =  -382.476835622     A.U. after    7 cycles
 SCF Done:  E(RwB97XD) =  -382.476835628     A.U. after    7 cycles
 Optimization completed.
    -- Stationary point found.
 Normal termination of Gaussian 16 at Tue Feb  9 23:57:56 2021.

 ---------------------------------------------------------------------
 #N Geom=AllCheck Guess=TCheck SCRF=Check GenChk RwB97XD/def2TZVP Freq
 ---------------------------------------------------------------------

 Structure from the checkpoint file:  "/beegfs/scratch/user/q/tla25/Gau-14529.chk"
 ------------------------
 0_iteration/TS-253-0.out
 ------------------------
 Charge =  0 Multiplicity = 1

                         Standard orientation:
 ---------------------------------------------------------------------
 Center     Atomic      Atomic             Coordinates (Angstroms)
 Number     Number       Type             X           Y           Z
 ---------------------------------------------------------------------
      1          6           0       -0.046251   -1.281046    0.291381
      2          6           0       -1.260782   -0.597623   -0.041512
      3          8           0       -2.257975   -1.176592   -0.512232
      4          6           0        1.118906   -0.676983    0.768140
      5          6           0        3.366265    0.753636   -0.099843
      6          1           0        3.940265    1.170559   -0.927041
      7          1           0        3.072785    1.558297    0.572453
      8          1           0        3.987864    0.046639    0.447024
      9          7           0        2.163747    0.064078   -0.565120
     10          1           0        1.538535    0.686275   -1.064765
     11          1           0        2.382857   -0.708721   -1.182855
     12          1           0        1.889349   -1.335291    1.156818
     13          1           0        1.055956    0.242150    1.346617
     14          1           0       -0.015105   -2.325515    0.008699
     15          7           0       -1.317733    0.768856    0.141290
     16          6           0       -2.575241    1.475662    0.061986
     17          1           0       -0.616241    1.188653    0.724269
     18          1           0       -3.288895    1.158354    0.829893
     19          1           0       -2.384588    2.541006    0.183944
     20          1           0       -3.038466    1.317911   -0.911304
 ---------------------------------------------------------------------

 SCF Done:  E(RwB97XD) =  -382.476835628     A.U. after    1 cycles

 The electronic state is 1-A.
 Alpha  occ. eigenvalues --  -19.18247 -14.48682 -14.43195 -10.35713 -10.32503
 Alpha  occ. eigenvalues --  -10.31977 -10.29976 -10.23342  -1.10614  -1.04087
 Alpha  occ. eigenvalues --   -0.99621  -0.86568  -0.79371  -0.78189  -0.71427
 Alpha  occ. eigenvalues --   -0.64690  -0.63760  -0.58851  -0.56822  -0.53959
 Alpha  occ. eigenvalues --   -0.52869  -0.52413  -0.50955  -0.48239  -0.48143
 Alpha  occ. eigenvalues --   -0.45965  -0.45872  -0.43959  -0.43073  -0.32939
 Alpha  occ. eigenvalues --   -0.31961  -0.25869
 Alpha virt. eigenvalues --    0.08058   0.10008   0.12989   0.14046   0.15253
 Alpha virt. eigenvalues --    0.15396   0.17269   0.18022   0.18964   0.19278
 Alpha virt. eigenvalues --    0.20426   0.20700   0.21792   0.23207   0.23496

 Mulliken charges:
               1
     1  C   -0.445385
     2  C    0.356898
     3  O   -0.593936
     4  C   -0.223990
     5  C   -0.273496
     6  H    0.154719
     7  H    0.151901
     8  H    0.151564
     9  N   -0.277981
    10  H    0.277318
    11  H    0.278688
    12  H    0.159050
    13  H    0.154320
    14  H    0.109569
    15  N   -0.329772
    16  C   -0.253661
    17  H    0.234653
    18  H    0.112953
    19  H    0.133040
    20  H    0.123549
 Sum of Mulliken charges =  -0.00000

 Dipole moment (field-independent basis, Debye):
    X=             11.1662    Y=              5.9744    Z=              0.3203  Tot=             12.6681
 Quadrupole moment (field-independent basis, Debye-Ang):
   XX=            -45.8526   YY=            -52.0173   ZZ=            -49.7680
   XY=             -9.3696   XZ=             -6.3839   YZ=              0.4004

  Exact polarizability: 158.304   8.831 110.140   3.264   0.398  90.982
 Approx polarizability: 112.445   7.776  89.776   3.742   1.350  77.647

 ******    1 imaginary frequencies (negative Signs) ******

                      1                      2                      3
                      A                      A                      A
 Frequencies --   -365.3322                52.4921                73.5393
 Red. masses --      6.3281                 3.1092                 3.2323
 Frc consts  --      0.4976                 0.0050                 0.0103
 IR Inten    --    965.3894                 0.4652                12.0032

                      4                      5                      6
                      A                      A                      A
 Frequencies --     85.2412               123.3315               152.0410
 Red. masses --      1.8360                 1.5274                 1.9076
 Frc consts  --      0.0079                 0.0137                 0.0260
 IR Inten    --     11.8987                19.0342                12.1600

                      7                      8                      9
                      A                      A                      A
 Frequencies --    176.6282               217.6306               247.3691
 Red. masses --      1.2112                 2.8618                 2.6400
 Frc consts  --      0.0223                 0.0799                 0.0952
 IR Inten    --      2.5526                13.4268                22.7071

                     10                     11                     12
                      A                      A                      A
 Frequencies --    334.0308               398.6517               457.0129
 Red. masses --      2.9066                 1.9907                 2.0398
 Frc consts  --      0.1911                 0.1864                 0.2510
 IR Inten    --     37.1366                37.1046               288.7873

                     13                     14                     15
                      A                      A                      A
 Frequencies --    584.9605               626.7516               639.0251
 Red. masses --      2.5977                 1.6120                 2.0198
 Frc consts  --      0.5237                 0.3731                 0.4860
 IR Inten    --      8.6322                62.7139                 8.0759

                     16                     17                     18
                      A                      A                      A
 Frequencies --    706.1953               794.5374               880.1729
 Red. masses --      1.2248                 7.5614                 2.8425
 Frc consts  --      0.3599                 2.8124                 1.2974
 IR Inten    --     69.9942                84.7721                 4.1622

                     19                     20                     21
                      A                      A                      A
 Frequencies --    949.1587              1024.3253              1039.8069
 Red. masses --      1.4344                 1.1925                 1.3854
 Frc consts  --      0.7614                 0.7372                 0.8825
 IR Inten    --      8.1430                18.8163                20.8913

                     22                     23                     24
                      A                      A                      A
 Frequencies --   1082.6638              1140.3307              1154.5138
 Red. masses --      2.8123                 1.6085                 1.4920
 Frc consts  --      1.9423                 1.2324                 1.1717
 IR Inten    --    220.4871                19.3659                26.9856

                     25                     26                     27
                      A                      A                      A
 Frequencies --   1174.0062              1194.9199              1220.1278
 Red. masses --      1.4258                 1.5208                 1.2397
 Frc consts  --      1.1578                 1.2794                 1.0874
 IR Inten    --     58.6452               112.2806               307.5123

                     28                     29                     30
                      A                      A                      A
 Frequencies --   1238.6597              1266.1953              1307.8702
 Red. masses --      1.5074                 1.4555                 1.8180
 Frc consts  --      1.3626                 1.3749                 1.8322
 IR Inten    --     79.6416                44.8163               213.7988

                     31                     32                     33
                      A                      A                      A
 Frequencies --   1343.6276              1415.6269              1455.8400
 Red. masses --      1.3125                 1.8501                 1.2218
 Frc consts  --      1.3960                 2.1844                 1.5257
 IR Inten    --      0.0092               165.1056                47.2482

                     34                     35                     36
                      A                      A                      A
 Frequencies --   1464.5188              1478.0574              1492.6750
 Red. masses --      1.1776                 1.0837                 1.0399
 Frc consts  --      1.4882                 1.3949                 1.3651
 IR Inten    --      2.5265                38.5003                15.9155

                     37                     38                     39
                      A                      A                      A
 Frequencies --   1503.5287              1506.0375              1522.7951
 Red. masses --      1.1521                 1.0325                 1.6193
 Frc consts  --      1.5344                 1.3798                 2.2123
 IR Inten    --     24.9356                13.6489                67.6649

                     40                     41                     42
                      A                      A                      A
 Frequencies --   1538.1284              1634.3651              1649.5045
 Red. masses --      1.6332                 5.2042                 1.0941
 Frc consts  --      2.2765                 8.1904                 1.7540
 IR Inten    --    345.3943              1116.7706                25.9743

                     43                     44                     45
                      A                      A                      A
 Frequencies --   3025.0585              3070.9648              3107.6973
 Red. masses --      1.0488                 1.0330                 1.0864
 Frc consts  --      5.6545                 5.7396                 6.1817
 IR Inten    --    114.5999                47.9320                45.6590

                     46                     47                     48
                      A                      A                      A
 Frequencies --   3109.6371              3149.8565              3151.2040
 Red. masses --      1.0625                 1.1038                 1.1056
 Frc consts  --      6.0536                 6.4527                 6.4685
 IR Inten    --     58.0722                27.3830                15.7870

                     49                     50                     51
                      A                      A                      A
 Frequencies --   3164.4858              3183.6219              3201.6836
 Red. masses --      1.1060                 1.1038                 1.0956
 Frc consts  --      6.5253                 6.5912                 6.6168
 IR Inten    --     19.2317                 7.2035                32.1160

                     52                     53                     54
                      A                      A                      A
 Frequencies --   3524.6472              3606.5703              3669.9324
 Red. masses --      1.0511                 1.0968                 1.0765
 Frc consts  --      7.6936                 8.4058                 8.5422
 IR Inten    --     19.1540                47.6387                18.5466

 - Thermochemistry -
 -------------------
 Temperature   298.150 Kelvin.  Pressure   1.00000 Atm.
 Atom     1 has atomic number  6 and mass  12.00000

 Molecular mass:   116.09496 amu.
 Principal axes and moments of inertia in atomic units:
                           1         2         3
     Eigenvalues --   507.411231883.458512202.05600
           X            0.99981  -0.01923  -0.00355
           Y            0.01923   0.99981  -0.00144
           Z            0.00358   0.00137   0.99999
 This molecule is an asymmetric top.
 Rotational symmetry number  1.
 Warning -- assumption of classical behavior for rotation
           may cause significant error
 Rotational temperatures (Kelvin)      0.17070     0.04599     0.03933
 Rotational constants (GHZ):           3.55676     0.95821     0.81957
    1 imaginary frequencies ignored.
 Zero-point vibrational energy     462430.0 (Joules/Mol)
                                  110.52342 (Kcal/Mol)
 Warning -- explicit consideration of  12 degrees of freedom as
           vibrations may cause significant error
 Vibrational temperatures:     75.52   105.81   122.64   177.45   218.75
          (Kelvin)            254.13   313.12   355.91   480.60   573.57
                              657.54   841.63   901.76   919.41  1016.06
                             1143.16  1266.37  1365.63  1473.78  1496.05
                             1557.71  1640.68  1661.09  1689.13  1719.22
                             1755.49  1782.15  1821.77  1881.73  1933.18
                             2036.77  2094.63  2107.12  2126.59  2147.63
                             2163.24  2166.85  2190.96  2213.02  2351.49
                             2373.27  4352.38  4418.43  4471.28  4474.07
                             4531.94  4533.88  4552.99  4580.52  4606.51
                             5071.18  5189.05  5280.21

 Zero-point correction=                           0.176130 (Hartree/Particle)
 Thermal correction to Energy=                    0.186275
 Thermal correction to Enthalpy=                  0.187219
 Thermal correction to Gibbs Free Energy=         0.140011
 Sum of electronic and zero-point Energies=           -382.300705
 Sum of electronic and thermal Energies=              -382.290561
 Sum of electronic and thermal Enthalpies=            -382.289617
 Sum of electronic and thermal Free Energies=         -382.336825

                     E (Thermal)             CV                S
                      KCal/Mol        Cal/Mol-Kelvin    Cal/Mol-Kelvin
 Total                  116.889             34.515             99.357
 Electronic               0.000              0.000              0.000
 Translational            0.889              2.981             40.163
 Rotational               0.889              2.981             29.133
 Vibrational            115.112             28.553             30.061
 Vibration     1          0.596              1.977              4.721
 Vibration     2          0.599              1.966              4.056
 Vibration     3          0.601              1.959              3.766
 Vibration     4          0.610              1.930              3.047
 Vibration     5          0.619              1.900              2.647
 Vibration     6          0.628              1.871              2.364
 Vibration     7          0.646              1.814              1.979
 Vibration     8          0.661              1.767              1.749
 Vibration     9          0.716              1.608              1.241
 Vibration    10          0.765              1.473              0.968
 Vibration    11          0.815              1.345              0.775
 Vibration    12          0.942              1.064              0.476

 Optimization completed.
    -- Stationary point found.
 Normal termination of Gaussian 16 at Wed Feb 10 00:05:22 2021.
