 Gaussian 16, Revision A.03,
 Gaussian 16:  ES64L-G16RevA.03 25-Dec-2016

 ----------------------------------------------------------------------
 # wB97XD def2tzvp, opt=(ts, noeigen, calcfc, maxcycles=70, maxstep=3),
  freq=noraman, scrf=(iefpcm, solvent=water)
 ----------------------------------------------------------------------

 ------------------------
 3_iteration/TS-203-3.out
 ------------------------
 Symbolic Z-matrix:
 Charge =  0 Multiplicity = 1

 SCF Done:  E(RwB97XD) =  -805.274068575     A.U. after   14 cycles
 Optimization completed.
    -- Stationary point found.
 Normal termination of Gaussian 16 at Thu Feb 11 13:12:34 2021.

 ---------------------------------------------------------------------
 #N Geom=AllCheck Guess=TCheck SCRF=Check GenChk RwB97XD/def2TZVP Freq
 ---------------------------------------------------------------------

 Structure from the checkpoint file:  "/beegfs/scratch/user/q/tla25/Gau-15573.chk"
 ------------------------
 3_iteration/TS-203-3.out
 ------------------------
 Charge =  0 Multiplicity = 1

                         Standard orientation:
 ---------------------------------------------------------------------
 Center     Atomic      Atomic             Coordinates (Angstroms)
 Number     Number       Type             X           Y           Z
 ---------------------------------------------------------------------
      1          6           0       -0.525420   -0.132091    0.397049
      2          6           0       -0.302300   -0.595691    1.749369
      3          8           0       -1.163590   -1.136091    2.457429
      4          6           0        0.466580    0.557479   -0.334961
      5          6           0       -0.424581    2.797849    1.101699
      6          1           0       -0.147321    3.524949    1.863129
      7          1           0       -1.088261    3.266639    0.380029
      8          1           0       -0.945931    1.961709    1.569179
      9          7           0        0.757309    2.281339    0.416859
     10          1           0        1.066849    2.921970   -0.303081
     11          1           0        1.521839    2.156600    1.070489
     12          1           0        0.101370    0.924459   -1.289491
     13          6           0        1.875840    0.046490   -0.507251
     14          6           0        2.935340    0.865880   -0.897591
     15          6           0        4.195280    0.339900   -1.136191
     16          6           0        4.422420   -1.021720   -1.003891
     17          6           0        3.373760   -1.852580   -0.641741
     18          6           0        2.114500   -1.324250   -0.403531
     19          1           0        2.795269    1.929460   -1.034291
     20          1           0        5.000560    0.999760   -1.432641
     21          1           0        5.406520   -1.431850   -1.190681
     22          1           0        3.531171   -2.919520   -0.548011
     23          1           0        1.295770   -1.979130   -0.136191
     24          6           0       -1.884420   -0.212391   -0.179881
     25          6           0       -2.696910   -1.340551    0.012019
     26          6           0       -3.952380   -1.439222   -0.564861
     27          6           0       -4.450740   -0.418492   -1.364401
     28          6           0       -3.664460    0.703788   -1.573641
     29          6           0       -2.410650    0.804619   -0.988481
     30          1           0       -2.328310   -2.151611    0.622339
     31          1           0       -4.544870   -2.330812   -0.395041
     32          1           0       -5.431680   -0.498172   -1.815671
     33          1           0       -4.029800    1.517158   -2.189391
     34          1           0       -1.838801    1.706809   -1.165811
     35          7           0        0.916060   -0.302261    2.348889
     36          1           0        1.742080   -0.240890    1.778189
     37          1           0        1.057530   -0.796461    3.214929
 ---------------------------------------------------------------------

 SCF Done:  E(RwB97XD) =  -805.274068575     A.U. after    1 cycles

 The electronic state is 1-A.
 Alpha  occ. eigenvalues --  -19.19224 -14.49322 -14.42962 -10.37093 -10.34500
 Alpha  occ. eigenvalues --  -10.31649 -10.31232 -10.29901 -10.29584 -10.29530
 Alpha  occ. eigenvalues --  -10.29479 -10.29429 -10.29395 -10.28106 -10.27959
 Alpha  occ. eigenvalues --  -10.27681 -10.27576 -10.27188 -10.25799  -1.11737
 Alpha  occ. eigenvalues --   -1.04642  -0.98610  -0.97330  -0.95610  -0.90505
 Alpha  occ. eigenvalues --   -0.86461  -0.85736  -0.83897  -0.81544  -0.79283
 Alpha  occ. eigenvalues --   -0.75016  -0.71080  -0.70176  -0.69130  -0.68074
 Alpha  occ. eigenvalues --   -0.64396  -0.63783  -0.62356  -0.60573  -0.58497
 Alpha  occ. eigenvalues --   -0.57206  -0.56720  -0.55733  -0.54131  -0.53772
 Alpha  occ. eigenvalues --   -0.52903  -0.52506  -0.51561  -0.51142  -0.49892
 Alpha  occ. eigenvalues --   -0.49446  -0.48801  -0.47656  -0.47554  -0.46667
 Alpha  occ. eigenvalues --   -0.45425  -0.44100  -0.43673  -0.42626  -0.41692
 Alpha  occ. eigenvalues --   -0.41350  -0.35619  -0.34322  -0.34160  -0.33790
 Alpha  occ. eigenvalues --   -0.33175  -0.32178  -0.25409
 Alpha virt. eigenvalues --    0.02716   0.04663   0.06126   0.06383   0.08125
 Alpha virt. eigenvalues --    0.10003   0.12671   0.13092   0.13391   0.14754
 Alpha virt. eigenvalues --    0.15198   0.15916   0.16622   0.16952   0.17381

 Mulliken charges:
               1
     1  C   -0.169334
     2  C    0.233519
     3  O   -0.534220
     4  C   -0.022507
     5  C   -0.305243
     6  H    0.163519
     7  H    0.159062
     8  H    0.159166
     9  N   -0.296736
    10  H    0.288547
    11  H    0.287670
    12  H    0.174496
    13  C    0.081779
    14  C   -0.234882
    15  C   -0.143393
    16  C   -0.151385
    17  C   -0.110886
    18  C   -0.248967
    19  H    0.129838
    20  H    0.146170
    21  H    0.147509
    22  H    0.146495
    23  H    0.168007
    24  C    0.244503
    25  C   -0.267860
    26  C   -0.133737
    27  C   -0.177730
    28  C   -0.186403
    29  C   -0.271889
    30  H    0.128853
    31  H    0.132025
    32  H    0.134830
    33  H    0.132992
    34  H    0.145464
    35  N   -0.465743
    36  H    0.264681
    37  H    0.251787
 Sum of Mulliken charges =  -0.00000

 Dipole moment (field-independent basis, Debye):
    X=              8.9821    Y=              7.8114    Z=             -3.2430  Tot=             12.3375
 Quadrupole moment (field-independent basis, Debye-Ang):
   XX=           -106.8555   YY=            -91.6589   ZZ=           -124.1024
   XY=             -0.9560   XZ=              8.8847   YZ=              2.3653

  Exact polarizability: 360.322  21.155 294.214   8.530 -28.051 229.799
 Approx polarizability: 267.053  17.112 248.685   3.358 -25.776 194.081

 ******    1 imaginary frequencies (negative Signs) ******

                      1                      2                      3
                      A                      A                      A
 Frequencies --   -357.9860                41.1397                45.1188
 Red. masses --      5.4098                 4.1712                 3.9436
 Frc consts  --      0.4085                 0.0042                 0.0047
 IR Inten    --    607.5365                 2.1461                 0.4345

                      4                      5                      6
                      A                      A                      A
 Frequencies --     60.7705                76.4236               100.6808
 Red. masses --      4.2873                 6.4929                 3.0765
 Frc consts  --      0.0093                 0.0223                 0.0184
 IR Inten    --      2.3149                13.8304                 0.2768

                      7                      8                      9
                      A                      A                      A
 Frequencies --    118.6334               122.6086               136.6560
 Red. masses --      3.0346                 4.2373                 2.4944
 Frc consts  --      0.0252                 0.0375                 0.0274
 IR Inten    --     18.0784                 3.4203                 8.3757

                     10                     11                     12
                      A                      A                      A
 Frequencies --    163.6740               181.3292               221.4064
 Red. masses --      3.5727                 1.3062                 4.7111
 Frc consts  --      0.0564                 0.0253                 0.1361
 IR Inten    --      1.3848                 2.6254                 2.1425

                     13                     14                     15
                      A                      A                      A
 Frequencies --    235.5093               280.1315               304.7704
 Red. masses --      4.4439                 4.4992                 5.4641
 Frc consts  --      0.1452                 0.2080                 0.2990
 IR Inten    --      7.7511                 4.3985                12.7867

                     16                     17                     18
                      A                      A                      A
 Frequencies --    323.8587               387.8251               404.6850
 Red. masses --      3.5324                 3.6093                 3.6855
 Frc consts  --      0.2183                 0.3199                 0.3556
 IR Inten    --     17.2474                 5.9326                44.6718

                     19                     20                     21
                      A                      A                      A
 Frequencies --    425.0396               425.1862               455.1958
 Red. masses --      2.8795                 2.9260                 2.0002
 Frc consts  --      0.3065                 0.3117                 0.2442
 IR Inten    --      2.1165                 1.0236                13.9626

                     22                     23                     24
                      A                      A                      A
 Frequencies --    474.8573               517.3221               533.6943
 Red. masses --      1.7114                 3.2468                 1.4992
 Frc consts  --      0.2274                 0.5120                 0.2516
 IR Inten    --     36.1129               110.7496               308.3738

                     25                     26                     27
                      A                      A                      A
 Frequencies --    565.5742               599.6102               628.1239
 Red. masses --      2.3702                 3.2780                 3.8424
 Frc consts  --      0.4467                 0.6944                 0.8932
 IR Inten    --     66.3944                78.0943                41.0550

                     28                     29                     30
                      A                      A                      A
 Frequencies --    637.4758               641.6596               643.8593
 Red. masses --      5.4609                 5.9761                 2.8491
 Frc consts  --      1.3075                 1.4497                 0.6959
 IR Inten    --      4.4522                17.0001                15.9470

                     31                     32                     33
                      A                      A                      A
 Frequencies --    710.5904               723.9408               726.9027
 Red. masses --      3.1024                 1.5987                 1.7820
 Frc consts  --      0.9230                 0.4936                 0.5548
 IR Inten    --     20.6814                81.2390                65.1647

                     34                     35                     36
                      A                      A                      A
 Frequencies --    756.3584               777.3264               813.6744
 Red. masses --      2.0156                 2.8294                 3.6213
 Frc consts  --      0.6794                 1.0073                 1.4126
 IR Inten    --     54.1790                11.0082               113.6827

                     37                     38                     39
                      A                      A                      A
 Frequencies --    825.7916               860.4660               868.5224
 Red. masses --      3.0594                 2.7542                 1.5169
 Frc consts  --      1.2292                 1.2015                 0.6742
 IR Inten    --     36.1884                 9.9377                 0.9402

                     40                     41                     42
                      A                      A                      A
 Frequencies --    878.6842               934.5228               963.2978
 Red. masses --      1.2661                 1.5193                 1.4896
 Frc consts  --      0.5759                 0.7818                 0.8144
 IR Inten    --      0.1423                11.0279                 3.7278

                     43                     44                     45
                      A                      A                      A
 Frequencies --    991.8293              1002.6633              1012.9065
 Red. masses --      3.6329                 1.3535                 1.2899
 Frc consts  --      2.1056                 0.8017                 0.7797
 IR Inten    --     29.0451                 0.5044                 1.5549

                     46                     47                     48
                      A                      A                      A
 Frequencies --   1018.5804              1018.9531              1024.8090
 Red. masses --      4.5419                 1.4505                 3.3704
 Frc consts  --      2.7764                 0.8873                 2.0855
 IR Inten    --      5.5736                 2.6291                 2.9901

                     49                     50                     51
                      A                      A                      A
 Frequencies --   1028.4182              1036.2974              1061.7938
 Red. masses --      1.3197                 1.3180                 1.4905
 Frc consts  --      0.8224                 0.8340                 0.9900
 IR Inten    --     57.5432                 0.5199                43.2409

                     52                     53                     54
                      A                      A                      A
 Frequencies --   1065.5751              1071.7920              1076.5518
 Red. masses --      2.1006                 1.7116                 3.0092
 Frc consts  --      1.4052                 1.1584                 2.0548
 IR Inten    --      9.2036                42.9577                36.5426

                     55                     56                     57
                      A                      A                      A
 Frequencies --   1106.2552              1112.2998              1125.1676
 Red. masses --      1.7543                 1.6219                 1.5879
 Frc consts  --      1.2649                 1.1823                 1.1845
 IR Inten    --     54.0567                10.8184                12.4853

                     58                     59                     60
                      A                      A                      A
 Frequencies --   1161.7383              1180.5866              1186.6129
 Red. masses --      1.1713                 1.1162                 1.1307
 Frc consts  --      0.9314                 0.9166                 0.9380
 IR Inten    --     42.9947                 4.7518                 0.8371

                     61                     62                     63
                      A                      A                      A
 Frequencies --   1205.3884              1215.8953              1219.8540
 Red. masses --      2.5368                 1.1907                 1.2630
 Frc consts  --      2.1717                 1.0371                 1.1073
 IR Inten    --     76.1228                 4.5808                10.9675

                     64                     65                     66
                      A                      A                      A
 Frequencies --   1235.9359              1264.2032              1278.8005
 Red. masses --      1.3324                 3.6426                 1.7100
 Frc consts  --      1.1991                 3.4300                 1.6476
 IR Inten    --     12.9417                13.7685               150.5465

                     67                     68                     69
                      A                      A                      A
 Frequencies --   1312.7076              1328.5988              1351.6214
 Red. masses --      4.3021                 3.5380                 1.4040
 Frc consts  --      4.3678                 3.6796                 1.5112
 IR Inten    --     62.5637                49.6393                34.6734

                     70                     71                     72
                      A                      A                      A
 Frequencies --   1357.1794              1371.0539              1386.4779
 Red. masses --      1.7833                 1.3866                 2.7355
 Frc consts  --      1.9353                 1.5357                 3.0982
 IR Inten    --     72.2228                 7.0398               311.0113

                     73                     74                     75
                      A                      A                      A
 Frequencies --   1449.7884              1466.8356              1488.1835
 Red. masses --      1.3657                 2.0422                 2.2982
 Frc consts  --      1.6913                 2.5888                 2.9989
 IR Inten    --     85.3549               158.5266                 6.6291

                     76                     77                     78
                      A                      A                      A
 Frequencies --   1496.5118              1498.9161              1500.0597
 Red. masses --      1.0473                 2.3568                 1.0571
 Frc consts  --      1.3819                 3.1198                 1.4015
 IR Inten    --     29.6694               112.2345                13.5081

                     79                     80                     81
                      A                      A                      A
 Frequencies --   1539.6417              1546.1052              1611.9511
 Red. masses --      2.2740                 2.2646                 1.7720
 Frc consts  --      3.1760                 3.1895                 2.7128
 IR Inten    --    182.2115                10.0207               558.8541

                     82                     83                     84
                      A                      A                      A
 Frequencies --   1634.5587              1644.8369              1647.5274
 Red. masses --      4.6095                 2.3141                 1.8251
 Frc consts  --      7.2561                 3.6887                 2.9189
 IR Inten    --     18.2020               159.1071               307.6067

                     85                     86                     87
                      A                      A                      A
 Frequencies --   1654.0599              1669.5225              1675.6996
 Red. masses --      2.0535                 5.8249                 5.5823
 Frc consts  --      3.3102                 9.5658                 9.2354
 IR Inten    --     35.0846               315.3724                 9.9261

                     88                     89                     90
                      A                      A                      A
 Frequencies --   3071.3720              3148.5043              3159.8371
 Red. masses --      1.0342                 1.1033                 1.0866
 Frc consts  --      5.7481                 6.4439                 6.3924
 IR Inten    --     33.6768                 4.0697                 7.1926

                     91                     92                     93
                      A                      A                      A
 Frequencies --   3176.3595              3183.7871              3189.6957
 Red. masses --      1.1050                 1.0855                 1.0890
 Frc consts  --      6.5683                 6.4830                 6.5280
 IR Inten    --     18.9795                10.4833                12.3915

                     94                     95                     96
                      A                      A                      A
 Frequencies --   3199.0960              3203.4262              3207.2635
 Red. masses --      1.0861                 1.0917                 1.0892
 Frc consts  --      6.5491                 6.6008                 6.6011
 IR Inten    --      0.5494                47.1772                 4.5923

                     97                     98                     99
                      A                      A                      A
 Frequencies --   3214.4906              3217.0023              3223.7380
 Red. masses --      1.0972                 1.0923                 1.0950
 Frc consts  --      6.6800                 6.6604                 6.7047
 IR Inten    --     30.5792                18.1652                31.9278

                    100                    101                    102
                      A                      A                      A
 Frequencies --   3230.3737              3235.2137              3533.1071
 Red. masses --      1.0960                 1.0928                 1.0511
 Frc consts  --      6.7388                 6.7390                 7.7303
 IR Inten    --     13.8377                 9.1787                43.7494

                    103                    104                    105
                      A                      A                      A
 Frequencies --   3595.1663              3616.1233              3702.6397
 Red. masses --      1.0473                 1.0956                 1.0998
 Frc consts  --      7.9754                 8.4408                 8.8836
 IR Inten    --     48.8254                53.4378                94.4859

 - Thermochemistry -
 -------------------
 Temperature   298.150 Kelvin.  Pressure   1.00000 Atm.
 Atom     1 has atomic number  6 and mass  12.00000

 Molecular mass:   254.14191 amu.
 Principal axes and moments of inertia in atomic units:
                           1         2         3
     Eigenvalues --  2875.513397727.859507865.63970
           X            0.99998  -0.00179   0.00557
           Y            0.00130   0.99616   0.08755
           Z           -0.00571  -0.08754   0.99614
 This molecule is an asymmetric top.
 Rotational symmetry number  1.
 Warning -- assumption of classical behavior for rotation
           may cause significant error
 Rotational temperatures (Kelvin)      0.03012     0.01121     0.01101
 Rotational constants (GHZ):           0.62762     0.23354     0.22945
    1 imaginary frequencies ignored.
 Zero-point vibrational energy     819650.4 (Joules/Mol)
                                  195.90114 (Kcal/Mol)
 Warning -- explicit consideration of  25 degrees of freedom as
           vibrations may cause significant error
 Vibrational temperatures:     59.19    64.92    87.44   109.96   144.86
          (Kelvin)            170.69   176.41   196.62   235.49   260.89
                              318.55   338.85   403.05   438.50   465.96
                              557.99   582.25   611.54   611.75   654.93
                              683.21   744.31   767.87   813.74   862.71
                              903.73   917.19   923.21   926.37  1022.38
                             1041.59  1045.85  1088.23  1118.40  1170.70
                             1188.13  1238.02  1249.61  1264.23  1344.57
                             1385.97  1427.02  1442.61  1457.35  1465.51
                             1466.05  1474.47  1479.66  1491.00  1527.68
                             1533.12  1542.07  1548.92  1591.65  1600.35
                             1618.87  1671.48  1698.60  1707.27  1734.28
                             1749.40  1755.10  1778.24  1818.91  1839.91
                             1888.69  1911.56  1944.68  1952.68  1972.64
                             1994.83  2085.92  2110.45  2141.16  2153.15
                             2156.61  2158.25  2215.20  2224.50  2319.24
                             2351.77  2366.55  2370.42  2379.82  2402.07
                             2410.96  4419.02  4530.00  4546.30  4570.07
                             4580.76  4589.26  4602.79  4609.02  4614.54
                             4624.93  4628.55  4638.24  4647.79  4654.75
                             5083.35  5172.64  5202.79  5327.27

 Zero-point correction=                           0.312188 (Hartree/Particle)
 Thermal correction to Energy=                    0.329240
 Thermal correction to Enthalpy=                  0.330184
 Thermal correction to Gibbs Free Energy=         0.266960
 Sum of electronic and zero-point Energies=           -804.961880
 Sum of electronic and thermal Energies=              -804.944829
 Sum of electronic and thermal Enthalpies=            -804.943885
 Sum of electronic and thermal Free Energies=         -805.007109

                     E (Thermal)             CV                S
                      KCal/Mol        Cal/Mol-Kelvin    Cal/Mol-Kelvin
 Total                  206.601             66.583            133.066
 Electronic               0.000              0.000              0.000
 Translational            0.889              2.981             42.498
 Rotational               0.889              2.981             33.524
 Vibrational            204.824             60.621             57.044
 Vibration     1          0.594              1.981              5.203
 Vibration     2          0.595              1.979              5.021
 Vibration     3          0.597              1.973              4.432
 Vibration     4          0.599              1.965              3.981
 Vibration     5          0.604              1.949              3.441
 Vibration     6          0.609              1.934              3.123
 Vibration     7          0.610              1.930              3.059
 Vibration     8          0.614              1.917              2.850
 Vibration     9          0.623              1.887              2.507
 Vibration    10          0.630              1.865              2.315
 Vibration    11          0.648              1.808              1.948
 Vibration    12          0.655              1.786              1.837
 Vibration    13          0.680              1.710              1.533
 Vibration    14          0.696              1.665              1.391
 Vibration    15          0.708              1.628              1.291
 Vibration    16          0.756              1.496              1.008
 Vibration    17          0.770              1.460              0.946
 Vibration    18          0.787              1.416              0.875
 Vibration    19          0.787              1.415              0.875
 Vibration    20          0.814              1.349              0.780
 Vibration    21          0.832              1.306              0.724
 Vibration    22          0.872              1.212              0.616
 Vibration    23          0.889              1.175              0.579
 Vibration    24          0.921              1.106              0.513
 Vibration    25          0.958              1.033              0.450

 Optimization completed.
    -- Stationary point found.
 Normal termination of Gaussian 16 at Thu Feb 11 15:19:40 2021.
