 Gaussian 16, Revision A.03,
 Gaussian 16:  ES64L-G16RevA.03 25-Dec-2016

 ----------------------------------------------------------------------
 # wB97XD def2tzvp, opt=(ts, noeigen, calcfc, maxcycles=70, maxstep=1),
  freq=noraman, scrf=(iefpcm, solvent=water)
 ----------------------------------------------------------------------

 ------------------------
 0_iteration/TS-251-0.out
 ------------------------
 Symbolic Z-matrix:
 Charge =  0 Multiplicity = 1

 SCF Done:  E(RwB97XD) =  -343.171194557     A.U. after   14 cycles
 SCF Done:  E(RwB97XD) =  -343.171180635     A.U. after   10 cycles
 SCF Done:  E(RwB97XD) =  -343.171170554     A.U. after   10 cycles
 SCF Done:  E(RwB97XD) =  -343.171164627     A.U. after   10 cycles
 SCF Done:  E(RwB97XD) =  -343.171164172     A.U. after   10 cycles
 SCF Done:  E(RwB97XD) =  -343.171176084     A.U. after   10 cycles
 SCF Done:  E(RwB97XD) =  -343.171222444     A.U. after   11 cycles
 SCF Done:  E(RwB97XD) =  -343.171292921     A.U. after   10 cycles
 SCF Done:  E(RwB97XD) =  -343.171367701     A.U. after   10 cycles
 SCF Done:  E(RwB97XD) =  -343.171440361     A.U. after   10 cycles
 SCF Done:  E(RwB97XD) =  -343.171770477     A.U. after   10 cycles
 SCF Done:  E(RwB97XD) =  -343.171805037     A.U. after   10 cycles
 SCF Done:  E(RwB97XD) =  -343.171833670     A.U. after   10 cycles
 SCF Done:  E(RwB97XD) =  -343.171856308     A.U. after   10 cycles
 SCF Done:  E(RwB97XD) =  -343.171872775     A.U. after   10 cycles
 SCF Done:  E(RwB97XD) =  -343.171882869     A.U. after   10 cycles
 SCF Done:  E(RwB97XD) =  -343.171885637     A.U. after    9 cycles
 SCF Done:  E(RwB97XD) =  -343.171884084     A.U. after   10 cycles
 SCF Done:  E(RwB97XD) =  -343.171886408     A.U. after   10 cycles
 Optimization completed.
    -- Stationary point found.
 Normal termination of Gaussian 16 at Tue Feb  9 04:52:19 2021.

 ---------------------------------------------------------------------
 #N Geom=AllCheck Guess=TCheck SCRF=Check GenChk RwB97XD/def2TZVP Freq
 ---------------------------------------------------------------------

 Structure from the checkpoint file:  "/beegfs/scratch/user/q/tla25/Gau-23881.chk"
 ------------------------
 0_iteration/TS-251-0.out
 ------------------------
 Charge =  0 Multiplicity = 1

                         Standard orientation:
 ---------------------------------------------------------------------
 Center     Atomic      Atomic             Coordinates (Angstroms)
 Number     Number       Type             X           Y           Z
 ---------------------------------------------------------------------
      1          6           0       -0.649639   -0.955245    0.252826
      2          6           0       -1.698617   -0.025342   -0.028105
      3          8           0       -2.797139   -0.359916   -0.504748
      4          6           0        0.607669   -0.623025    0.749516
      5          6           0        3.129481    0.342288   -0.082270
      6          1           0        3.787931    0.671088   -0.886439
      7          1           0        3.007214    1.155057    0.632183
      8          1           0        3.584028   -0.506371    0.426474
      9          7           0        1.813388   -0.053288   -0.578795
     10          1           0        1.337598    0.709698   -1.046116
     11          1           0        1.867938   -0.826486   -1.231068
     12          1           0        1.234418   -1.436076    1.100129
     13          1           0        0.737297    0.274017    1.349006
     14          1           0       -0.836545   -1.971903   -0.068309
     15          7           0       -1.472415    1.323872    0.196843
     16          1           0       -0.754705    1.601231    0.844197
     17          1           0       -2.308229    1.882935    0.239789
 ---------------------------------------------------------------------

 SCF Done:  E(RwB97XD) =  -343.171886408     A.U. after    1 cycles

 The electronic state is 1-A.
 Alpha  occ. eigenvalues --  -19.18622 -14.48221 -14.42738 -10.36320 -10.32562
 Alpha  occ. eigenvalues --  -10.31845 -10.23760  -1.10836  -1.03655  -0.97909
 Alpha  occ. eigenvalues --   -0.86248  -0.78820  -0.73162  -0.64217  -0.63453
 Alpha  occ. eigenvalues --   -0.60504  -0.57220  -0.53858  -0.53010  -0.51962
 Alpha  occ. eigenvalues --   -0.48458  -0.48007  -0.47267  -0.44506  -0.43289
 Alpha  occ. eigenvalues --   -0.34578  -0.32580  -0.26544
 Alpha virt. eigenvalues --    0.07460   0.09913   0.13495   0.14273   0.15297
 Alpha virt. eigenvalues --    0.16728   0.18056   0.18436   0.19421   0.20758
 Alpha virt. eigenvalues --    0.21324   0.22079   0.23893   0.26049   0.27348

 Mulliken charges:
               1
     1  C   -0.404927
     2  C    0.313984
     3  O   -0.575072
     4  C   -0.215492
     5  C   -0.271249
     6  H    0.152635
     7  H    0.150205
     8  H    0.150307
     9  N   -0.300299
    10  H    0.276483
    11  H    0.277944
    12  H    0.159074
    13  H    0.154633
    14  H    0.112731
    15  N   -0.486057
    16  H    0.252230
    17  H    0.252871
 Sum of Mulliken charges =  -0.00000

 Dipole moment (field-independent basis, Debye):
    X=             11.7733    Y=              3.1172    Z=              0.8127  Tot=             12.2061
 Quadrupole moment (field-independent basis, Debye-Ang):
   XX=            -50.8862   YY=            -39.9881   ZZ=            -43.0256
   XY=             -7.0969   XZ=             -7.0106   YZ=              2.5959

  Exact polarizability: 145.270   3.244  89.482   4.036   0.065  76.686
 Approx polarizability: 103.769   3.462  74.027   4.327   0.678  65.601

 ******    1 imaginary frequencies (negative Signs) ******

                      1                      2                      3
                      A                      A                      A
 Frequencies --   -368.8617                48.6400                77.9402
 Red. masses --      6.1105                 2.5967                 4.5503
 Frc consts  --      0.4898                 0.0036                 0.0163
 IR Inten    --    948.2981                 4.2961                18.1044

                      4                      5                      6
                      A                      A                      A
 Frequencies --     91.1026               176.0812               204.6319
 Red. masses --      2.1649                 1.2115                 2.8014
 Frc consts  --      0.0106                 0.0221                 0.0691
 IR Inten    --      7.6532                 2.5813                10.8924

                      7                      8                      9
                      A                      A                      A
 Frequencies --    322.8556               390.8259               440.9382
 Red. masses --      2.5102                 1.8219                 1.7489
 Frc consts  --      0.1542                 0.1640                 0.2003
 IR Inten    --     13.8269                25.3053               426.5606

                     10                     11                     12
                      A                      A                      A
 Frequencies --    479.1774               553.6983               589.9866
 Red. masses --      1.2603                 2.8216                 2.8334
 Frc consts  --      0.1705                 0.5097                 0.5811
 IR Inten    --    154.9725                14.9151                11.2197

                     13                     14                     15
                      A                      A                      A
 Frequencies --    628.7263               703.8663               799.0549
 Red. masses --      1.2531                 1.2391                 6.4458
 Frc consts  --      0.2918                 0.3617                 2.4248
 IR Inten    --     34.7451                57.9855               116.7786

                     16                     17                     18
                      A                      A                      A
 Frequencies --    860.6142               972.7440              1024.5687
 Red. masses --      2.3954                 1.4105                 1.2916
 Frc consts  --      1.0453                 0.7863                 0.7988
 IR Inten    --      2.5289                 2.4288                41.3578

                     19                     20                     21
                      A                      A                      A
 Frequencies --   1032.2117              1075.5330              1106.2349
 Red. masses --      1.2175                 3.4030                 1.6352
 Frc consts  --      0.7643                 2.3193                 1.1790
 IR Inten    --     31.7459               267.7376                53.7051

                     22                     23                     24
                      A                      A                      A
 Frequencies --   1171.5898              1209.3528              1229.1581
 Red. masses --      1.1113                 1.1474                 1.4555
 Frc consts  --      0.8987                 0.9887                 1.2956
 IR Inten    --     73.2454               251.8617                59.1811

                     25                     26                     27
                      A                      A                      A
 Frequencies --   1271.8537              1341.0233              1360.7662
 Red. masses --      1.4373                 1.3263                 2.2445
 Frc consts  --      1.3699                 1.4053                 2.4487
 IR Inten    --     71.6361                 4.4458               206.4323

                     28                     29                     30
                      A                      A                      A
 Frequencies --   1429.6951              1464.5441              1491.0802
 Red. masses --      2.3008                 1.1835                 1.0401
 Frc consts  --      2.7709                 1.4956                 1.3624
 IR Inten    --    237.5317                 3.8026                14.7040

                     31                     32                     33
                      A                      A                      A
 Frequencies --   1506.6653              1532.5825              1615.2408
 Red. masses --      1.0303                 1.6947                 1.5427
 Frc consts  --      1.3780                 2.3453                 2.3714
 IR Inten    --     15.9784                60.1113               538.5632

                     34                     35                     36
                      A                      A                      A
 Frequencies --   1642.2581              1647.2612              3068.1779
 Red. masses --      2.3562                 1.2064                 1.0330
 Frc consts  --      3.7441                 1.9287                 5.7295
 IR Inten    --    962.9398                68.0927                50.8101

                     37                     38                     39
                      A                      A                      A
 Frequencies --   3120.4348              3147.2190              3160.7547
 Red. masses --      1.0616                 1.1054                 1.1058
 Frc consts  --      6.0906                 6.4512                 6.5090
 IR Inten    --     53.5912                17.2463                19.1007

                     40                     41                     42
                      A                      A                      A
 Frequencies --   3191.3776              3207.5925              3527.2036
 Red. masses --      1.1002                 1.1008                 1.0509
 Frc consts  --      6.6022                 6.6732                 7.7030
 IR Inten    --      4.8570                30.2248                19.3677

                     43                     44                     45
                      A                      A                      A
 Frequencies --   3603.6119              3609.7786              3714.9967
 Red. masses --      1.0469                 1.0968                 1.1006
 Frc consts  --      8.0100                 8.4208                 8.9492
 IR Inten    --     25.4960                44.1759                38.7152

 - Thermochemistry -
 -------------------
 Temperature   298.150 Kelvin.  Pressure   1.00000 Atm.
 Atom     1 has atomic number  6 and mass  12.00000

 Molecular mass:   102.07931 amu.
 Principal axes and moments of inertia in atomic units:
                           1         2         3
     Eigenvalues --   299.426231561.175741684.23213
           X            0.99997  -0.00455  -0.00585
           Y            0.00471   0.99961   0.02743
           Z            0.00573  -0.02745   0.99961
 This molecule is an asymmetric top.
 Rotational symmetry number  1.
 Rotational temperatures (Kelvin)      0.28927     0.05548     0.05143
 Rotational constants (GHZ):           6.02733     1.15601     1.07155
    1 imaginary frequencies ignored.
 Zero-point vibrational energy     387851.2 (Joules/Mol)
                                   92.69865 (Kcal/Mol)
 Warning -- explicit consideration of  11 degrees of freedom as
           vibrations may cause significant error
 Vibrational temperatures:     69.98   112.14   131.08   253.34   294.42
          (Kelvin)            464.52   562.31   634.41   689.43   796.65
                              848.86   904.60  1012.71  1149.66  1238.23
                             1399.56  1474.13  1485.12  1547.45  1591.63
                             1685.66  1739.99  1768.48  1829.91  1929.43
                             1957.84  2057.01  2107.15  2145.33  2167.76
                             2205.04  2323.97  2362.84  2370.04  4414.42
                             4489.61  4528.15  4547.62  4591.68  4615.01
                             5074.86  5184.79  5193.67  5345.05

 Zero-point correction=                           0.147725 (Hartree/Particle)
 Thermal correction to Energy=                    0.156324
 Thermal correction to Enthalpy=                  0.157268
 Thermal correction to Gibbs Free Energy=         0.113824
 Sum of electronic and zero-point Energies=           -343.024162
 Sum of electronic and thermal Energies=              -343.015563
 Sum of electronic and thermal Enthalpies=            -343.014618
 Sum of electronic and thermal Free Energies=         -343.058063

                     E (Thermal)             CV                S
                      KCal/Mol        Cal/Mol-Kelvin    Cal/Mol-Kelvin
 Total                   98.095             29.786             91.436
 Electronic               0.000              0.000              0.000
 Translational            0.889              2.981             39.779
 Rotational               0.889              2.981             28.156
 Vibrational             96.317             23.824             23.501
 Vibration     1          0.595              1.978              4.872
 Vibration     2          0.599              1.964              3.942
 Vibration     3          0.602              1.956              3.636
 Vibration     4          0.628              1.872              2.370
 Vibration     5          0.640              1.833              2.091
 Vibration     6          0.708              1.630              1.296
 Vibration     7          0.759              1.490              0.997
 Vibration     8          0.801              1.381              0.824
 Vibration     9          0.836              1.296              0.712
 Vibration    10          0.909              1.132              0.537
 Vibration    11          0.947              1.053              0.467

 Optimization completed.
    -- Stationary point found.
 Normal termination of Gaussian 16 at Tue Feb  9 04:57:00 2021.
