 Gaussian 16, Revision A.03,
 Gaussian 16:  ES64L-G16RevA.03 25-Dec-2016

 ----------------------------------------------------------------------
 # wB97XD def2tzvp, opt=(ts, noeigen, calcfc, maxcycles=70, maxstep=8),
  freq=noraman, scrf=(iefpcm, solvent=water)
 ----------------------------------------------------------------------

 ------------------------
 1_iteration/TS-264-1.out
 ------------------------
 Symbolic Z-matrix:
 Charge =  0 Multiplicity = 1

 SCF Done:  E(RwB97XD) =  -558.159881277     A.U. after   15 cycles
 SCF Done:  E(RwB97XD) =  -558.159881046     A.U. after    7 cycles
 Optimization completed.
    -- Stationary point found.
 Normal termination of Gaussian 16 at Wed Feb 10 09:09:33 2021.

 ---------------------------------------------------------------------
 #N Geom=AllCheck Guess=TCheck SCRF=Check GenChk RwB97XD/def2TZVP Freq
 ---------------------------------------------------------------------

 Structure from the checkpoint file:  "/beegfs/scratch/user/q/tla25/Gau-55412.chk"
 ------------------------
 1_iteration/TS-264-1.out
 ------------------------
 Charge =  0 Multiplicity = 1

                         Standard orientation:
 ---------------------------------------------------------------------
 Center     Atomic      Atomic             Coordinates (Angstroms)
 Number     Number       Type             X           Y           Z
 ---------------------------------------------------------------------
      1          6           0        1.537787   -0.946760    0.355160
      2          6           0        0.317508   -1.450605   -0.166512
      3          8           0        0.218150   -2.548711   -0.742004
      4          6           0        1.626576    0.349201    0.852707
      5          6           0        2.141487    3.025580   -0.056424
      6          1           0        2.933574    3.083610    0.688850
      7          1           0        2.357115    3.733240   -0.858131
      8          1           0        1.199093    3.301562    0.415023
      9          7           0        2.044493    1.652178   -0.540033
     10          1           0        1.297457    1.536601   -1.214284
     11          1           0        2.905129    1.337120   -0.970272
     12          1           0        2.498446    0.619308    1.438786
     13          1           0        0.725625    0.873262    1.142874
     14          6           0        2.777892   -1.783987    0.184067
     15          1           0        3.616583   -1.350494    0.732346
     16          1           0        2.627303   -2.802934    0.548050
     17          1           0        3.079206   -1.869745   -0.865720
     18          6           0       -0.942981   -0.628610   -0.043177
     19          6           0       -1.533845   -0.111321   -1.192160
     20          6           0       -2.712448    0.615560   -1.113175
     21          6           0       -3.323038    0.819989    0.116893
     22          6           0       -2.746394    0.297048    1.265607
     23          6           0       -1.559855   -0.418553    1.185971
     24          1           0       -1.063605   -0.278193   -2.154299
     25          1           0       -3.156483    1.021967   -2.013436
     26          1           0       -4.245376    1.383574    0.179306
     27          1           0       -3.220032    0.448156    2.227694
     28          1           0       -1.106819   -0.817841    2.085729
 ---------------------------------------------------------------------

 SCF Done:  E(RwB97XD) =  -558.159881046     A.U. after    1 cycles

 The electronic state is 1-A.
 Alpha  occ. eigenvalues --  -19.20016 -14.47406 -10.34344 -10.32262 -10.31598
 Alpha  occ. eigenvalues --  -10.29383 -10.29029 -10.29023 -10.28955 -10.28951
 Alpha  occ. eigenvalues --  -10.28867 -10.26443 -10.25462  -1.10395  -1.02889
 Alpha  occ. eigenvalues --   -0.96488  -0.89566  -0.85540  -0.85051  -0.78943
 Alpha  occ. eigenvalues --   -0.77711  -0.73927  -0.70372  -0.68814  -0.62871
 Alpha  occ. eigenvalues --   -0.62649  -0.58674  -0.56696  -0.55283  -0.54755
 Alpha  occ. eigenvalues --   -0.53374  -0.52837  -0.52182  -0.50918  -0.49245
 Alpha  occ. eigenvalues --   -0.48081  -0.47704  -0.46913  -0.45286  -0.44391
 Alpha  occ. eigenvalues --   -0.44069  -0.42887  -0.42467  -0.41762  -0.33997
 Alpha  occ. eigenvalues --   -0.33655  -0.31234  -0.26677
 Alpha virt. eigenvalues --    0.04204   0.05203   0.06181   0.09756   0.12918
 Alpha virt. eigenvalues --    0.13491   0.14091   0.15432   0.16014   0.16523
 Alpha virt. eigenvalues --    0.16894   0.17340   0.18857   0.19391   0.20046

 Mulliken charges:
               1
     1  C   -0.137034
     2  C    0.203237
     3  O   -0.528969
     4  C   -0.224850
     5  C   -0.269616
     6  H    0.148146
     7  H    0.148808
     8  H    0.147851
     9  N   -0.339465
    10  H    0.269845
    11  H    0.279215
    12  H    0.164138
    13  H    0.176506
    14  C   -0.381629
    15  H    0.119027
    16  H    0.115685
    17  H    0.112181
    18  C    0.207941
    19  C   -0.248027
    20  C   -0.143453
    21  C   -0.152561
    22  C   -0.122159
    23  C   -0.266419
    24  H    0.144667
    25  H    0.142345
    26  H    0.144100
    27  H    0.142620
    28  H    0.147871
 Sum of Mulliken charges =  -0.00000

 Dipole moment (field-independent basis, Debye):
    X=              3.7044    Y=             10.9745    Z=              0.4568  Tot=             11.5919
 Quadrupole moment (field-independent basis, Debye-Ang):
   XX=            -64.7669   YY=            -88.4078   ZZ=            -73.4717
   XY=              7.5042   XZ=             -2.7719   YZ=             -7.5317

  Exact polarizability: 211.595  -4.612 213.748   2.070   2.792 183.974
 Approx polarizability: 161.117  -6.205 168.001   1.321   3.304 159.562

 ******    1 imaginary frequencies (negative Signs) ******

                      1                      2                      3
                      A                      A                      A
 Frequencies --   -365.0707                25.2371                36.2955
 Red. masses --      6.2959                 3.9474                 3.3493
 Frc consts  --      0.4944                 0.0015                 0.0026
 IR Inten    --   1113.7377                 1.5192                 1.0032

                      4                      5                      6
                      A                      A                      A
 Frequencies --     54.7343                79.7306               101.4135
 Red. masses --      2.2775                 2.9283                 1.2858
 Frc consts  --      0.0040                 0.0110                 0.0078
 IR Inten    --      4.6147                10.0545                 0.8785

                      7                      8                      9
                      A                      A                      A
 Frequencies --    111.6157               129.4207               174.4254
 Red. masses --      2.3889                 2.2036                 1.3859
 Frc consts  --      0.0175                 0.0217                 0.0248
 IR Inten    --      4.2915                 2.3319                 3.0718

                     10                     11                     12
                      A                      A                      A
 Frequencies --    193.7691               236.5104               275.3905
 Red. masses --      3.0579                 3.6637                 4.3879
 Frc consts  --      0.0676                 0.1207                 0.1961
 IR Inten    --      2.5512                24.2958                16.4547

                     13                     14                     15
                      A                      A                      A
 Frequencies --    313.6042               364.4209               415.9180
 Red. masses --      3.6154                 5.0903                 2.8795
 Frc consts  --      0.2095                 0.3983                 0.2935
 IR Inten    --      2.3134                11.4729                 2.0812

                     16                     17                     18
                      A                      A                      A
 Frequencies --    438.2400               473.2449               580.4866
 Red. masses --      2.6474                 3.9135                 3.2203
 Frc consts  --      0.2996                 0.5164                 0.6393
 IR Inten    --     45.2147               129.8941                 5.1932

                     19                     20                     21
                      A                      A                      A
 Frequencies --    609.1537               635.7613               648.1079
 Red. masses --      1.1273                 6.3469                 5.4789
 Frc consts  --      0.2465                 1.5115                 1.3559
 IR Inten    --     24.2716                 0.8111                34.6367

                     22                     23                     24
                      A                      A                      A
 Frequencies --    727.6367               740.4919               772.4901
 Red. masses --      1.5961                 3.8550                 4.2991
 Frc consts  --      0.4979                 1.2454                 1.5115
 IR Inten    --     83.0166                 3.7882                64.2473

                     25                     26                     27
                      A                      A                      A
 Frequencies --    814.8821               879.9864               909.2327
 Red. masses --      2.8361                 1.2481                 2.2945
 Frc consts  --      1.1096                 0.5694                 1.1176
 IR Inten    --     38.8463                 0.2353                12.8243

                     28                     29                     30
                      A                      A                      A
 Frequencies --    942.8029               967.5377              1001.5335
 Red. masses --      1.4464                 1.6015                 1.1171
 Frc consts  --      0.7575                 0.8833                 0.6602
 IR Inten    --     10.6295                41.7817                53.5844

                     31                     32                     33
                      A                      A                      A
 Frequencies --   1010.0195              1015.2613              1025.2712
 Red. masses --      1.3719                 1.1657                 6.1557
 Frc consts  --      0.8246                 0.7080                 3.8125
 IR Inten    --      1.9502               124.7245                 1.0619

                     34                     35                     36
                      A                      A                      A
 Frequencies --   1028.6612              1037.7952              1054.9855
 Red. masses --      1.3114                 2.1119                 1.5479
 Frc consts  --      0.8176                 1.3401                 1.0151
 IR Inten    --      4.6820               118.9071                14.8653

                     37                     38                     39
                      A                      A                      A
 Frequencies --   1065.9274              1075.4986              1108.9306
 Red. masses --      1.7991                 3.8685                 1.5448
 Frc consts  --      1.2044                 2.6364                 1.1192
 IR Inten    --     28.1728               138.7401                 9.9505

                     40                     41                     42
                      A                      A                      A
 Frequencies --   1131.2662              1182.4751              1187.0036
 Red. masses --      1.2338                 1.1378                 1.1285
 Frc consts  --      0.9303                 0.9373                 0.9368
 IR Inten    --     11.5490                 0.2420               204.0557

                     43                     44                     45
                      A                      A                      A
 Frequencies --   1205.5223              1210.1354              1237.8181
 Red. masses --      1.1218                 1.4318                 2.7965
 Frc consts  --      0.9606                 1.2354                 2.5245
 IR Inten    --      0.1872                25.7254                38.0415

                     46                     47                     48
                      A                      A                      A
 Frequencies --   1318.9388              1341.2029              1356.8744
 Red. masses --      4.3641                 1.3328                 1.4655
 Frc consts  --      4.4729                 1.4126                 1.5897
 IR Inten    --      4.4737                 0.6835                 1.4843

                     49                     50                     51
                      A                      A                      A
 Frequencies --   1387.4343              1415.7051              1437.5378
 Red. masses --      1.5219                 1.4742                 4.0482
 Frc consts  --      1.7261                 1.7408                 4.9289
 IR Inten    --    160.2889                85.9681               277.8703

                     52                     53                     54
                      A                      A                      A
 Frequencies --   1462.9846              1467.7582              1486.6840
 Red. masses --      1.1939                 1.0587                 2.1397
 Frc consts  --      1.5055                 1.3438                 2.7864
 IR Inten    --      8.2141                11.8620                 6.9829

                     55                     56                     57
                      A                      A                      A
 Frequencies --   1490.1405              1492.4406              1507.0648
 Red. masses --      1.0424                 1.1052                 1.0311
 Frc consts  --      1.3638                 1.4505                 1.3798
 IR Inten    --     12.3829                35.0458                13.3678

                     58                     59                     60
                      A                      A                      A
 Frequencies --   1538.2611              1540.6930              1605.3456
 Red. masses --      2.1259                 2.2333                 9.0343
 Frc consts  --      2.9638                 3.1235                13.7177
 IR Inten    --    300.4910               184.4461               876.2851

                     61                     62                     63
                      A                      A                      A
 Frequencies --   1648.1305              1648.3976              1673.6205
 Red. masses --      1.1950                 3.9780                 5.8965
 Frc consts  --      1.9125                 6.3686                 9.7310
 IR Inten    --     37.2974                12.1500                 1.9382

                     64                     65                     66
                      A                      A                      A
 Frequencies --   3021.2301              3062.3002              3078.9235
 Red. masses --      1.0435                 1.0338                 1.0924
 Frc consts  --      5.6120                 5.7120                 6.1013
 IR Inten    --     92.1572                63.8626                51.2798

                     67                     68                     69
                      A                      A                      A
 Frequencies --   3116.0968              3138.2078              3148.1920
 Red. masses --      1.1017                 1.1039                 1.0626
 Frc consts  --      6.3026                 6.4053                 6.2048
 IR Inten    --     35.9774                23.4948                52.1409

                     70                     71                     72
                      A                      A                      A
 Frequencies --   3156.3542              3188.8486              3191.9050
 Red. masses --      1.1055                 1.0862                 1.0881
 Frc consts  --      6.4889                 6.5075                 6.5313
 IR Inten    --     20.2025                 4.6166                 2.1173

                     73                     74                     75
                      A                      A                      A
 Frequencies --   3201.0938              3208.8082              3219.9382
 Red. masses --      1.0912                 1.0950                 1.0988
 Frc consts  --      6.5879                 6.6428                 6.7119
 IR Inten    --      8.3613                42.8011                19.8738

                     76                     77                     78
                      A                      A                      A
 Frequencies --   3238.6836              3530.7917              3616.1707
 Red. masses --      1.1135                 1.0506                 1.0967
 Frc consts  --      6.8812                 7.7164                 8.4493
 IR Inten    --     10.1105                14.5341                44.2275

 - Thermochemistry -
 -------------------
 Temperature   298.150 Kelvin.  Pressure   1.00000 Atm.
 Atom     1 has atomic number  6 and mass  12.00000

 Molecular mass:   177.11536 amu.
 Principal axes and moments of inertia in atomic units:
                           1         2         3
     Eigenvalues --  1871.178903105.525164126.29069
           X            0.99996   0.00891   0.00062
           Y           -0.00890   0.99988  -0.01289
           Z           -0.00074   0.01289   0.99992
 This molecule is an asymmetric top.
 Rotational symmetry number  1.
 Warning -- assumption of classical behavior for rotation
           may cause significant error
 Rotational temperatures (Kelvin)      0.04629     0.02789     0.02099
 Rotational constants (GHZ):           0.96449     0.58114     0.43738
    1 imaginary frequencies ignored.
 Zero-point vibrational energy     629040.8 (Joules/Mol)
                                  150.34435 (Kcal/Mol)
 Warning -- explicit consideration of  18 degrees of freedom as
           vibrations may cause significant error
 Vibrational temperatures:     36.31    52.22    78.75   114.71   145.91
          (Kelvin)            160.59   186.21   250.96   278.79   340.29
                              396.23   451.21   524.32   598.41   630.53
                              680.89   835.19   876.44   914.72   932.48
                             1046.91  1065.40  1111.44  1172.43  1266.10
                             1308.18  1356.48  1392.07  1440.98  1453.19
                             1460.73  1475.14  1480.01  1493.16  1517.89
                             1533.63  1547.40  1595.50  1627.64  1701.32
                             1707.83  1734.48  1741.11  1780.94  1897.66
                             1929.69  1952.24  1996.21  2036.88  2068.30
                             2104.91  2111.78  2139.01  2143.98  2147.29
                             2168.33  2213.21  2216.71  2309.73  2371.29
                             2371.68  2407.97  4346.88  4405.97  4429.88
                             4483.37  4515.18  4529.55  4541.29  4588.04
                             4592.44  4605.66  4616.76  4632.77  4659.74
                             5080.02  5202.86

 Zero-point correction=                           0.239589 (Hartree/Particle)
 Thermal correction to Energy=                    0.253270
 Thermal correction to Enthalpy=                  0.254214
 Thermal correction to Gibbs Free Energy=         0.197155
 Sum of electronic and zero-point Energies=           -557.920292
 Sum of electronic and thermal Energies=              -557.906611
 Sum of electronic and thermal Enthalpies=            -557.905667
 Sum of electronic and thermal Free Energies=         -557.962726

                     E (Thermal)             CV                S
                      KCal/Mol        Cal/Mol-Kelvin    Cal/Mol-Kelvin
 Total                  158.929             49.023            120.090
 Electronic               0.000              0.000              0.000
 Translational            0.889              2.981             41.422
 Rotational               0.889              2.981             31.550
 Vibrational            157.152             43.061             47.118
 Vibration     1          0.593              1.985              6.172
 Vibration     2          0.594              1.982              5.452
 Vibration     3          0.596              1.976              4.639
 Vibration     4          0.600              1.963              3.897
 Vibration     5          0.604              1.948              3.427
 Vibration     6          0.607              1.940              3.241
 Vibration     7          0.612              1.924              2.955
 Vibration     8          0.627              1.874              2.387
 Vibration     9          0.635              1.849              2.191
 Vibration    10          0.655              1.785              1.829
 Vibration    11          0.677              1.719              1.562
 Vibration    12          0.701              1.648              1.343
 Vibration    13          0.738              1.545              1.103
 Vibration    14          0.779              1.436              0.906
 Vibration    15          0.798              1.387              0.832
 Vibration    16          0.830              1.309              0.729
 Vibration    17          0.937              1.074              0.484
 Vibration    18          0.968              1.012              0.434

 Optimization completed.
    -- Stationary point found.
 Normal termination of Gaussian 16 at Wed Feb 10 09:49:23 2021.
