 Gaussian 16, Revision A.03,
 Gaussian 16:  ES64L-G16RevA.03 25-Dec-2016

 ----------------------------------------------------------------------
 # wB97XD def2tzvp, opt=(ts, noeigen, calcfc, maxcycles=70, maxstep=8),
  freq=noraman, scrf=(iefpcm, solvent=water)
 ----------------------------------------------------------------------

 ------------------------
 1_iteration/TS-212-1.out
 ------------------------
 Symbolic Z-matrix:
 Charge =  0 Multiplicity = 1

 SCF Done:  E(RwB97XD) =  -633.397346987     A.U. after   14 cycles
 Optimization completed.
    -- Stationary point found.
 Normal termination of Gaussian 16 at Thu Feb 11 02:41:59 2021.

 ---------------------------------------------------------------------
 #N Geom=AllCheck Guess=TCheck SCRF=Check GenChk RwB97XD/def2TZVP Freq
 ---------------------------------------------------------------------

 Structure from the checkpoint file:  "/beegfs/scratch/user/q/tla25/Gau-101130.chk"
 ------------------------
 1_iteration/TS-212-1.out
 ------------------------
 Charge =  0 Multiplicity = 1

                         Standard orientation:
 ---------------------------------------------------------------------
 Center     Atomic      Atomic             Coordinates (Angstroms)
 Number     Number       Type             X           Y           Z
 ---------------------------------------------------------------------
      1          6           0        1.237870    0.453331    0.912639
      2          6           0        1.905161   -0.543898    0.156749
      3          8           0        1.538581   -1.101008   -0.874251
      4          6           0       -0.052920    0.959100    0.681149
      5          6           0        0.998418    3.212821   -0.536061
      6          1           0        0.709488    3.869311    0.282809
      7          1           0        1.169278    3.805931   -1.433701
      8          1           0        1.917638    2.691532   -0.264941
      9          7           0       -0.042721    2.213470   -0.737411
     10          1           0        0.132769    1.662101   -1.569221
     11          1           0       -0.963391    2.628080   -0.825091
     12          1           0       -0.326541    1.691520    1.435449
     13          6           0       -1.258400    0.153670    0.300679
     14          6           0       -2.328020    0.150099    1.195749
     15          6           0       -3.480799   -0.573682    0.931919
     16          6           0       -3.591899   -1.294172   -0.247991
     17          6           0       -2.541429   -1.283991   -1.154351
     18          6           0       -1.383859   -0.569441   -0.883701
     19          1           0       -2.255160    0.719819    2.115079
     20          1           0       -4.295059   -0.566553    1.645599
     21          1           0       -4.492408   -1.855853   -0.462131
     22          1           0       -2.620588   -1.839141   -2.080851
     23          1           0       -0.560949   -0.592110   -1.582421
     24          1           0        1.828660    0.948882    1.670419
     25          8           0        3.121821   -0.855067    0.701799
     26          6           0        3.900682   -1.806897   -0.002521
     27          1           0        4.119782   -1.468756   -1.016681
     28          1           0        4.827562   -1.909276    0.557919
     29          1           0        3.395913   -2.772817   -0.056331
 ---------------------------------------------------------------------

 SCF Done:  E(RwB97XD) =  -633.397346987     A.U. after    1 cycles

 The electronic state is 1-A.
 Alpha  occ. eigenvalues --  -19.27001 -19.20331 -14.48461 -10.38425 -10.33919
 Alpha  occ. eigenvalues --  -10.32077 -10.31477 -10.30242 -10.29073 -10.28968
 Alpha  occ. eigenvalues --  -10.28918 -10.28866 -10.28594 -10.24359  -1.18144
 Alpha  occ. eigenvalues --   -1.08710  -1.03954  -0.96831  -0.89492  -0.85047
 Alpha  occ. eigenvalues --   -0.84546  -0.80478  -0.78791  -0.73198  -0.70397
 Alpha  occ. eigenvalues --   -0.68200  -0.63639  -0.62710  -0.61258  -0.57511
 Alpha  occ. eigenvalues --   -0.56920  -0.55746  -0.55475  -0.54925  -0.53932
 Alpha  occ. eigenvalues --   -0.52747  -0.51329  -0.50192  -0.48748  -0.47706
 Alpha  occ. eigenvalues --   -0.47365  -0.46521  -0.46061  -0.43517  -0.42981
 Alpha  occ. eigenvalues --   -0.42529  -0.41523  -0.37229  -0.34458  -0.33664
 Alpha  occ. eigenvalues --   -0.32999  -0.27087
 Alpha virt. eigenvalues --    0.03763   0.05351   0.08287   0.10604   0.13483
 Alpha virt. eigenvalues --    0.13541   0.13788   0.15203   0.16591   0.16980
 Alpha virt. eigenvalues --    0.17325   0.18070   0.18400   0.19218   0.19636

 Mulliken charges:
               1
     1  C   -0.506054
     2  C    0.448758
     3  O   -0.533350
     4  C   -0.017197
     5  C   -0.281805
     6  H    0.152287
     7  H    0.152285
     8  H    0.148267
     9  N   -0.304461
    10  H    0.280827
    11  H    0.285435
    12  H    0.152639
    13  C    0.242015
    14  C   -0.228333
    15  C   -0.145651
    16  C   -0.155846
    17  C   -0.150926
    18  C   -0.265932
    19  H    0.139750
    20  H    0.142708
    21  H    0.143429
    22  H    0.141566
    23  H    0.160684
    24  H    0.133940
    25  O   -0.322081
    26  C   -0.182374
    27  H    0.117844
    28  H    0.132788
    29  H    0.118787
 Sum of Mulliken charges =   0.00000

 Dipole moment (field-independent basis, Debye):
    X=             -2.9898    Y=              6.9865    Z=             -1.5997  Tot=              7.7659
 Quadrupole moment (field-independent basis, Debye-Ang):
   XX=            -78.7793   YY=            -68.8951   ZZ=            -81.9321
   XY=              1.2380   XZ=             -2.6909   YZ=             -2.5368

  Exact polarizability: 236.873  -0.183 193.262  -1.860  15.157 184.721
 Approx polarizability: 178.441   2.773 153.142  -1.681  15.423 161.944

 ******    1 imaginary frequencies (negative Signs) ******

                      1                      2                      3
                      A                      A                      A
 Frequencies --   -353.4626                24.8688                48.0226
 Red. masses --      5.9679                 3.9936                 4.7092
 Frc consts  --      0.4393                 0.0015                 0.0064
 IR Inten    --    880.0971                 1.6505                11.7003

                      4                      5                      6
                      A                      A                      A
 Frequencies --     59.7660                76.1335               100.2301
 Red. masses --      2.8885                 2.1828                 3.8367
 Frc consts  --      0.0061                 0.0075                 0.0227
 IR Inten    --      1.2009                17.8300                11.7460

                      7                      8                      9
                      A                      A                      A
 Frequencies --    120.9240               131.0774               162.1475
 Red. masses --      2.2205                 3.5814                 1.4741
 Frc consts  --      0.0191                 0.0363                 0.0228
 IR Inten    --     12.7573                 6.6141                 2.0640

                     10                     11                     12
                      A                      A                      A
 Frequencies --    188.0900               224.7757               250.4183
 Red. masses --      1.5225                 2.3857                 3.9793
 Frc consts  --      0.0317                 0.0710                 0.1470
 IR Inten    --      4.7854                 7.0487                 5.9675

                     13                     14                     15
                      A                      A                      A
 Frequencies --    293.2140               308.9630               352.4104
 Red. masses --      3.1243                 5.0594                 4.7595
 Frc consts  --      0.1583                 0.2846                 0.3483
 IR Inten    --     16.9173                35.8682                22.7745

                     16                     17                     18
                      A                      A                      A
 Frequencies --    413.0053               427.0379               538.3827
 Red. masses --      3.4117                 3.0181                 2.4453
 Frc consts  --      0.3429                 0.3243                 0.4176
 IR Inten    --     21.7280                 4.1995               106.6362

                     19                     20                     21
                      A                      A                      A
 Frequencies --    570.2718               602.1739               638.6953
 Red. masses --      3.9660                 3.7313                 5.5575
 Frc consts  --      0.7599                 0.7972                 1.3357
 IR Inten    --     36.4467                28.0755                 0.3302

                     22                     23                     24
                      A                      A                      A
 Frequencies --    674.5430               709.3975               725.7456
 Red. masses --      1.4173                 1.8854                 1.5919
 Frc consts  --      0.3799                 0.5590                 0.4940
 IR Inten    --     19.0523                56.5940                94.5616

                     25                     26                     27
                      A                      A                      A
 Frequencies --    778.4004               794.7476               799.1535
 Red. masses --      3.1952                 2.6763                 6.6414
 Frc consts  --      1.1407                 0.9960                 2.4990
 IR Inten    --     17.6217                30.0107                91.4169

                     28                     29                     30
                      A                      A                      A
 Frequencies --    820.4815               877.4739               954.4015
 Red. masses --      3.5446                 1.2463                 2.0994
 Frc consts  --      1.4059                 0.5654                 1.1267
 IR Inten    --     29.8839                 1.0133                27.6466

                     31                     32                     33
                      A                      A                      A
 Frequencies --    968.9977              1010.6525              1012.9469
 Red. masses --      2.1874                 1.1314                 1.3425
 Frc consts  --      1.2101                 0.6809                 0.8116
 IR Inten    --     43.1526                39.8292                13.2736

                     34                     35                     36
                      A                      A                      A
 Frequencies --   1026.6515              1030.0675              1040.0292
 Red. masses --      4.3352                 1.3550                 1.2161
 Frc consts  --      2.6922                 0.8471                 0.7750
 IR Inten    --      1.2325                 7.8288                82.1386

                     37                     38                     39
                      A                      A                      A
 Frequencies --   1060.0930              1073.5390              1088.4150
 Red. masses --      3.6058                 2.6911                 4.9217
 Frc consts  --      2.3875                 1.8273                 3.4352
 IR Inten    --     49.4714                42.7795                36.4385

                     40                     41                     42
                      A                      A                      A
 Frequencies --   1120.8172              1177.9685              1180.2341
 Red. masses --      1.6140                 1.4376                 1.3080
 Frc consts  --      1.1946                 1.1753                 1.0735
 IR Inten    --      9.6333               471.0569                 3.6601

                     43                     44                     45
                      A                      A                      A
 Frequencies --   1181.4057              1184.5845              1203.4057
 Red. masses --      1.7412                 1.1673                 2.5566
 Frc consts  --      1.4319                 0.9651                 2.1814
 IR Inten    --     60.0159                86.0266               419.5398

                     46                     47                     48
                      A                      A                      A
 Frequencies --   1215.6808              1217.7073              1227.2176
 Red. masses --      1.4760                 1.2508                 1.3625
 Frc consts  --      1.2852                 1.0928                 1.2090
 IR Inten    --     42.4714                36.7756                16.8894

                     49                     50                     51
                      A                      A                      A
 Frequencies --   1267.5370              1335.8348              1346.1291
 Red. masses --      1.4489                 3.9473                 1.3368
 Frc consts  --      1.3715                 4.1501                 1.4272
 IR Inten    --     14.3770                15.9277                 4.2014

                     52                     53                     54
                      A                      A                      A
 Frequencies --   1372.1831              1437.8847              1456.3575
 Red. masses --      1.3836                 1.6106                 1.2969
 Frc consts  --      1.5349                 1.9619                 1.6206
 IR Inten    --     10.7686                 0.5926               146.2892

                     55                     56                     57
                      A                      A                      A
 Frequencies --   1468.7760              1480.4738              1488.4742
 Red. masses --      1.3807                 1.0466                 1.3394
 Frc consts  --      1.7549                 1.3515                 1.7484
 IR Inten    --     52.6643                10.9665               275.1513

                     58                     59                     60
                      A                      A                      A
 Frequencies --   1493.4166              1498.1985              1506.6397
 Red. masses --      1.0429                 1.3481                 1.0412
 Frc consts  --      1.3704                 1.7829                 1.3925
 IR Inten    --      6.5808                 8.6834                38.5772

                     61                     62                     63
                      A                      A                      A
 Frequencies --   1516.1619              1547.9646              1644.0850
 Red. masses --      2.5052                 2.4152                 1.0951
 Frc consts  --      3.3930                 3.4097                 1.7441
 IR Inten    --    421.2494                35.2006                63.6914

                     64                     65                     66
                      A                      A                      A
 Frequencies --   1653.0479              1676.2876              1684.8433
 Red. masses --      5.5291                 5.8781                 9.9326
 Frc consts  --      8.9017                 9.7315                16.6124
 IR Inten    --      9.7731                24.9056               616.6251

                     67                     68                     69
                      A                      A                      A
 Frequencies --   3051.7861              3063.3621              3121.9691
 Red. masses --      1.0312                 1.0331                 1.1061
 Frc consts  --      5.6586                 5.7120                 6.3520
 IR Inten    --     72.5704                42.5301                50.1295

                     70                     71                     72
                      A                      A                      A
 Frequencies --   3142.2197              3148.1188              3158.1283
 Red. masses --      1.1041                 1.0880                 1.1044
 Frc consts  --      6.4228                 6.3531                 6.4899
 IR Inten    --      6.8718                20.0254                33.9451

                     73                     74                     75
                      A                      A                      A
 Frequencies --   3161.4271              3187.1743              3196.4216
 Red. masses --      1.1061                 1.0877                 1.0881
 Frc consts  --      6.5132                 6.5099                 6.5498
 IR Inten    --     17.0060                 9.4433                 1.2497

                     76                     77                     78
                      A                      A                      A
 Frequencies --   3206.5563              3210.6433              3219.4404
 Red. masses --      1.0930                 1.0889                 1.0979
 Frc consts  --      6.6216                 6.6132                 6.7048
 IR Inten    --     33.3891                18.0692                23.0431

                     79                     80                     81
                      A                      A                      A
 Frequencies --   3248.8635              3527.7943              3611.1900
 Red. masses --      1.0921                 1.0504                 1.0964
 Frc consts  --      6.7915                 7.7018                 8.4241
 IR Inten    --      5.6589                35.1560                45.3453

 - Thermochemistry -
 -------------------
 Temperature   298.150 Kelvin.  Pressure   1.00000 Atm.
 Atom     1 has atomic number  6 and mass  12.00000

 Molecular mass:   193.11028 amu.
 Principal axes and moments of inertia in atomic units:
                           1         2         3
     Eigenvalues --  1884.639894200.582885172.93428
           X            0.99999   0.00142  -0.00424
           Y           -0.00141   0.99999   0.00329
           Z            0.00424  -0.00329   0.99999
 This molecule is an asymmetric top.
 Rotational symmetry number  1.
 Warning -- assumption of classical behavior for rotation
           may cause significant error
 Rotational temperatures (Kelvin)      0.04596     0.02062     0.01674
 Rotational constants (GHZ):           0.95761     0.42964     0.34888
    1 imaginary frequencies ignored.
 Zero-point vibrational energy     644875.5 (Joules/Mol)
                                  154.12893 (Kcal/Mol)
 Warning -- explicit consideration of  19 degrees of freedom as
           vibrations may cause significant error
 Vibrational temperatures:     35.78    69.09    85.99   109.54   144.21
          (Kelvin)            173.98   188.59   233.29   270.62   323.40
                              360.30   421.87   444.53   507.04   594.22
                              614.41   774.61   820.49   866.39   918.94
                              970.52  1020.66  1044.19  1119.94  1143.46
                             1149.80  1180.49  1262.49  1373.17  1394.17
                             1454.10  1457.40  1477.12  1482.04  1496.37
                             1525.24  1544.58  1565.99  1612.61  1694.83
                             1698.09  1699.78  1704.35  1731.43  1749.09
                             1752.01  1765.69  1823.70  1921.97  1936.78
                             1974.27  2068.80  2095.37  2113.24  2130.07
                             2141.58  2148.69  2155.57  2167.72  2181.42
                             2227.18  2365.47  2378.37  2411.80  2424.11
                             4390.84  4407.49  4491.82  4520.95  4529.44
                             4543.84  4548.59  4585.63  4598.94  4613.52
                             4619.40  4632.06  4674.39  5075.71  5195.70

 Zero-point correction=                           0.245620 (Hartree/Particle)
 Thermal correction to Energy=                    0.259850
 Thermal correction to Enthalpy=                  0.260794
 Thermal correction to Gibbs Free Energy=         0.202707
 Sum of electronic and zero-point Energies=           -633.151727
 Sum of electronic and thermal Energies=              -633.137497
 Sum of electronic and thermal Enthalpies=            -633.136553
 Sum of electronic and thermal Free Energies=         -633.194640

                     E (Thermal)             CV                S
                      KCal/Mol        Cal/Mol-Kelvin    Cal/Mol-Kelvin
 Total                  163.058             51.512            122.254
 Electronic               0.000              0.000              0.000
 Translational            0.889              2.981             41.680
 Rotational               0.889              2.981             32.082
 Vibrational            161.281             45.550             48.492
 Vibration     1          0.593              1.985              6.202
 Vibration     2          0.595              1.978              4.897
 Vibration     3          0.597              1.973              4.465
 Vibration     4          0.599              1.965              3.988
 Vibration     5          0.604              1.949              3.450
 Vibration     6          0.609              1.932              3.086
 Vibration     7          0.612              1.922              2.930
 Vibration     8          0.622              1.889              2.525
 Vibration     9          0.633              1.856              2.247
 Vibration    10          0.649              1.803              1.920
 Vibration    11          0.663              1.762              1.728
 Vibration    12          0.688              1.686              1.455
 Vibration    13          0.698              1.657              1.368
 Vibration    14          0.729              1.570              1.155
 Vibration    15          0.777              1.442              0.916
 Vibration    16          0.789              1.411              0.868
 Vibration    17          0.893              1.165              0.569
 Vibration    18          0.926              1.096              0.504
 Vibration    19          0.960              1.027              0.446

 Optimization completed.
    -- Stationary point found.
 Normal termination of Gaussian 16 at Thu Feb 11 03:28:04 2021.
