 Gaussian 16, Revision A.03,
 Gaussian 16:  ES64L-G16RevA.03 25-Dec-2016

 ----------------------------------------------------------------------
 # wB97XD def2tzvp, opt=(ts, noeigen, calcfc, maxcycles=70, maxstep=8),
  freq=noraman, scrf=(iefpcm, solvent=water)
 ----------------------------------------------------------------------

 ------------------------
 1_iteration/TS-254-1.out
 ------------------------
 Symbolic Z-matrix:
 Charge =  0 Multiplicity = 1

 SCF Done:  E(RwB97XD) =  -421.784039340     A.U. after   14 cycles
 SCF Done:  E(RwB97XD) =  -421.784039354     A.U. after    6 cycles
 Optimization completed.
    -- Stationary point found.
 Normal termination of Gaussian 16 at Wed Feb 10 05:37:50 2021.

 ---------------------------------------------------------------------
 #N Geom=AllCheck Guess=TCheck SCRF=Check GenChk RwB97XD/def2TZVP Freq
 ---------------------------------------------------------------------

 Structure from the checkpoint file:  "/beegfs/scratch/user/q/tla25/Gau-117685.chk"
 ------------------------
 1_iteration/TS-254-1.out
 ------------------------
 Charge =  0 Multiplicity = 1

                         Standard orientation:
 ---------------------------------------------------------------------
 Center     Atomic      Atomic             Coordinates (Angstroms)
 Number     Number       Type             X           Y           Z
 ---------------------------------------------------------------------
      1          6           0        0.144688    0.979383   -0.288935
      2          6           0       -0.712500   -0.174636   -0.299378
      3          8           0       -0.278947   -1.316461   -0.567878
      4          6           0        1.463150    0.831210   -0.698343
      5          6           0        3.893194   -0.361363    0.244770
      6          1           0        4.414930   -0.936836    1.010839
      7          1           0        3.880716   -0.936620   -0.680392
      8          1           0        4.433213    0.568011    0.069488
      9          7           0        2.519966   -0.049828    0.624298
     10          1           0        1.959184   -0.881494    0.769923
     11          1           0        2.466873    0.522421    1.457499
     12          1           0        2.082258    1.717855   -0.776960
     13          1           0        1.687062    0.067955   -1.435803
     14          1           0       -0.158245    1.893371    0.199781
     15          7           0       -2.044865   -0.007962   -0.001005
     16          6           0       -2.613658    1.281446    0.317977
     17          6           0       -2.879353   -1.153529    0.278143
     18          1           0       -2.251936    2.047731   -0.366287
     19          1           0       -3.696881    1.222293    0.210435
     20          1           0       -2.392626    1.597723    1.344596
     21          1           0       -2.329784   -2.058580    0.039173
     22          1           0       -3.169521   -1.181042    1.334791
     23          1           0       -3.792502   -1.121642   -0.322526
 ---------------------------------------------------------------------

 SCF Done:  E(RwB97XD) =  -421.784039354     A.U. after    1 cycles

 The electronic state is 1-A.
 Alpha  occ. eigenvalues --  -19.18212 -14.47095 -14.44040 -10.35697 -10.31454
 Alpha  occ. eigenvalues --  -10.31421 -10.30185 -10.29620 -10.23390  -1.10723
 Alpha  occ. eigenvalues --   -1.02668  -1.01442  -0.86080  -0.80929  -0.78589
 Alpha  occ. eigenvalues --   -0.77612  -0.69642  -0.62708  -0.61152  -0.57985
 Alpha  occ. eigenvalues --   -0.55984  -0.55242  -0.54650  -0.52502  -0.50736
 Alpha  occ. eigenvalues --   -0.48042  -0.47604  -0.47437  -0.46914  -0.46093
 Alpha  occ. eigenvalues --   -0.44901  -0.43303  -0.41856  -0.32462  -0.30684
 Alpha  occ. eigenvalues --   -0.25963
 Alpha virt. eigenvalues --    0.07598   0.10586   0.12288   0.14793   0.15204
 Alpha virt. eigenvalues --    0.16393   0.16796   0.17481   0.18235   0.18954
 Alpha virt. eigenvalues --    0.19294   0.20116   0.20846   0.21063   0.21146

 Mulliken charges:
               1
     1  C   -0.480906
     2  C    0.342237
     3  O   -0.610695
     4  C   -0.154438
     5  C   -0.267718
     6  H    0.146388
     7  H    0.144892
     8  H    0.146785
     9  N   -0.322031
    10  H    0.272261
    11  H    0.269673
    12  H    0.150521
    13  H    0.136277
    14  H    0.132968
    15  N   -0.121165
    16  C   -0.297794
    17  C   -0.278349
    18  H    0.138011
    19  H    0.139510
    20  H    0.129304
    21  H    0.138284
    22  H    0.119547
    23  H    0.126438
 Sum of Mulliken charges =  -0.00000

 Dipole moment (field-independent basis, Debye):
    X=              4.5263    Y=              2.5583    Z=              3.8324  Tot=              6.4590
 Quadrupole moment (field-independent basis, Debye-Ang):
   XX=            -32.3047   YY=            -59.8664   ZZ=            -56.8631
   XY=             -1.2514   XZ=              2.0056   YZ=             -1.0396

  Exact polarizability: 187.122  -2.087 122.363  -0.973  -0.285 105.827
 Approx polarizability: 128.390  -2.791 102.599  -0.523   0.939  89.402

 ******    1 imaginary frequencies (negative Signs) ******

                      1                      2                      3
                      A                      A                      A
 Frequencies --   -380.2050                44.5140                52.1816
 Red. masses --      6.5740                 2.8728                 2.7700
 Frc consts  --      0.5599                 0.0034                 0.0044
 IR Inten    --   1062.1868                12.1066                 8.9570

                      4                      5                      6
                      A                      A                      A
 Frequencies --     87.0601                99.1870               116.2551
 Red. masses --      1.8157                 1.4361                 1.7391
 Frc consts  --      0.0081                 0.0083                 0.0138
 IR Inten    --      3.4060                 3.2827                22.1009

                      7                      8                      9
                      A                      A                      A
 Frequencies --    136.2819               175.9200               194.8043
 Red. masses --      1.5595                 1.2674                 2.4223
 Frc consts  --      0.0171                 0.0231                 0.0542
 IR Inten    --      4.7778                12.7869                 6.5199

                     10                     11                     12
                      A                      A                      A
 Frequencies --    214.9900               243.6550               337.8342
 Red. masses --      2.4771                 2.7135                 2.7573
 Frc consts  --      0.0675                 0.0949                 0.1854
 IR Inten    --      5.3683                23.6148                38.0412

                     13                     14                     15
                      A                      A                      A
 Frequencies --    394.0097               450.5281               555.5368
 Red. masses --      3.3339                 3.0325                 3.7369
 Frc consts  --      0.3049                 0.3627                 0.6795
 IR Inten    --     12.3061                73.4121                 9.7010

                     16                     17                     18
                      A                      A                      A
 Frequencies --    606.1289               617.4070               686.9468
 Red. masses --      1.4767                 2.2326                 1.2114
 Frc consts  --      0.3197                 0.5014                 0.3368
 IR Inten    --     19.0325                46.5033               100.5577

                     19                     20                     21
                      A                      A                      A
 Frequencies --    787.0756               795.2331               970.2120
 Red. masses --      9.9068                 2.6979                 1.6298
 Frc consts  --      3.6159                 1.0052                 0.9039
 IR Inten    --     98.8778                 5.6114                20.4967

                     22                     23                     24
                      A                      A                      A
 Frequencies --    998.9398              1016.7706              1059.9042
 Red. masses --      1.3353                 1.2008                 1.5891
 Frc consts  --      0.7850                 0.7314                 1.0518
 IR Inten    --     22.7805               137.5651                11.8759

                     25                     26                     27
                      A                      A                      A
 Frequencies --   1075.8347              1082.1307              1131.6336
 Red. masses --      4.2508                 1.3957                 1.2333
 Frc consts  --      2.8988                 0.9629                 0.9305
 IR Inten    --    295.0323                13.6243                 3.6920

                     28                     29                     30
                      A                      A                      A
 Frequencies --   1156.5629              1160.4343              1181.6032
 Red. masses --      1.6672                 1.1608                 1.4615
 Frc consts  --      1.3139                 0.9210                 1.2022
 IR Inten    --    287.5717                42.1525               104.4604

                     31                     32                     33
                      A                      A                      A
 Frequencies --   1199.6880              1216.2439              1283.5781
 Red. masses --      1.3344                 1.4909                 1.4133
 Frc consts  --      1.1316                 1.2994                 1.3719
 IR Inten    --     68.5854               127.1766                93.7919

                     34                     35                     36
                      A                      A                      A
 Frequencies --   1315.1938              1342.9724              1394.1240
 Red. masses --      5.4180                 1.3268                 2.1154
 Frc consts  --      5.5217                 1.4099                 2.4224
 IR Inten    --      7.7966                 3.1174                40.2242

                     37                     38                     39
                      A                      A                      A
 Frequencies --   1426.4750              1443.3327              1462.8887
 Red. masses --      1.2454                 1.3413                 1.1888
 Frc consts  --      1.4932                 1.6463                 1.4989
 IR Inten    --    118.3901               226.8735                21.5907

                     40                     41                     42
                      A                      A                      A
 Frequencies --   1472.9893              1486.4030              1491.1106
 Red. masses --      1.2244                 1.0826                 1.0409
 Frc consts  --      1.5653                 1.4092                 1.3636
 IR Inten    --    120.3899                25.1708                15.1509

                     43                     44                     45
                      A                      A                      A
 Frequencies --   1494.2803              1501.5097              1506.3589
 Red. masses --      1.0435                 1.1073                 1.0387
 Frc consts  --      1.3727                 1.4709                 1.3887
 IR Inten    --     13.3561                95.7077                36.1611

                     46                     47                     48
                      A                      A                      A
 Frequencies --   1516.3363              1532.6899              1608.2985
 Red. masses --      2.0077                 1.3987                 5.3505
 Frc consts  --      2.7199                 1.9359                 8.1541
 IR Inten    --    312.8882               313.6637               560.1971

                     49                     50                     51
                      A                      A                      A
 Frequencies --   1649.9375              3011.7473              3017.3387
 Red. masses --      1.1016                 1.0480                 1.0478
 Frc consts  --      1.7668                 5.6007                 5.6207
 IR Inten    --     54.1879                76.9046               168.9208

                     52                     53                     54
                      A                      A                      A
 Frequencies --   3061.2989              3072.3332              3101.3950
 Red. masses --      1.0342                 1.0975                 1.0853
 Frc consts  --      5.7105                 6.1034                 6.1507
 IR Inten    --     66.0421                78.9894                46.2419

                     55                     56                     57
                      A                      A                      A
 Frequencies --   3134.8417              3137.7824              3142.3417
 Red. masses --      1.0756                 1.0864                 1.1035
 Frc consts  --      6.2277                 6.3020                 6.4198
 IR Inten    --     63.0013                20.3822                18.9181

                     58                     59                     60
                      A                      A                      A
 Frequencies --   3156.5517              3186.4403              3215.4278
 Red. masses --      1.1055                 1.0947                 1.1075
 Frc consts  --      6.4899                 6.5486                 6.7463
 IR Inten    --     23.1454                 5.4018                 2.3840

                     61                     62                     63
                      A                      A                      A
 Frequencies --   3232.8211              3526.2538              3614.4618
 Red. masses --      1.0974                 1.0510                 1.0970
 Frc consts  --      6.7575                 7.6995                 8.4438
 IR Inten    --     23.5104                17.1770                47.6405

 - Thermochemistry -
 -------------------
 Temperature   298.150 Kelvin.  Pressure   1.00000 Atm.
 Atom     1 has atomic number  6 and mass  12.00000

 Molecular mass:   130.11061 amu.
 Principal axes and moments of inertia in atomic units:
                           1         2         3
     Eigenvalues --   508.153382510.030832788.26981
           X            0.99998  -0.00430  -0.00473
           Y            0.00425   0.99994  -0.01043
           Z            0.00477   0.01041   0.99993
 This molecule is an asymmetric top.
 Rotational symmetry number  1.
 Warning -- assumption of classical behavior for rotation
           may cause significant error
 Rotational temperatures (Kelvin)      0.17045     0.03451     0.03106
 Rotational constants (GHZ):           3.55157     0.71901     0.64726
    1 imaginary frequencies ignored.
 Zero-point vibrational energy     534641.2 (Joules/Mol)
                                  127.78230 (Kcal/Mol)
 Warning -- explicit consideration of  16 degrees of freedom as
           vibrations may cause significant error
 Vibrational temperatures:     64.05    75.08   125.26   142.71   167.27
          (Kelvin)            196.08   253.11   280.28   309.32   350.57
                              486.07   566.89   648.21   799.29   872.08
                              888.31   988.36  1132.43  1144.16  1395.92
                             1437.25  1462.91  1524.97  1547.89  1556.94
                             1628.17  1664.04  1669.61  1700.06  1726.08
                             1749.90  1846.78  1892.27  1932.24  2005.83
                             2052.38  2076.63  2104.77  2119.30  2138.60
                             2145.38  2149.94  2160.34  2167.31  2181.67
                             2205.20  2313.98  2373.89  4333.23  4341.28
                             4404.53  4420.40  4462.22  4510.34  4514.57
                             4521.13  4541.57  4584.58  4626.28  4651.31
                             5073.49  5200.40

 Zero-point correction=                           0.203634 (Hartree/Particle)
 Thermal correction to Energy=                    0.215351
 Thermal correction to Enthalpy=                  0.216295
 Thermal correction to Gibbs Free Energy=         0.165148
 Sum of electronic and zero-point Energies=           -421.580405
 Sum of electronic and thermal Energies=              -421.568689
 Sum of electronic and thermal Enthalpies=            -421.567745
 Sum of electronic and thermal Free Energies=         -421.618891

                     E (Thermal)             CV                S
                      KCal/Mol        Cal/Mol-Kelvin    Cal/Mol-Kelvin
 Total                  135.135             39.661            107.647
 Electronic               0.000              0.000              0.000
 Translational            0.889              2.981             40.503
 Rotational               0.889              2.981             29.654
 Vibrational            133.357             33.700             37.491
 Vibration     1          0.595              1.980              5.047
 Vibration     2          0.596              1.977              4.733
 Vibration     3          0.601              1.958              3.725
 Vibration     4          0.604              1.950              3.470
 Vibration     5          0.608              1.936              3.162
 Vibration     6          0.614              1.917              2.855
 Vibration     7          0.628              1.872              2.371
 Vibration     8          0.635              1.847              2.182
 Vibration     9          0.645              1.818              2.001
 Vibration    10          0.659              1.773              1.776
 Vibration    11          0.718              1.600              1.222
 Vibration    12          0.761              1.483              0.985
 Vibration    13          0.809              1.360              0.794
 Vibration    14          0.911              1.128              0.533
 Vibration    15          0.965              1.019              0.439
 Vibration    16          0.977              0.995              0.421

 Optimization completed.
    -- Stationary point found.
 Normal termination of Gaussian 16 at Wed Feb 10 05:48:57 2021.
