 Gaussian 16, Revision A.03,
 Gaussian 16:  ES64L-G16RevA.03 25-Dec-2016

 ----------------------------------------------------------------------
 # wB97XD def2tzvp, opt=(ts, noeigen, calcfc, maxcycles=70, maxstep=1),
  freq=noraman, scrf=(iefpcm, solvent=water)
 ----------------------------------------------------------------------

 ------------------------
 0_iteration/TS-291-0.out
 ------------------------
 Symbolic Z-matrix:
 Charge =  0 Multiplicity = 1

 SCF Done:  E(RwB97XD) =  -382.490862218     A.U. after   14 cycles
 SCF Done:  E(RwB97XD) =  -382.490838835     A.U. after   10 cycles
 SCF Done:  E(RwB97XD) =  -382.490821577     A.U. after   10 cycles
 SCF Done:  E(RwB97XD) =  -382.490821818     A.U. after   11 cycles
 SCF Done:  E(RwB97XD) =  -382.490831958     A.U. after   10 cycles
 SCF Done:  E(RwB97XD) =  -382.490828478     A.U. after   11 cycles
 SCF Done:  E(RwB97XD) =  -382.490832013     A.U. after   10 cycles
 SCF Done:  E(RwB97XD) =  -382.490852175     A.U. after   10 cycles
 SCF Done:  E(RwB97XD) =  -382.490900501     A.U. after   10 cycles
 SCF Done:  E(RwB97XD) =  -382.490956073     A.U. after   10 cycles
 SCF Done:  E(RwB97XD) =  -382.491299550     A.U. after   10 cycles
 SCF Done:  E(RwB97XD) =  -382.491316736     A.U. after   10 cycles
 SCF Done:  E(RwB97XD) =  -382.491330118     A.U. after   11 cycles
 SCF Done:  E(RwB97XD) =  -382.491342101     A.U. after   11 cycles
 SCF Done:  E(RwB97XD) =  -382.491349886     A.U. after   10 cycles
 SCF Done:  E(RwB97XD) =  -382.491351853     A.U. after   11 cycles
 SCF Done:  E(RwB97XD) =  -382.491353606     A.U. after   10 cycles
 SCF Done:  E(RwB97XD) =  -382.491354338     A.U. after    9 cycles
 SCF Done:  E(RwB97XD) =  -382.491354412     A.U. after    8 cycles
 Optimization completed.
    -- Stationary point found.
 Normal termination of Gaussian 16 at Tue Feb  9 06:52:34 2021.

 ---------------------------------------------------------------------
 #N Geom=AllCheck Guess=TCheck SCRF=Check GenChk RwB97XD/def2TZVP Freq
 ---------------------------------------------------------------------

 Structure from the checkpoint file:  "/beegfs/scratch/user/q/tla25/Gau-10556.chk"
 ------------------------
 0_iteration/TS-291-0.out
 ------------------------
 Charge =  0 Multiplicity = 1

                         Standard orientation:
 ---------------------------------------------------------------------
 Center     Atomic      Atomic             Coordinates (Angstroms)
 Number     Number       Type             X           Y           Z
 ---------------------------------------------------------------------
      1          6           0        0.458151   -0.094621   -0.878741
      2          6           0        1.510300   -0.087103    0.082302
      3          8           0        1.504776    0.525826    1.167412
      4          6           0       -0.740479    0.623524   -0.739829
      5          6           0       -2.049678   -1.657869    0.144071
      6          1           0       -1.070408   -2.074740   -0.094473
      7          1           0       -2.495554   -2.225244    0.960501
      8          1           0       -2.687670   -1.727846   -0.735364
      9          7           0       -1.868559   -0.254582    0.491647
     10          1           0       -2.754094    0.228415    0.588210
     11          1           0       -1.356881   -0.153634    1.361182
     12          1           0       -1.410482    0.506813   -1.588100
     13          6           0       -0.801167    2.012173   -0.150411
     14          1           0       -0.307820    2.699634   -0.840217
     15          1           0       -1.830736    2.350521   -0.026005
     16          1           0       -0.278404    2.059271    0.801428
     17          1           0        0.516583   -0.828087   -1.673781
     18          7           0        2.606573   -0.889473   -0.205895
     19          1           0        2.776061   -1.124829   -1.169077
     20          1           0        3.432339   -0.685121    0.331796
 ---------------------------------------------------------------------

 SCF Done:  E(RwB97XD) =  -382.491354412     A.U. after    1 cycles

 The electronic state is 1-A.
 Alpha  occ. eigenvalues --  -19.18457 -14.47922 -14.42189 -10.35926 -10.32856
 Alpha  occ. eigenvalues --  -10.31221 -10.26927 -10.23087  -1.10501  -1.03472
 Alpha  occ. eigenvalues --   -0.97390  -0.88317  -0.79673  -0.77736  -0.70359
 Alpha  occ. eigenvalues --   -0.63583  -0.62045  -0.58370  -0.56308  -0.55811
 Alpha  occ. eigenvalues --   -0.54017  -0.51252  -0.48881  -0.47985  -0.47545
 Alpha  occ. eigenvalues --   -0.47406  -0.44131  -0.43690  -0.40691  -0.34212
 Alpha  occ. eigenvalues --   -0.32018  -0.26237
 Alpha virt. eigenvalues --    0.08024   0.10244   0.13083   0.13860   0.14828
 Alpha virt. eigenvalues --    0.16377   0.17826   0.18173   0.18251   0.19359
 Alpha virt. eigenvalues --    0.20184   0.21268   0.22402   0.23470   0.23927

 Mulliken charges:
               1
     1  C   -0.494873
     2  C    0.336944
     3  O   -0.585821
     4  C    0.016209
     5  C   -0.274802
     6  H    0.145812
     7  H    0.148586
     8  H    0.148607
     9  N   -0.314980
    10  H    0.280522
    11  H    0.277408
    12  H    0.134003
    13  C   -0.341210
    14  H    0.126488
    15  H    0.123227
    16  H    0.137833
    17  H    0.129793
    18  N   -0.507284
    19  H    0.262289
    20  H    0.251249
 Sum of Mulliken charges =  -0.00000

 Dipole moment (field-independent basis, Debye):
    X=             -6.6030    Y=             -2.0337    Z=             -1.7791  Tot=              7.1345
 Quadrupole moment (field-independent basis, Debye-Ang):
   XX=            -35.7780   YY=            -50.3915   ZZ=            -52.1884
   XY=             -2.1747   XZ=             -7.8185   YZ=             -0.5600

  Exact polarizability: 144.995  -5.253 103.970  -1.735   2.580 102.723
 Approx polarizability: 106.135  -4.065  83.562  -0.811   3.777  89.103

 ******    1 imaginary frequencies (negative Signs) ******

                      1                      2                      3
                      A                      A                      A
 Frequencies --   -380.3605                44.4888                69.1494
 Red. masses --      5.2239                 4.7143                 2.3762
 Frc consts  --      0.4453                 0.0055                 0.0067
 IR Inten    --    868.9454                26.6638                17.7328

                      4                      5                      6
                      A                      A                      A
 Frequencies --     94.0260               181.2699               197.3665
 Red. masses --      2.6067                 1.2223                 1.3685
 Frc consts  --      0.0136                 0.0237                 0.0314
 IR Inten    --     27.0801                 0.8856                17.4911

                      7                      8                      9
                      A                      A                      A
 Frequencies --    217.1343               240.1698               329.7304
 Red. masses --      2.2461                 2.2657                 2.8825
 Frc consts  --      0.0624                 0.0770                 0.1846
 IR Inten    --      5.3757                 6.7159                16.0155

                     10                     11                     12
                      A                      A                      A
 Frequencies --    396.5350               432.6905               443.4439
 Red. masses --      2.8354                 1.9355                 1.1462
 Frc consts  --      0.2627                 0.2135                 0.1328
 IR Inten    --     62.7853               131.6439               109.3478

                     13                     14                     15
                      A                      A                      A
 Frequencies --    458.7985               512.2824               654.7275
 Red. masses --      1.4952                 2.6933                 1.6024
 Frc consts  --      0.1854                 0.4164                 0.4047
 IR Inten    --    237.9507                 4.3736                28.6759

                     16                     17                     18
                      A                      A                      A
 Frequencies --    687.1662               758.1034               797.7237
 Red. masses --      1.3806                 1.9218                 9.6881
 Frc consts  --      0.3841                 0.6508                 3.6324
 IR Inten    --    100.4767                 9.9873                68.5168

                     19                     20                     21
                      A                      A                      A
 Frequencies --    886.8710               955.0190              1004.6640
 Red. masses --      3.6439                 1.6722                 1.1665
 Frc consts  --      1.6887                 0.8986                 0.6937
 IR Inten    --     16.3957                24.3852               124.4893

                     22                     23                     24
                      A                      A                      A
 Frequencies --   1014.7795              1056.6507              1081.9758
 Red. masses --      1.1760                 1.4668                 1.6309
 Frc consts  --      0.7135                 0.9649                 1.1249
 IR Inten    --      2.2746                50.3793                73.7073

                     25                     26                     27
                      A                      A                      A
 Frequencies --   1095.2886              1131.0969              1193.1401
 Red. masses --      2.8009                 1.9487                 1.1857
 Frc consts  --      1.9797                 1.4689                 0.9945
 IR Inten    --     69.4977                27.6915               130.5203

                     28                     29                     30
                      A                      A                      A
 Frequencies --   1224.1953              1248.6112              1289.1766
 Red. masses --      1.4117                 1.3334                 2.4394
 Frc consts  --      1.2465                 1.2248                 2.3887
 IR Inten    --     17.3009                47.2182               235.8414

                     31                     32                     33
                      A                      A                      A
 Frequencies --   1349.0990              1396.3850              1443.0152
 Red. masses --      1.3131                 1.2616                 1.5730
 Frc consts  --      1.4081                 1.4494                 1.9299
 IR Inten    --      1.8731                42.2455                69.6860

                     34                     35                     36
                      A                      A                      A
 Frequencies --   1457.6579              1474.1043              1492.0498
 Red. masses --      1.2752                 1.2886                 1.1724
 Frc consts  --      1.5964                 1.6497                 1.5378
 IR Inten    --      6.9166               235.6650               188.8374

                     37                     38                     39
                      A                      A                      A
 Frequencies --   1493.6783              1504.5218              1512.7250
 Red. masses --      1.0541                 1.0569                 1.7339
 Frc consts  --      1.3856                 1.4096                 2.3377
 IR Inten    --      7.6898                56.4544               394.5690

                     40                     41                     42
                      A                      A                      A
 Frequencies --   1613.4073              1640.4728              1646.7719
 Red. masses --      1.4262                 2.8166                 1.1695
 Frc consts  --      2.1874                 4.4660                 1.8687
 IR Inten    --    263.2295               592.6606                 6.1700

                     43                     44                     45
                      A                      A                      A
 Frequencies --   3059.3713              3064.1362              3124.0414
 Red. masses --      1.0380                 1.0327                 1.1014
 Frc consts  --      5.7242                 5.7125                 6.3335
 IR Inten    --     39.1192                47.3829                38.5943

                     46                     47                     48
                      A                      A                      A
 Frequencies --   3140.5476              3142.8875              3158.5157
 Red. masses --      1.0890                 1.1043                 1.1058
 Frc consts  --      6.3285                 6.4267                 6.4998
 IR Inten    --     25.9411                 9.9151                20.2950

                     49                     50                     51
                      A                      A                      A
 Frequencies --   3170.7459              3185.7364              3522.0560
 Red. masses --      1.1001                 1.0898                 1.0505
 Frc consts  --      6.5163                 6.5167                 7.6781
 IR Inten    --     11.6289                29.1785                27.3634

                     52                     53                     54
                      A                      A                      A
 Frequencies --   3600.1363              3606.5682              3715.4569
 Red. masses --      1.0466                 1.0966                 1.1012
 Frc consts  --      7.9923                 8.4042                 8.9562
 IR Inten    --     43.7821                44.8302                35.6941

 - Thermochemistry -
 -------------------
 Temperature   298.150 Kelvin.  Pressure   1.00000 Atm.
 Atom     1 has atomic number  6 and mass  12.00000

 Molecular mass:   116.09496 amu.
 Principal axes and moments of inertia in atomic units:
                           1         2         3
     Eigenvalues --   675.482471350.329541639.98230
           X            0.99988  -0.00127  -0.01576
           Y            0.00132   0.99999   0.00328
           Z            0.01575  -0.00330   0.99987
 This molecule is an asymmetric top.
 Rotational symmetry number  1.
 Warning -- assumption of classical behavior for rotation
           may cause significant error
 Rotational temperatures (Kelvin)      0.12823     0.06414     0.05281
 Rotational constants (GHZ):           2.67178     1.33652     1.10046
    1 imaginary frequencies ignored.
 Zero-point vibrational energy     461820.5 (Joules/Mol)
                                  110.37775 (Kcal/Mol)
 Warning -- explicit consideration of  13 degrees of freedom as
           vibrations may cause significant error
 Vibrational temperatures:     64.01    99.49   135.28   260.81   283.97
          (Kelvin)            312.41   345.55   474.41   570.53   622.55
                              638.02   660.11   737.06   942.01   988.68
                             1090.74  1147.75  1276.01  1374.06  1445.49
                             1460.04  1520.28  1556.72  1575.88  1627.40
                             1716.66  1761.34  1796.47  1854.84  1941.05
                             2009.09  2076.18  2097.24  2120.91  2146.73
                             2149.07  2164.67  2176.47  2321.33  2360.27
                             2369.34  4401.75  4408.61  4494.80  4518.55
                             4521.91  4544.40  4562.00  4583.56  5067.45
                             5179.79  5189.05  5345.71

 Zero-point correction=                           0.175898 (Hartree/Particle)
 Thermal correction to Energy=                    0.185842
 Thermal correction to Enthalpy=                  0.186786
 Thermal correction to Gibbs Free Energy=         0.140487
 Sum of electronic and zero-point Energies=           -382.315456
 Sum of electronic and thermal Energies=              -382.305512
 Sum of electronic and thermal Enthalpies=            -382.304568
 Sum of electronic and thermal Free Energies=         -382.350868

                     E (Thermal)             CV                S
                      KCal/Mol        Cal/Mol-Kelvin    Cal/Mol-Kelvin
 Total                  116.618             35.242             97.445
 Electronic               0.000              0.000              0.000
 Translational            0.889              2.981             40.163
 Rotational               0.889              2.981             28.794
 Vibrational            114.840             29.281             28.489
 Vibration     1          0.595              1.980              5.048
 Vibration     2          0.598              1.969              4.177
 Vibration     3          0.603              1.953              3.575
 Vibration     4          0.630              1.865              2.315
 Vibration     5          0.637              1.844              2.158
 Vibration     6          0.646              1.815              1.983
 Vibration     7          0.657              1.779              1.802
 Vibration     8          0.713              1.616              1.261
 Vibration     9          0.763              1.478              0.975
 Vibration    10          0.794              1.399              0.850
 Vibration    11          0.803              1.375              0.816
 Vibration    12          0.817              1.341              0.770
 Vibration    13          0.867              1.223              0.628

 Optimization completed.
    -- Stationary point found.
 Normal termination of Gaussian 16 at Tue Feb  9 07:00:38 2021.
