 Gaussian 16, Revision A.03,
 Gaussian 16:  ES64L-G16RevA.03 25-Dec-2016

 ----------------------------------------------------------------------
 # wB97XD def2tzvp, opt=(ts, noeigen, calcfc, maxcycles=70, maxstep=3),
  freq=noraman, scrf=(iefpcm, solvent=water)
 ----------------------------------------------------------------------

 ------------------------
 3_iteration/TS-239-3.out
 ------------------------
 Symbolic Z-matrix:
 Charge =  0 Multiplicity = 1

 SCF Done:  E(RwB97XD) =  -1264.88001686     A.U. after   15 cycles
 SCF Done:  E(RwB97XD) =  -1264.88001687     A.U. after    6 cycles
 Optimization completed.
    -- Stationary point found.
 Normal termination of Gaussian 16 at Thu Feb 11 13:05:03 2021.

 ---------------------------------------------------------------------
 #N Geom=AllCheck Guess=TCheck SCRF=Check GenChk RwB97XD/def2TZVP Freq
 ---------------------------------------------------------------------

 Structure from the checkpoint file:  "/beegfs/scratch/user/q/tla25/Gau-23095.chk"
 ------------------------
 3_iteration/TS-239-3.out
 ------------------------
 Charge =  0 Multiplicity = 1

                         Standard orientation:
 ---------------------------------------------------------------------
 Center     Atomic      Atomic             Coordinates (Angstroms)
 Number     Number       Type             X           Y           Z
 ---------------------------------------------------------------------
      1          6           0        0.523069    1.082831   -0.372921
      2          6           0       -0.528297    0.186884    0.027996
      3          8           0       -0.322966   -0.736234    0.823605
      4          6           0        1.878366    0.951425   -0.062396
      5          6           0        1.444707    2.544203    2.221209
      6          1           0        0.407565    2.409976    1.913692
      7          1           0        1.481611    2.678415    3.302345
      8          1           0        1.844190    3.430338    1.731923
      9          7           0        2.204735    1.376056    1.795419
     10          1           0        3.201733    1.491894    1.932885
     11          1           0        1.911769    0.546580    2.297536
     12          1           0        2.448994    1.791633   -0.442734
     13          6           0        2.691742   -0.301424   -0.184254
     14          6           0        2.494397   -1.470262    0.547541
     15          6           0        3.313477   -2.571735    0.348160
     16          6           0        4.339882   -2.529821   -0.583874
     17          6           0        4.550885   -1.368806   -1.312412
     18          6           0        3.739798   -0.264368   -1.105270
     19          1           0        1.683885   -1.520966    1.257897
     20          1           0        3.144973   -3.470904    0.927635
     21          1           0        4.974576   -3.393462   -0.736853
     22          1           0        5.352952   -1.317110   -2.037794
     23          1           0        3.920319    0.641481   -1.672213
     24         17           0        0.061151    2.629593   -1.120495
     25          7           0       -1.774736    0.413154   -0.513389
     26          6           0       -2.989901   -0.218393   -0.242493
     27          6           0       -3.135106   -1.319423    0.603872
     28          6           0       -4.392633   -1.872094    0.805970
     29          6           0       -5.516470   -1.357633    0.179471
     30          6           0       -5.371092   -0.265822   -0.666787
     31          6           0       -4.126288    0.298146   -0.875333
     32          1           0       -1.831640    1.183313   -1.158449
     33          1           0       -2.268279   -1.732276    1.092200
     34          1           0       -4.486433   -2.725120    1.467099
     35          1           0       -6.490481   -1.799380    0.344525
     36          1           0       -6.233841    0.153722   -1.169138
     37          1           0       -4.026932    1.151943   -1.536068
 ---------------------------------------------------------------------

 SCF Done:  E(RwB97XD) =  -1264.88001687     A.U. after    1 cycles

 The electronic state is 1-A.
 Alpha  occ. eigenvalues -- -101.68961 -19.20740 -14.48170 -14.46203 -10.38866
 Alpha  occ. eigenvalues --  -10.34763 -10.33794 -10.31534 -10.30998 -10.30746
 Alpha  occ. eigenvalues --  -10.29315 -10.29124 -10.29070 -10.29011 -10.28994
 Alpha  occ. eigenvalues --  -10.28835 -10.28765 -10.28765 -10.28175 -10.28098
 Alpha  occ. eigenvalues --   -9.57502  -7.32110  -7.31323  -7.31268  -1.13683
 Alpha  occ. eigenvalues --   -1.04050  -1.03694  -0.97387  -0.96294  -0.94831
 Alpha  occ. eigenvalues --   -0.88706  -0.85230  -0.85116  -0.84952  -0.82071
 Alpha  occ. eigenvalues --   -0.78768  -0.75970  -0.71975  -0.70909  -0.70317
 Alpha  occ. eigenvalues --   -0.68095  -0.64794  -0.63050  -0.63018  -0.61266
 Alpha  occ. eigenvalues --   -0.58087  -0.57531  -0.56931  -0.55498  -0.54883
 Alpha  occ. eigenvalues --   -0.53796  -0.53432  -0.52499  -0.51839  -0.51640
 Alpha  occ. eigenvalues --   -0.50980  -0.50574  -0.49689  -0.47955  -0.47610
 Alpha  occ. eigenvalues --   -0.46938  -0.46490  -0.44897  -0.44178  -0.43556
 Alpha  occ. eigenvalues --   -0.42784  -0.42509  -0.41260  -0.40124  -0.39373
 Alpha  occ. eigenvalues --   -0.34435  -0.33893  -0.33704  -0.33137  -0.30241
 Alpha  occ. eigenvalues --   -0.26499
 Alpha virt. eigenvalues --    0.02613   0.05132   0.05386   0.05468   0.08171
 Alpha virt. eigenvalues --    0.10548   0.11649   0.12961   0.13686   0.13970
 Alpha virt. eigenvalues --    0.14558   0.15362   0.16422   0.16919   0.17205

 Mulliken charges:
               1
     1  C   -0.169915
     2  C    0.411470
     3  O   -0.555062
     4  C   -0.074850
     5  C   -0.294066
     6  H    0.155884
     7  H    0.153457
     8  H    0.154978
     9  N   -0.320423
    10  H    0.285024
    11  H    0.279887
    12  H    0.163032
    13  C    0.233492
    14  C   -0.268305
    15  C   -0.151708
    16  C   -0.152002
    17  C   -0.145869
    18  C   -0.228794
    19  H    0.172468
    20  H    0.142154
    21  H    0.144521
    22  H    0.143891
    23  H    0.141531
    24  Cl  -0.190774
    25  N   -0.273889
    26  C    0.302407
    27  C   -0.295151
    28  C   -0.111220
    29  C   -0.198995
    30  C   -0.098734
    31  C   -0.311708
    32  H    0.232628
    33  H    0.161127
    34  H    0.140492
    35  H    0.139929
    36  H    0.142805
    37  H    0.140289
 Sum of Mulliken charges =  -0.00000

 Dipole moment (field-independent basis, Debye):
    X=              5.7334    Y=              3.3800    Z=              3.2468  Tot=              7.4053
 Quadrupole moment (field-independent basis, Debye-Ang):
   XX=           -103.0614   YY=           -118.3684   ZZ=           -116.3125
   XY=              3.4933   XZ=              9.4600   YZ=              3.8207

  Exact polarizability: 394.811   3.111 304.823   2.475 -37.481 250.060
 Approx polarizability: 284.497   0.258 252.567  -1.841 -36.480 217.879

 ******    1 imaginary frequencies (negative Signs) ******

                      1                      2                      3
                      A                      A                      A
 Frequencies --   -360.0800                17.2984                23.8711
 Red. masses --      6.0086                 4.7428                 3.6992
 Frc consts  --      0.4590                 0.0008                 0.0012
 IR Inten    --   1093.3916                 1.2954                 0.9755

                      4                      5                      6
                      A                      A                      A
 Frequencies --     42.4912                50.0833                60.4090
 Red. masses --      4.2132                 4.9641                 3.1750
 Frc consts  --      0.0045                 0.0073                 0.0068
 IR Inten    --      3.1291                 6.4685                 9.3363

                      7                      8                      9
                      A                      A                      A
 Frequencies --     74.5276                81.4423               100.1881
 Red. masses --      3.6346                 5.2028                 4.6184
 Frc consts  --      0.0119                 0.0203                 0.0273
 IR Inten    --     11.6428                 6.5536                11.9767

                     10                     11                     12
                      A                      A                      A
 Frequencies --    126.0223               155.8530               197.6980
 Red. masses --      4.6286                 3.9911                 1.4484
 Frc consts  --      0.0433                 0.0571                 0.0334
 IR Inten    --     16.5286                 0.8910                 0.6868

                     13                     14                     15
                      A                      A                      A
 Frequencies --    216.9738               225.8770               242.5822
 Red. masses --      3.5310                 5.8653                 4.2922
 Frc consts  --      0.0979                 0.1763                 0.1488
 IR Inten    --     14.5063                15.9215                 0.2491

                     16                     17                     18
                      A                      A                      A
 Frequencies --    256.6704               275.1839               314.8248
 Red. masses --      5.1314                 3.9256                 5.7502
 Frc consts  --      0.1992                 0.1751                 0.3358
 IR Inten    --      3.7402                18.2248                34.9637

                     19                     20                     21
                      A                      A                      A
 Frequencies --    359.8282               390.6573               422.7797
 Red. masses --      7.7204                 5.5936                 2.9317
 Frc consts  --      0.5890                 0.5030                 0.3087
 IR Inten    --     11.7845                21.0725                 0.0097

                     22                     23                     24
                      A                      A                      A
 Frequencies --    423.4696               464.3459               506.0316
 Red. masses --      2.9955                 7.3578                 2.9013
 Frc consts  --      0.3165                 0.9347                 0.4377
 IR Inten    --      0.0323                11.9684                27.4048

                     25                     26                     27
                      A                      A                      A
 Frequencies --    528.1885               551.3068               560.3495
 Red. masses --      2.7454                 3.3345                 1.1638
 Frc consts  --      0.4513                 0.5971                 0.2153
 IR Inten    --     28.6408               122.5714               121.5165

                     28                     29                     30
                      A                      A                      A
 Frequencies --    613.3430               628.6086               636.2671
 Red. masses --      3.7087                 3.9675                 6.3928
 Frc consts  --      0.8220                 0.9237                 1.5248
 IR Inten    --     32.9494                37.2449                 1.3983

                     31                     32                     33
                      A                      A                      A
 Frequencies --    637.3572               706.2535               719.0912
 Red. masses --      5.4474                 2.7257                 1.8810
 Frc consts  --      1.3038                 0.8010                 0.5731
 IR Inten    --      1.6249                21.4048                64.2898

                     34                     35                     36
                      A                      A                      A
 Frequencies --    724.3398               765.5903               783.6892
 Red. masses --      1.6460                 8.5445                 1.8293
 Frc consts  --      0.5088                 2.9507                 0.6619
 IR Inten    --     94.1242                45.8985                98.2511

                     37                     38                     39
                      A                      A                      A
 Frequencies --    795.2189               830.5230               861.4673
 Red. masses --      2.1131                 5.6866                 1.2642
 Frc consts  --      0.7873                 2.3111                 0.5528
 IR Inten    --      8.2362                19.9668                 0.0240

                     40                     41                     42
                      A                      A                      A
 Frequencies --    874.1109               877.4152               879.9276
 Red. masses --      3.1022                 1.6338                 3.8585
 Frc consts  --      1.3966                 0.7411                 1.7602
 IR Inten    --      3.5834                 6.9377                19.2853

                     43                     44                     45
                      A                      A                      A
 Frequencies --    932.0976               963.3817              1000.0097
 Red. masses --      1.4663                 1.4686                 1.0916
 Frc consts  --      0.7506                 0.8031                 0.6431
 IR Inten    --     13.4987                 2.8653                57.2517

                     46                     47                     48
                      A                      A                      A
 Frequencies --   1000.7550              1011.7031              1016.9299
 Red. masses --      1.3457                 1.3998                 1.2979
 Frc consts  --      0.7940                 0.8442                 0.7908
 IR Inten    --      0.0072                 8.7307                 1.4152

                     49                     50                     51
                      A                      A                      A
 Frequencies --   1018.8387              1023.7846              1026.0387
 Red. masses --      4.4026                 1.5726                 4.2210
 Frc consts  --      2.6926                 0.9712                 2.6182
 IR Inten    --      9.2277                60.8642                 2.8674

                     52                     53                     54
                      A                      A                      A
 Frequencies --   1031.7002              1042.8925              1063.2349
 Red. masses --      1.4368                 2.4804                 2.1499
 Frc consts  --      0.9010                 1.5895                 1.4319
 IR Inten    --      8.4290                71.5114                22.8731

                     55                     56                     57
                      A                      A                      A
 Frequencies --   1069.3890              1083.6684              1118.3894
 Red. masses --      2.0555                 4.7798                 1.6048
 Frc consts  --      1.3850                 3.3072                 1.1827
 IR Inten    --     18.9567                61.0781                24.3705

                     58                     59                     60
                      A                      A                      A
 Frequencies --   1122.1253              1151.0934              1181.9268
 Red. masses --      1.5321                 1.1719                 1.1446
 Frc consts  --      1.1366                 0.9149                 0.9421
 IR Inten    --     10.0745               151.3350                 5.0565

                     61                     62                     63
                      A                      A                      A
 Frequencies --   1184.3608              1197.3752              1209.4282
 Red. masses --      1.1345                 2.5975                 1.1867
 Frc consts  --      0.9376                 2.1942                 1.0227
 IR Inten    --      4.4417                25.2935                44.9036

                     64                     65                     66
                      A                      A                      A
 Frequencies --   1213.2612              1220.2852              1235.3273
 Red. masses --      1.2808                 1.2559                 2.0781
 Frc consts  --      1.1108                 1.1019                 1.8684
 IR Inten    --     14.1264                10.8317               338.7390

                     67                     68                     69
                      A                      A                      A
 Frequencies --   1270.1363              1326.0232              1345.7594
 Red. masses --      2.5030                 4.3611                 1.7907
 Frc consts  --      2.3791                 4.5180                 1.9107
 IR Inten    --    164.5998                 1.3475               177.4802

                     70                     71                     72
                      A                      A                      A
 Frequencies --   1346.5818              1356.9125              1364.9300
 Red. masses --      2.1684                 1.8325                 1.4746
 Frc consts  --      2.3166                 1.9879                 1.6186
 IR Inten    --    225.1599                63.2053                60.6440

                     73                     74                     75
                      A                      A                      A
 Frequencies --   1386.5200              1449.0737              1467.6441
 Red. masses --      1.7911                 1.6918                 1.6333
 Frc consts  --      2.0288                 2.0931                 2.0728
 IR Inten    --    475.0224               213.4675               102.2260

                     76                     77                     78
                      A                      A                      A
 Frequencies --   1477.2578              1490.6661              1504.2943
 Red. masses --      2.1933                 1.0404                 1.1856
 Frc consts  --      2.8201                 1.3620                 1.5808
 IR Inten    --    549.0714                15.9248                77.4872

                     79                     80                     81
                      A                      A                      A
 Frequencies --   1506.6276              1544.2571              1547.2874
 Red. masses --      1.8032                 2.3356                 2.5058
 Frc consts  --      2.4116                 3.2816                 3.5345
 IR Inten    --     97.9375                28.9724               206.8941

                     82                     83                     84
                      A                      A                      A
 Frequencies --   1559.0908              1640.5880              1651.0233
 Red. masses --      2.1171                 1.1231                 5.6838
 Frc consts  --      3.0320                 1.7810                 9.1283
 IR Inten    --    872.9472                98.0151                22.7331

                     85                     86                     87
                      A                      A                      A
 Frequencies --   1656.9457              1662.2432              1675.1508
 Red. masses --      6.3047                 4.3079                 5.8266
 Frc consts  --     10.1984                 7.0130                 9.6333
 IR Inten    --    102.8514               129.4513                 6.1627

                     88                     89                     90
                      A                      A                      A
 Frequencies --   1679.5240              3066.4433              3142.9231
 Red. masses --      6.5361                 1.0330                 1.1049
 Frc consts  --     10.8627                 5.7232                 6.4302
 IR Inten    --    250.5664                38.4117                13.4798

                     91                     92                     93
                      A                      A                      A
 Frequencies --   3163.8094              3174.4100              3187.6114
 Red. masses --      1.1056                 1.0882                 1.0878
 Frc consts  --      6.5203                 6.4610                 6.5120
 IR Inten    --     15.9317                 5.1728                13.2726

                     94                     95                     96
                      A                      A                      A
 Frequencies --   3190.4686              3196.9052              3198.1106
 Red. masses --      1.0873                 1.0883                 1.0884
 Frc consts  --      6.5209                 6.5533                 6.5590
 IR Inten    --      7.8236                 2.2810                 1.9019

                     97                     98                     99
                      A                      A                      A
 Frequencies --   3206.4492              3208.4320              3220.7610
 Red. masses --      1.0933                 1.0932                 1.0981
 Frc consts  --      6.6224                 6.6302                 6.7112
 IR Inten    --     31.8710                32.5970                22.8952

                    100                    101                    102
                      A                      A                      A
 Frequencies --   3221.4823              3248.2933              3274.5727
 Red. masses --      1.0980                 1.0931                 1.0922
 Frc consts  --      6.7136                 6.7955                 6.8999
 IR Inten    --     23.2268                10.9432                 6.3681

                    103                    104                    105
                      A                      A                      A
 Frequencies --   3531.8424              3615.5641              3634.1885
 Red. masses --      1.0503                 1.0965                 1.0765
 Frc consts  --      7.7191                 8.4452                 8.3770
 IR Inten    --     42.9929                46.2482                89.5609

 - Thermochemistry -
 -------------------
 Temperature   298.150 Kelvin.  Pressure   1.00000 Atm.
 Atom     1 has atomic number  6 and mass  12.00000

 Molecular mass:   288.10294 amu.
 Principal axes and moments of inertia in atomic units:
                           1         2         3
     Eigenvalues --  3694.06135********************
           X            0.99999   0.00312   0.00288
           Y           -0.00321   0.99951   0.03114
           Z           -0.00279  -0.03115   0.99951
 This molecule is an asymmetric top.
 Rotational symmetry number  1.
 Warning -- assumption of classical behavior for rotation
           may cause significant error
 Rotational temperatures (Kelvin)      0.02345     0.00805     0.00696
 Rotational constants (GHZ):           0.48855     0.16773     0.14509
    1 imaginary frequencies ignored.
 Zero-point vibrational energy     792591.5 (Joules/Mol)
                                  189.43392 (Kcal/Mol)
 Warning -- explicit consideration of  27 degrees of freedom as
           vibrations may cause significant error
 Vibrational temperatures:     24.89    34.35    61.14    72.06    86.92
          (Kelvin)            107.23   117.18   144.15   181.32   224.24
                              284.44   312.18   324.99   349.02   369.29
                              395.93   452.96   517.71   562.07   608.29
                              609.28   668.09   728.07   759.95   793.21
                              806.22   882.46   904.43   915.45   917.01
                             1016.14  1034.61  1042.16  1101.51  1127.55
                             1144.14  1194.94  1239.46  1257.65  1262.40
                             1266.02  1341.08  1386.09  1438.79  1439.86
                             1455.62  1463.14  1465.88  1473.00  1476.24
                             1484.39  1500.49  1529.76  1538.61  1559.16
                             1609.11  1614.49  1656.17  1700.53  1704.03
                             1722.76  1740.10  1745.61  1755.72  1777.36
                             1827.44  1907.85  1936.25  1937.43  1952.29
                             1963.83  1994.89  2084.89  2111.61  2125.44
                             2144.74  2164.34  2167.70  2221.84  2226.20
                             2243.18  2360.44  2375.45  2383.98  2391.60
                             2410.17  2416.46  4411.93  4521.97  4552.02
                             4567.27  4586.26  4590.37  4599.63  4601.37
                             4613.37  4616.22  4633.96  4634.99  4673.57
                             4711.38  5081.53  5201.99  5228.79

 Zero-point correction=                           0.301882 (Hartree/Particle)
 Thermal correction to Energy=                    0.320606
 Thermal correction to Enthalpy=                  0.321550
 Thermal correction to Gibbs Free Energy=         0.251588
 Sum of electronic and zero-point Energies=          -1264.578135
 Sum of electronic and thermal Energies=             -1264.559411
 Sum of electronic and thermal Enthalpies=           -1264.558467
 Sum of electronic and thermal Free Energies=        -1264.628429

                     E (Thermal)             CV                S
                      KCal/Mol        Cal/Mol-Kelvin    Cal/Mol-Kelvin
 Total                  201.183             69.889            147.248
 Electronic               0.000              0.000              0.000
 Translational            0.889              2.981             42.872
 Rotational               0.889              2.981             34.557
 Vibrational            199.406             63.927             69.818
 Vibration     1          0.593              1.986              6.922
 Vibration     2          0.593              1.985              6.283
 Vibration     3          0.595              1.980              5.139
 Vibration     4          0.595              1.978              4.814
 Vibration     5          0.597              1.973              4.444
 Vibration     6          0.599              1.966              4.030
 Vibration     7          0.600              1.962              3.856
 Vibration     8          0.604              1.949              3.451
 Vibration     9          0.611              1.927              3.006
 Vibration    10          0.620              1.896              2.600
 Vibration    11          0.637              1.843              2.154
 Vibration    12          0.646              1.815              1.984
 Vibration    13          0.650              1.802              1.911
 Vibration    14          0.659              1.775              1.784
 Vibration    15          0.666              1.752              1.684
 Vibration    16          0.677              1.719              1.563
 Vibration    17          0.702              1.645              1.337
 Vibration    18          0.734              1.555              1.123
 Vibration    19          0.758              1.490              0.998
 Vibration    20          0.785              1.421              0.883
 Vibration    21          0.786              1.419              0.880
 Vibration    22          0.822              1.329              0.754
 Vibration    23          0.861              1.237              0.643
 Vibration    24          0.883              1.188              0.591
 Vibration    25          0.907              1.137              0.541
 Vibration    26          0.916              1.117              0.523
 Vibration    27          0.973              1.004              0.427

 Optimization completed.
    -- Stationary point found.
 Normal termination of Gaussian 16 at Thu Feb 11 15:02:32 2021.
