 Gaussian 16, Revision A.03,
 Gaussian 16:  ES64L-G16RevA.03 25-Dec-2016

 ----------------------------------------------------------------------
 # wB97XD def2tzvp, opt=(ts, noeigen, calcfc, maxcycles=70, maxstep=3),
  freq=noraman, scrf=(iefpcm, solvent=water)
 ----------------------------------------------------------------------

 ------------------------
 3_iteration/TS-223-3.out
 ------------------------
 Symbolic Z-matrix:
 Charge =  0 Multiplicity = 1

 SCF Done:  E(RwB97XD) =  -844.582559632     A.U. after   14 cycles
 Optimization completed.
    -- Stationary point found.
 Normal termination of Gaussian 16 at Thu Feb 11 13:45:02 2021.

 ---------------------------------------------------------------------
 #N Geom=AllCheck Guess=TCheck SCRF=Check GenChk RwB97XD/def2TZVP Freq
 ---------------------------------------------------------------------

 Structure from the checkpoint file:  "/beegfs/scratch/user/q/tla25/Gau-1239.chk"
 ------------------------
 3_iteration/TS-223-3.out
 ------------------------
 Charge =  0 Multiplicity = 1

                         Standard orientation:
 ---------------------------------------------------------------------
 Center     Atomic      Atomic             Coordinates (Angstroms)
 Number     Number       Type             X           Y           Z
 ---------------------------------------------------------------------
      1          6           0        0.529460    1.192840   -0.673441
      2          6           0       -0.483301    0.377600   -0.081021
      3          8           0       -0.323501   -0.302150    0.948579
      4          6           0        1.871950    1.074959   -0.266821
      5          6           0        1.487401    3.003009    1.706199
      6          1           0        1.325161    3.256409    2.754019
      7          1           0        2.166091    3.727909    1.259899
      8          1           0        0.533051    3.039760    1.179079
      9          7           0        2.037030    1.665389    1.545879
     10          1           0        2.988580    1.587039    1.883069
     11          1           0        1.459890    0.970559    2.008319
     12          1           0        2.488040    1.855749   -0.705451
     13          6           0        2.678339   -0.189151   -0.201021
     14          6           0        2.430099   -1.276621    0.636099
     15          6           0        3.240058   -2.402522    0.590509
     16          6           0        4.311858   -2.469522   -0.287281
     17          6           0        4.575689   -1.391362   -1.118941
     18          6           0        3.771509   -0.263732   -1.067191
     19          1           0        1.587979   -1.242881    1.309909
     20          1           0        3.029098   -3.235091    1.250449
     21          1           0        4.939758   -3.351032   -0.318321
     22          1           0        5.413149   -1.422722   -1.804701
     23          1           0        3.993010    0.575468   -1.716711
     24          6           0        0.143430    2.333550   -1.591991
     25          1           0        0.991681    3.003179   -1.740391
     26          1           0       -0.156540    1.998750   -2.593361
     27          1           0       -0.678659    2.941760   -1.199101
     28          7           0       -1.726321    0.423531   -0.702611
     29          6           0       -2.946541   -0.122939   -0.313451
     30          6           0       -3.161881   -0.794239    0.893389
     31          6           0       -4.423421   -1.289728    1.193379
     32          6           0       -5.487561   -1.136938    0.318359
     33          6           0       -5.275091   -0.469988   -0.881501
     34          6           0       -4.024781    0.029981   -1.194431
     35          1           0       -1.751030    0.907381   -1.583241
     36          1           0       -2.340971   -0.924649    1.578729
     37          1           0       -4.569351   -1.806588    2.134369
     38          1           0       -6.465411   -1.530018    0.564229
     39          1           0       -6.089511   -0.336568   -1.582901
     40          1           0       -3.874270    0.549171   -2.134441
 ---------------------------------------------------------------------

 SCF Done:  E(RwB97XD) =  -844.582559632     A.U. after    1 cycles

 The electronic state is 1-A.
 Alpha  occ. eigenvalues --  -19.19613 -14.47526 -14.45489 -10.37049 -10.33482
 Alpha  occ. eigenvalues --  -10.33340 -10.31247 -10.30112 -10.28912 -10.28844
 Alpha  occ. eigenvalues --  -10.28828 -10.28783 -10.28726 -10.28663 -10.28502
 Alpha  occ. eigenvalues --  -10.28284 -10.27939 -10.27795 -10.27211 -10.25130
 Alpha  occ. eigenvalues --   -1.12195  -1.03300  -1.02978  -0.96639  -0.95099
 Alpha  occ. eigenvalues --   -0.90139  -0.86080  -0.84860  -0.84784  -0.83427
 Alpha  occ. eigenvalues --   -0.78771  -0.77274  -0.74539  -0.71359  -0.70473
 Alpha  occ. eigenvalues --   -0.69667  -0.67410  -0.64100  -0.62487  -0.62353
 Alpha  occ. eigenvalues --   -0.60766  -0.57734  -0.56403  -0.56355  -0.54893
 Alpha  occ. eigenvalues --   -0.54232  -0.53450  -0.52749  -0.52031  -0.51283
 Alpha  occ. eigenvalues --   -0.51100  -0.50447  -0.49821  -0.48678  -0.48317
 Alpha  occ. eigenvalues --   -0.47399  -0.46590  -0.46082  -0.45732  -0.45453
 Alpha  occ. eigenvalues --   -0.44408  -0.42864  -0.42617  -0.42219  -0.41074
 Alpha  occ. eigenvalues --   -0.38998  -0.33650  -0.33553  -0.33337  -0.32651
 Alpha  occ. eigenvalues --   -0.29696  -0.25139
 Alpha virt. eigenvalues --    0.03345   0.05429   0.05615   0.06059   0.09476
 Alpha virt. eigenvalues --    0.10397   0.12286   0.13370   0.13502   0.14303
 Alpha virt. eigenvalues --    0.14980   0.16306   0.16525   0.17014   0.17252

 Mulliken charges:
               1
     1  C   -0.246872
     2  C    0.410562
     3  O   -0.598665
     4  C   -0.010973
     5  C   -0.287156
     6  H    0.150550
     7  H    0.148976
     8  H    0.152465
     9  N   -0.307803
    10  H    0.278287
    11  H    0.274185
    12  H    0.146164
    13  C    0.216755
    14  C   -0.267996
    15  C   -0.139514
    16  C   -0.164974
    17  C   -0.139615
    18  C   -0.255973
    19  H    0.170318
    20  H    0.139798
    21  H    0.142073
    22  H    0.141436
    23  H    0.136701
    24  C   -0.440582
    25  H    0.129189
    26  H    0.131991
    27  H    0.133247
    28  N   -0.268254
    29  C    0.297926
    30  C   -0.299706
    31  C   -0.111439
    32  C   -0.204103
    33  C   -0.099648
    34  C   -0.317630
    35  H    0.246289
    36  H    0.157390
    37  H    0.138858
    38  H    0.138425
    39  H    0.141174
    40  H    0.138141
 Sum of Mulliken charges =  -0.00000

 Dipole moment (field-independent basis, Debye):
    X=              4.9984    Y=              5.3753    Z=              0.8090  Tot=              7.3845
 Quadrupole moment (field-independent basis, Debye-Ang):
   XX=           -106.4381   YY=           -109.0905   ZZ=           -109.3802
   XY=              6.0919   XZ=              8.2852   YZ=              0.7903

  Exact polarizability: 401.169  13.159 277.694  -2.715 -33.283 277.220
 Approx polarizability: 286.187   7.682 226.582  -5.172 -30.599 238.739

 ******    1 imaginary frequencies (negative Signs) ******

                      1                      2                      3
                      A                      A                      A
 Frequencies --   -401.6233                17.6462                27.4960
 Red. masses --      5.8567                 4.3138                 4.0033
 Frc consts  --      0.5566                 0.0008                 0.0018
 IR Inten    --   1227.9272                 0.4138                 2.7349

                      4                      5                      6
                      A                      A                      A
 Frequencies --     39.7816                57.7546                69.0071
 Red. masses --      4.3122                 3.4665                 4.7244
 Frc consts  --      0.0040                 0.0068                 0.0133
 IR Inten    --      1.8788                 3.6469                 4.2020

                      7                      8                      9
                      A                      A                      A
 Frequencies --     84.4052               100.4614               110.9623
 Red. masses --      2.9270                 3.1084                 3.7837
 Frc consts  --      0.0123                 0.0185                 0.0274
 IR Inten    --      9.0922                27.6861                 8.4805

                     10                     11                     12
                      A                      A                      A
 Frequencies --    148.5126               175.5305               189.2733
 Red. masses --      2.8891                 2.1523                 1.3376
 Frc consts  --      0.0375                 0.0391                 0.0282
 IR Inten    --     14.3287                 2.1320                 8.6711

                     13                     14                     15
                      A                      A                      A
 Frequencies --    211.3135               222.7757               233.1701
 Red. masses --      1.3296                 4.6486                 3.3919
 Frc consts  --      0.0350                 0.1359                 0.1087
 IR Inten    --      2.0751                 4.5656                 9.5834

                     16                     17                     18
                      A                      A                      A
 Frequencies --    260.6480               271.0812               294.2542
 Red. masses --      3.9513                 3.8681                 3.9396
 Frc consts  --      0.1582                 0.1675                 0.2010
 IR Inten    --      4.9580                21.9754                27.4008

                     19                     20                     21
                      A                      A                      A
 Frequencies --    341.9639               371.4348               404.0281
 Red. masses --      4.4762                 6.4969                 3.6215
 Frc consts  --      0.3084                 0.5281                 0.3483
 IR Inten    --      0.3942                 9.7551                27.0789

                     22                     23                     24
                      A                      A                      A
 Frequencies --    424.2961               425.7192               503.5931
 Red. masses --      2.9490                 3.0026                 2.9100
 Frc consts  --      0.3128                 0.3206                 0.4348
 IR Inten    --      0.0500                 0.0267                35.9331

                     25                     26                     27
                      A                      A                      A
 Frequencies --    528.7743               543.6721               555.4251
 Red. masses --      2.7056                 2.2878                 1.3466
 Frc consts  --      0.4457                 0.3984                 0.2448
 IR Inten    --     30.2415                73.7516               127.9602

                     28                     29                     30
                      A                      A                      A
 Frequencies --    587.1798               630.4535               636.4896
 Red. masses --      4.8323                 3.4019                 6.3445
 Frc consts  --      0.9816                 0.7967                 1.5144
 IR Inten    --     46.7487                27.2878                 0.9201

                     31                     32                     33
                      A                      A                      A
 Frequencies --    639.3403               657.1790               719.4967
 Red. masses --      4.8696                 5.4025                 1.8826
 Frc consts  --      1.1727                 1.3747                 0.5742
 IR Inten    --      8.1339                52.1320                65.1665

                     34                     35                     36
                      A                      A                      A
 Frequencies --    721.5639               726.6077               778.5731
 Red. masses --      2.1745                 1.6487                 5.0714
 Frc consts  --      0.6671                 0.5128                 1.8112
 IR Inten    --     12.6324                96.1569                49.6871

                     37                     38                     39
                      A                      A                      A
 Frequencies --    782.5253               797.1776               853.9020
 Red. masses --      1.8879                 2.2772                 4.0968
 Frc consts  --      0.6811                 0.8526                 1.7600
 IR Inten    --    111.9034                 4.3377                 0.9464

                     40                     41                     42
                      A                      A                      A
 Frequencies --    860.2685               872.6237               879.9836
 Red. masses --      1.2636                 4.9538                 1.2575
 Frc consts  --      0.5510                 2.2225                 0.5737
 IR Inten    --      0.2324                 1.9880                 1.6807

                     43                     44                     45
                      A                      A                      A
 Frequencies --    924.1494               928.8224               964.4180
 Red. masses --      4.1578                 1.5452                 1.4750
 Frc consts  --      2.0922                 0.7854                 0.8083
 IR Inten    --     18.7501                12.1646                 3.9738

                     46                     47                     48
                      A                      A                      A
 Frequencies --    988.3765               998.8120              1013.3801
 Red. masses --      1.1110                 1.3411                 1.2826
 Frc consts  --      0.6395                 0.7883                 0.7761
 IR Inten    --     94.3246                 0.0529                 1.0326

                     49                     50                     51
                      A                      A                      A
 Frequencies --   1014.0230              1018.3016              1024.6022
 Red. masses --      1.3782                 5.3417                 2.7297
 Frc consts  --      0.8350                 3.2635                 1.6884
 IR Inten    --      2.9825                35.0766                78.1545

                     52                     53                     54
                      A                      A                      A
 Frequencies --   1026.4661              1031.1060              1041.0115
 Red. masses --      2.1619                 1.3640                 1.1708
 Frc consts  --      1.3421                 0.8544                 0.7476
 IR Inten    --     98.4377                21.2314                55.9834

                     55                     56                     57
                      A                      A                      A
 Frequencies --   1060.1900              1061.2871              1070.5555
 Red. masses --      1.5900                 1.7358                 1.9437
 Frc consts  --      1.0529                 1.1519                 1.3125
 IR Inten    --      4.2205                18.3062                 3.3409

                     58                     59                     60
                      A                      A                      A
 Frequencies --   1091.3529              1112.9727              1119.7392
 Red. masses --      4.5641                 1.6508                 1.5583
 Frc consts  --      3.2029                 1.2048                 1.1512
 IR Inten    --     42.8255                 6.8550                25.5048

                     61                     62                     63
                      A                      A                      A
 Frequencies --   1149.6914              1163.8853              1180.4508
 Red. masses --      1.2984                 2.5526                 1.1238
 Frc consts  --      1.0112                 2.0373                 0.9226
 IR Inten    --     35.6683               233.9345                 8.9675

                     64                     65                     66
                      A                      A                      A
 Frequencies --   1184.3696              1204.3111              1207.2244
 Red. masses --      1.1311                 1.4013                 1.1551
 Frc consts  --      0.9348                 1.1975                 0.9918
 IR Inten    --      4.7283                35.5070                22.6935

                     67                     68                     69
                      A                      A                      A
 Frequencies --   1219.7007              1232.2217              1252.1405
 Red. masses --      1.2082                 2.7823                 2.1135
 Frc consts  --      1.0590                 2.4890                 1.9524
 IR Inten    --     12.5439                67.2505               227.8495

                     70                     71                     72
                      A                      A                      A
 Frequencies --   1276.8033              1332.6115              1343.9901
 Red. masses --      2.6933                 4.5115                 2.9659
 Frc consts  --      2.5869                 4.7204                 3.1565
 IR Inten    --    263.1530                27.5833               527.2462

                     73                     74                     75
                      A                      A                      A
 Frequencies --   1349.9826              1357.5254              1371.0543
 Red. masses --      1.3411                 1.9660                 1.4503
 Frc consts  --      1.4400                 2.1347                 1.6063
 IR Inten    --      5.9784                99.4219                59.5989

                     76                     77                     78
                      A                      A                      A
 Frequencies --   1396.8686              1423.1089              1447.3009
 Red. masses --      2.0109                 1.3235                 1.2655
 Frc consts  --      2.3119                 1.5793                 1.5618
 IR Inten    --    421.1160               205.0739                 6.1754

                     79                     80                     81
                      A                      A                      A
 Frequencies --   1464.8323              1474.0038              1483.4378
 Red. masses --      2.0909                 1.9130                 1.1148
 Frc consts  --      2.6434                 2.4489                 1.4454
 IR Inten    --     16.6769               374.0593                55.1719

                     82                     83                     84
                      A                      A                      A
 Frequencies --   1492.7985              1502.8377              1508.0929
 Red. masses --      1.0442                 1.0500                 2.1740
 Frc consts  --      1.3711                 1.3972                 2.9132
 IR Inten    --     11.8050                 8.1427               105.0227

                     85                     86                     87
                      A                      A                      A
 Frequencies --   1511.8634              1543.4334              1545.3564
 Red. masses --      1.1060                 2.3417                 2.4543
 Frc consts  --      1.4895                 3.2867                 3.4533
 IR Inten    --    306.9066                61.7210               219.6617

                     88                     89                     90
                      A                      A                      A
 Frequencies --   1563.9329              1638.9859              1649.3986
 Red. masses --      2.0607                 1.3525                 4.6117
 Frc consts  --      2.9697                 2.1406                 7.3920
 IR Inten    --    425.0659               204.2086                29.9839

                     91                     92                     93
                      A                      A                      A
 Frequencies --   1652.5955              1665.7068              1674.2723
 Red. masses --      3.8589                 3.1220                 5.7762
 Frc consts  --      6.2094                 5.1036                 9.5399
 IR Inten    --     77.4607               148.0701                14.2245

                     94                     95                     96
                      A                      A                      A
 Frequencies --   1675.4033              2997.2045              3042.3946
 Red. masses --      5.9137                 1.0457                 1.0961
 Frc consts  --      9.7801                 5.5347                 5.9776
 IR Inten    --    284.9480               128.4811                61.9197

                     97                     98                     99
                      A                      A                      A
 Frequencies --   3061.4287              3114.2081              3137.2974
 Red. masses --      1.0327                 1.0954                 1.1046
 Frc consts  --      5.7026                 6.2594                 6.4055
 IR Inten    --     55.6563                31.1379                11.7794

                    100                    101                    102
                      A                      A                      A
 Frequencies --   3146.5547              3156.1386              3184.5644
 Red. masses --      1.0874                 1.1056                 1.0877
 Frc consts  --      6.3434                 6.4886                 6.4991
 IR Inten    --     36.7610                18.2626                15.7620

                    103                    104                    105
                      A                      A                      A
 Frequencies --   3185.8822              3194.1975              3194.5928
 Red. masses --      1.0874                 1.0883                 1.0881
 Frc consts  --      6.5029                 6.5420                 6.5427
 IR Inten    --     11.0112                 3.2843                 1.5786

                    106                    107                    108
                      A                      A                      A
 Frequencies --   3204.1189              3204.9788              3218.0953
 Red. masses --      1.0930                 1.0931                 1.0981
 Frc consts  --      6.6116                 6.6152                 6.7001
 IR Inten    --     32.8062                37.5857                25.8229

                    109                    110                    111
                      A                      A                      A
 Frequencies --   3220.3722              3251.2096              3271.8350
 Red. masses --      1.0978                 1.0924                 1.0920
 Frc consts  --      6.7077                 6.8032                 6.8876
 IR Inten    --     24.5426                13.6343                 5.8751

                    112                    113                    114
                      A                      A                      A
 Frequencies --   3514.2724              3607.2535              3660.3832
 Red. masses --      1.0511                 1.0963                 1.0761
 Frc consts  --      7.6481                 8.4053                 8.4952
 IR Inten    --     25.1525                68.0343                48.7421

 - Thermochemistry -
 -------------------
 Temperature   298.150 Kelvin.  Pressure   1.00000 Atm.
 Atom     1 has atomic number  6 and mass  12.00000

 Molecular mass:   268.15756 amu.
 Principal axes and moments of inertia in atomic units:
                           1         2         3
     Eigenvalues --  3054.29292********************
           X            0.99999   0.00500   0.00182
           Y           -0.00497   0.99989  -0.01428
           Z           -0.00189   0.01427   0.99990
 This molecule is an asymmetric top.
 Rotational symmetry number  1.
 Warning -- assumption of classical behavior for rotation
           may cause significant error
 Rotational temperatures (Kelvin)      0.02836     0.00819     0.00743
 Rotational constants (GHZ):           0.59089     0.17057     0.15491
    1 imaginary frequencies ignored.
 Zero-point vibrational energy     890937.3 (Joules/Mol)
                                  212.93913 (Kcal/Mol)
 Warning -- explicit consideration of  27 degrees of freedom as
           vibrations may cause significant error
 Vibrational temperatures:     25.39    39.56    57.24    83.10    99.29
          (Kelvin)            121.44   144.54   159.65   213.68   252.55
                              272.32   304.03   320.52   335.48   375.01
                              390.03   423.37   492.01   534.41   581.31
                              610.47   612.51   724.56   760.79   782.22
                              799.13   844.82   907.08   915.77   919.87
                              945.53  1035.20  1038.17  1045.43  1120.19
                             1125.88  1146.96  1228.57  1237.73  1255.51
                             1266.10  1329.64  1336.37  1387.58  1422.05
                             1437.07  1458.03  1458.95  1465.11  1474.17
                             1476.86  1483.53  1497.78  1525.38  1526.96
                             1540.29  1570.21  1601.32  1611.05  1654.15
                             1674.57  1698.41  1704.04  1732.74  1736.93
                             1754.88  1772.89  1801.55  1837.04  1917.33
                             1933.70  1942.32  1953.18  1972.64  2009.78
                             2047.54  2082.34  2107.57  2120.76  2134.34
                             2147.80  2162.25  2169.81  2175.23  2220.66
                             2223.42  2250.15  2358.14  2373.12  2377.72
                             2396.58  2408.90  2410.53  4312.31  4377.33
                             4404.71  4480.65  4513.87  4527.19  4540.98
                             4581.88  4583.77  4595.74  4596.31  4610.01
                             4611.25  4630.12  4633.40  4677.77  4707.44
                             5056.25  5190.03  5266.48

 Zero-point correction=                           0.339340 (Hartree/Particle)
 Thermal correction to Energy=                    0.358224
 Thermal correction to Enthalpy=                  0.359168
 Thermal correction to Gibbs Free Energy=         0.289880
 Sum of electronic and zero-point Energies=           -844.243220
 Sum of electronic and thermal Energies=              -844.224336
 Sum of electronic and thermal Enthalpies=            -844.223391
 Sum of electronic and thermal Free Energies=         -844.292680

                     E (Thermal)             CV                S
                      KCal/Mol        Cal/Mol-Kelvin    Cal/Mol-Kelvin
 Total                  224.789             71.711            145.830
 Electronic               0.000              0.000              0.000
 Translational            0.889              2.981             42.658
 Rotational               0.889              2.981             34.287
 Vibrational            223.011             65.749             68.885
 Vibration     1          0.593              1.986              6.883
 Vibration     2          0.593              1.984              6.002
 Vibration     3          0.594              1.981              5.270
 Vibration     4          0.596              1.974              4.532
 Vibration     5          0.598              1.969              4.181
 Vibration     6          0.601              1.960              3.786
 Vibration     7          0.604              1.949              3.445
 Vibration     8          0.607              1.940              3.252
 Vibration     9          0.618              1.904              2.691
 Vibration    10          0.627              1.873              2.375
 Vibration    11          0.633              1.855              2.235
 Vibration    12          0.643              1.824              2.032
 Vibration    13          0.648              1.806              1.936
 Vibration    14          0.654              1.790              1.854
 Vibration    15          0.669              1.745              1.657
 Vibration    16          0.675              1.727              1.589
 Vibration    17          0.689              1.684              1.449
 Vibration    18          0.721              1.592              1.203
 Vibration    19          0.743              1.531              1.074
 Vibration    20          0.769              1.461              0.948
 Vibration    21          0.786              1.417              0.877
 Vibration    22          0.788              1.414              0.873
 Vibration    23          0.859              1.242              0.649
 Vibration    24          0.884              1.186              0.590
 Vibration    25          0.899              1.154              0.557
 Vibration    26          0.911              1.128              0.533
 Vibration    27          0.944              1.059              0.472

 Optimization completed.
    -- Stationary point found.
 Normal termination of Gaussian 16 at Thu Feb 11 16:10:15 2021.
