 Gaussian 16, Revision A.03,
 Gaussian 16:  ES64L-G16RevA.03 25-Dec-2016

 ----------------------------------------------------------------------
 # wB97XD def2tzvp, opt=(ts, noeigen, calcfc, maxcycles=70, maxstep=1),
  freq=noraman, scrf=(iefpcm, solvent=water)
 ----------------------------------------------------------------------

 ------------------------
 0_iteration/TS-269-0.out
 ------------------------
 Symbolic Z-matrix:
 Charge =  0 Multiplicity = 1

 SCF Done:  E(RwB97XD) =  -2956.09884871     A.U. after   14 cycles
 SCF Done:  E(RwB97XD) =  -2956.09884246     A.U. after   10 cycles
 SCF Done:  E(RwB97XD) =  -2956.09883972     A.U. after   10 cycles
 SCF Done:  E(RwB97XD) =  -2956.09883993     A.U. after   10 cycles
 SCF Done:  E(RwB97XD) =  -2956.09884290     A.U. after    9 cycles
 SCF Done:  E(RwB97XD) =  -2956.09885226     A.U. after    9 cycles
 SCF Done:  E(RwB97XD) =  -2956.09886676     A.U. after    9 cycles
 SCF Done:  E(RwB97XD) =  -2956.09888534     A.U. after    9 cycles
 SCF Done:  E(RwB97XD) =  -2956.09890788     A.U. after    9 cycles
 SCF Done:  E(RwB97XD) =  -2956.09893421     A.U. after    9 cycles
 SCF Done:  E(RwB97XD) =  -2956.09944076     A.U. after    9 cycles
 SCF Done:  E(RwB97XD) =  -2956.09945134     A.U. after    9 cycles
 SCF Done:  E(RwB97XD) =  -2956.09946152     A.U. after    9 cycles
 SCF Done:  E(RwB97XD) =  -2956.09947121     A.U. after    9 cycles
 SCF Done:  E(RwB97XD) =  -2956.09947983     A.U. after    9 cycles
 SCF Done:  E(RwB97XD) =  -2956.09948691     A.U. after    9 cycles
 SCF Done:  E(RwB97XD) =  -2956.09949204     A.U. after    9 cycles
 SCF Done:  E(RwB97XD) =  -2956.09949450     A.U. after    9 cycles
 SCF Done:  E(RwB97XD) =  -2956.09949474     A.U. after    8 cycles
 Optimization completed.
    -- Stationary point found.
 Normal termination of Gaussian 16 at Tue Feb  9 17:47:41 2021.

 ---------------------------------------------------------------------
 #N Geom=AllCheck Guess=TCheck SCRF=Check GenChk RwB97XD/def2TZVP Freq
 ---------------------------------------------------------------------

 Structure from the checkpoint file:  "/beegfs/scratch/user/q/tla25/Gau-23639.chk"
 ------------------------
 0_iteration/TS-269-0.out
 ------------------------
 Charge =  0 Multiplicity = 1

                         Standard orientation:
 ---------------------------------------------------------------------
 Center     Atomic      Atomic             Coordinates (Angstroms)
 Number     Number       Type             X           Y           Z
 ---------------------------------------------------------------------
      1          6           0        0.103364   -0.094559   -0.597264
      2          6           0       -1.146683   -0.738998   -0.276152
      3          8           0       -1.314097   -1.949026   -0.512125
      4          6           0        1.143177   -0.800586   -1.179629
      5          6           0        2.383506   -1.166065    1.295544
      6          1           0        2.792643   -1.838903    2.048972
      7          1           0        3.086359   -0.355889    1.111466
      8          1           0        1.447902   -0.743774    1.661176
      9          7           0        2.113373   -1.860646    0.041063
     10          1           0        2.962497   -2.190931   -0.402764
     11          1           0        1.506502   -2.658136    0.191384
     12          1           0        1.990891   -0.245317   -1.560756
     13          1           0        0.852938   -1.649048   -1.787507
     14         35           0        0.434513    1.710103   -0.017778
     15          7           0       -2.143211   -0.011171    0.291515
     16          6           0       -3.440973   -0.580123    0.560900
     17          1           0       -2.023461    0.980323    0.388805
     18          1           0       -3.350636   -1.475289    1.177351
     19          1           0       -4.037163    0.153946    1.099417
     20          1           0       -3.969145   -0.853670   -0.356755
 ---------------------------------------------------------------------

 SCF Done:  E(RwB97XD) =  -2956.09949474     A.U. after    1 cycles

 The electronic state is 1-A.
 Alpha  occ. eigenvalues -- -483.11922 -62.66761 -56.45852 -56.45541 -56.45524
 Alpha  occ. eigenvalues --  -19.19398 -14.48250 -14.44114 -10.37243 -10.32723
 Alpha  occ. eigenvalues --  -10.31499 -10.30479 -10.29416  -8.80879  -6.62952
 Alpha  occ. eigenvalues --   -6.61955  -6.61901  -2.73354  -2.73073  -2.73028
 Alpha  occ. eigenvalues --   -2.72222  -2.72221  -1.12035  -1.03629  -1.00814
 Alpha  occ. eigenvalues --   -0.91401  -0.83078  -0.80446  -0.78520  -0.70807
 Alpha  occ. eigenvalues --   -0.65618  -0.63020  -0.58512  -0.57081  -0.55184
 Alpha  occ. eigenvalues --   -0.53861  -0.52572  -0.51380  -0.49065  -0.47791
 Alpha  occ. eigenvalues --   -0.46835  -0.46779  -0.44398  -0.42911  -0.39017
 Alpha  occ. eigenvalues --   -0.37470  -0.33445  -0.32831  -0.26175
 Alpha virt. eigenvalues --    0.07034   0.08846   0.10418   0.13027   0.14362
 Alpha virt. eigenvalues --    0.15234   0.16115   0.16635   0.17902   0.18477
 Alpha virt. eigenvalues --    0.19744   0.20548   0.20980   0.21780   0.22979

 Mulliken charges:
               1
     1  C   -0.229635
     2  C    0.357473
     3  O   -0.574575
     4  C   -0.188411
     5  C   -0.293432
     6  H    0.153971
     7  H    0.154146
     8  H    0.153246
     9  N   -0.306600
    10  H    0.282855
    11  H    0.281059
    12  H    0.175804
    13  H    0.167126
    14  Br  -0.189286
    15  N   -0.332461
    16  C   -0.245373
    17  H    0.247949
    18  H    0.125808
    19  H    0.138296
    20  H    0.122039
 Sum of Mulliken charges =  -0.00000

 Dipole moment (field-independent basis, Debye):
    X=              5.7369    Y=             -1.7468    Z=              1.9467  Tot=              6.3050
 Quadrupole moment (field-independent basis, Debye-Ang):
   XX=            -49.4803   YY=            -68.8393   ZZ=            -67.3677
   XY=            -18.5006   XZ=             -3.7916   YZ=             -1.5514

  Exact polarizability: 168.580  -9.372 151.268  -3.495   6.776 111.254
 Approx polarizability: 125.047  -5.015 126.250  -3.220   6.741  96.166

 ******    1 imaginary frequencies (negative Signs) ******

                      1                      2                      3
                      A                      A                      A
 Frequencies --   -361.1788                43.4250                69.1769
 Red. masses --      6.0866                 3.1669                 4.1760
 Frc consts  --      0.4678                 0.0035                 0.0118
 IR Inten    --    914.0360                 4.6407                43.6821

                      4                      5                      6
                      A                      A                      A
 Frequencies --     75.1329                89.4465               118.9725
 Red. masses --      1.9276                 1.7713                 2.9816
 Frc consts  --      0.0064                 0.0083                 0.0249
 IR Inten    --      9.5448                10.5969                22.0566

                      7                      8                      9
                      A                      A                      A
 Frequencies --    131.4202               163.9591               209.6256
 Red. masses --      2.4737                 4.1720                 1.1792
 Frc consts  --      0.0252                 0.0661                 0.0305
 IR Inten    --     13.7129                 3.3807                 1.0823

                     10                     11                     12
                      A                      A                      A
 Frequencies --    242.0203               285.3974               352.4486
 Red. masses --      3.0469                 3.6431                 2.6787
 Frc consts  --      0.1052                 0.1748                 0.1961
 IR Inten    --      4.8182                24.0508                23.7099

                     13                     14                     15
                      A                      A                      A
 Frequencies --    376.4312               397.6705               426.3842
 Red. masses --      2.2730                 1.9156                 3.2728
 Frc consts  --      0.1898                 0.1785                 0.3506
 IR Inten    --     43.4661                71.0211                67.6785

                     16                     17                     18
                      A                      A                      A
 Frequencies --    543.3681               699.9563               714.3447
 Red. masses --      2.5800                 1.6080                 3.2916
 Frc consts  --      0.4488                 0.4642                 0.9896
 IR Inten    --     19.1183                36.2400                22.2656

                     19                     20                     21
                      A                      A                      A
 Frequencies --    774.6109               884.2430              1000.1829
 Red. masses --      8.9557                 2.1393                 1.5810
 Frc consts  --      3.1660                 0.9855                 0.9318
 IR Inten    --     31.0246                 5.0156                62.4824

                     22                     23                     24
                      A                      A                      A
 Frequencies --   1011.0044              1054.5238              1073.4353
 Red. masses --      1.1054                 1.8441                 2.1851
 Frc consts  --      0.6657                 1.2082                 1.4835
 IR Inten    --     68.3726                33.0482                84.5744

                     25                     26                     27
                      A                      A                      A
 Frequencies --   1129.9448              1155.6662              1182.1102
 Red. masses --      2.4385                 1.2950                 1.6897
 Frc consts  --      1.8344                 1.0190                 1.3912
 IR Inten    --     21.3391                 5.6396                56.4737

                     28                     29                     30
                      A                      A                      A
 Frequencies --   1196.9095              1226.2456              1234.8293
 Red. masses --      1.4052                 1.3939                 1.2359
 Frc consts  --      1.1860                 1.2350                 1.1104
 IR Inten    --    162.3088                33.0500               105.1759

                     31                     32                     33
                      A                      A                      A
 Frequencies --   1290.9956              1352.8288              1367.4713
 Red. masses --      1.9921                 1.3154                 2.0203
 Frc consts  --      1.9562                 1.4184                 2.2259
 IR Inten    --     26.7443                 8.3806               446.5597

                     34                     35                     36
                      A                      A                      A
 Frequencies --   1456.1672              1458.4567              1476.6351
 Red. masses --      1.2320                 1.1883                 1.0582
 Frc consts  --      1.5392                 1.4893                 1.3594
 IR Inten    --     23.6339                19.8943                27.9489

                     37                     38                     39
                      A                      A                      A
 Frequencies --   1487.7782              1491.8554              1505.8061
 Red. masses --      1.8333                 1.0449                 1.0357
 Frc consts  --      2.3909                 1.3702                 1.3836
 IR Inten    --    173.4117                14.3834                11.9424

                     40                     41                     42
                      A                      A                      A
 Frequencies --   1508.1439              1556.7912              1628.3942
 Red. masses --      1.0942                 2.0743                 6.3278
 Frc consts  --      1.4664                 2.9620                 9.8860
 IR Inten    --     31.7608               792.8303               473.8791

                     43                     44                     45
                      A                      A                      A
 Frequencies --   1649.1642              3040.4773              3069.0633
 Red. masses --      1.1016                 1.0412                 1.0328
 Frc consts  --      1.7653                 5.6711                 5.7317
 IR Inten    --     28.1045                94.7150                32.5859

                     46                     47                     48
                      A                      A                      A
 Frequencies --   3104.6168              3147.6288              3152.9570
 Red. masses --      1.0974                 1.1051                 1.0594
 Frc consts  --      6.2320                 6.4507                 6.2049
 IR Inten    --     44.8595                14.5902                26.2025

                     49                     50                     51
                      A                      A                      A
 Frequencies --   3155.4101              3165.2254              3239.4668
 Red. masses --      1.1020                 1.1056                 1.1163
 Frc consts  --      6.4648                 6.5259                 6.9022
 IR Inten    --     25.0989                15.2473                 2.1314

                     52                     53                     54
                      A                      A                      A
 Frequencies --   3526.5706              3609.7420              3679.6696
 Red. masses --      1.0504                 1.0966                 1.0777
 Frc consts  --      7.6969                 8.4190                 8.5970
 IR Inten    --     36.6905                48.1836                73.6913

 - Thermochemistry -
 -------------------
 Temperature   298.150 Kelvin.  Pressure   1.00000 Atm.
 Atom     1 has atomic number  6 and mass  12.00000

 Molecular mass:   194.00547 amu.
 Principal axes and moments of inertia in atomic units:
                           1         2         3
     Eigenvalues --  1636.715242022.785893172.59886
           X            0.98185  -0.18961  -0.00359
           Y            0.18957   0.98183  -0.00830
           Z            0.00510   0.00747   0.99996
 This molecule is an asymmetric top.
 Rotational symmetry number  1.
 Warning -- assumption of classical behavior for rotation
           may cause significant error
 Rotational temperatures (Kelvin)      0.05292     0.04282     0.02730
 Rotational constants (GHZ):           1.10266     0.89221     0.56885
    1 imaginary frequencies ignored.
 Zero-point vibrational energy     436542.5 (Joules/Mol)
                                  104.33615 (Kcal/Mol)
 Warning -- explicit consideration of  15 degrees of freedom as
           vibrations may cause significant error
 Vibrational temperatures:     62.48    99.53   108.10   128.69   171.17
          (Kelvin)            189.08   235.90   301.60   348.21   410.62
                              507.09   541.60   572.16   613.47   781.79
                             1007.08  1027.78  1114.49  1272.23  1439.04
                             1454.61  1517.22  1544.43  1625.74  1662.75
                             1700.79  1722.09  1764.29  1776.64  1857.45
                             1946.42  1967.49  2095.10  2098.39  2124.55
                             2140.58  2146.45  2166.52  2169.88  2239.88
                             2342.90  2372.78  4374.57  4415.70  4466.85
                             4528.74  4536.40  4539.93  4554.05  4660.87
                             5073.95  5193.61  5294.22

 Zero-point correction=                           0.166270 (Hartree/Particle)
 Thermal correction to Energy=                    0.177919
 Thermal correction to Enthalpy=                  0.178863
 Thermal correction to Gibbs Free Energy=         0.126779
 Sum of electronic and zero-point Energies=          -2955.933224
 Sum of electronic and thermal Energies=             -2955.921576
 Sum of electronic and thermal Enthalpies=           -2955.920632
 Sum of electronic and thermal Free Energies=        -2955.972716

                     E (Thermal)             CV                S
                      KCal/Mol        Cal/Mol-Kelvin    Cal/Mol-Kelvin
 Total                  111.646             38.616            109.620
 Electronic               0.000              0.000              0.000
 Translational            0.889              2.981             41.693
 Rotational               0.889              2.981             30.730
 Vibrational            109.868             32.654             37.196
 Vibration     1          0.595              1.980              5.096
 Vibration     2          0.598              1.969              4.177
 Vibration     3          0.599              1.966              4.014
 Vibration     4          0.602              1.957              3.672
 Vibration     5          0.609              1.934              3.117
 Vibration     6          0.612              1.922              2.925
 Vibration     7          0.623              1.887              2.504
 Vibration     8          0.642              1.826              2.047
 Vibration     9          0.658              1.776              1.788
 Vibration    10          0.683              1.701              1.501
 Vibration    11          0.729              1.570              1.155
 Vibration    12          0.747              1.520              1.053
 Vibration    13          0.764              1.475              0.971
 Vibration    14          0.788              1.413              0.871
 Vibration    15          0.898              1.154              0.558

 Optimization completed.
    -- Stationary point found.
 Normal termination of Gaussian 16 at Tue Feb  9 17:58:28 2021.
