 Gaussian 16, Revision A.03,
 Gaussian 16:  ES64L-G16RevA.03 25-Dec-2016

 ----------------------------------------------------------------------
 # wB97XD def2tzvp, opt=(ts, noeigen, calcfc, maxcycles=70, maxstep=5),
  freq=noraman, scrf=(iefpcm, solvent=water)
 ----------------------------------------------------------------------

 ------------------------
 2_iteration/TS-204-2.out
 ------------------------
 Symbolic Z-matrix:
 Charge =  0 Multiplicity = 1

 SCF Done:  E(RwB97XD) =  -864.448063017     A.U. after   14 cycles
 SCF Done:  E(RwB97XD) =  -864.448063154     A.U. after    8 cycles
 SCF Done:  E(RwB97XD) =  -864.448063019     A.U. after    8 cycles
 Optimization completed.
    -- Stationary point found.
 Normal termination of Gaussian 16 at Mon Mar 29 13:01:24 2021.

 ---------------------------------------------------------------------
 #N Geom=AllCheck Guess=TCheck SCRF=Check GenChk RwB97XD/def2TZVP Freq
 ---------------------------------------------------------------------

 Structure from the checkpoint file:  "/beegfs/scratch/user/q/tla25/Gau-31526.chk"
 ------------------------
 2_iteration/TS-204-2.out
 ------------------------
 Charge =  0 Multiplicity = 1

                         Standard orientation:
 ---------------------------------------------------------------------
 Center     Atomic      Atomic             Coordinates (Angstroms)
 Number     Number       Type             X           Y           Z
 ---------------------------------------------------------------------
      1          6           0        0.588477    0.280263   -0.101383
      2          6           0        0.220689    1.606011   -0.536683
      3          8           0        0.840088    2.351390   -1.280675
      4          6           0       -0.337919   -0.594988    0.489888
      5          6           0        0.506240    0.543543    2.975748
      6          1           0        0.185765    1.173409    3.804816
      7          1           0        1.262707   -0.152505    3.329070
      8          1           0        0.946816    1.171477    2.197230
      9          7           0       -0.611401   -0.189520    2.394681
     10          1           0       -0.795046   -1.061804    2.873916
     11          1           0       -1.458135    0.361471    2.428050
     12          1           0        0.104813   -1.564449    0.687461
     13          6           0       -1.755889   -0.815568    0.039815
     14          6           0       -1.953090   -1.952647   -0.746378
     15          6           0       -3.203077   -2.274161   -1.249908
     16          6           0       -4.295958   -1.471808   -0.957451
     17          6           0       -4.119611   -0.351436   -0.160560
     18          6           0       -2.863743   -0.024511    0.330310
     19          1           0       -1.108398   -2.593248   -0.972486
     20          1           0       -3.322685   -3.158063   -1.863621
     21          1           0       -5.276956   -1.721200   -1.341336
     22          1           0       -4.964644    0.280456    0.082475
     23          1           0       -2.760078    0.867137    0.929443
     24          6           0        1.991755   -0.174340   -0.238243
     25          6           0        2.817367    0.240045   -1.294320
     26          6           0        4.119442   -0.219537   -1.421141
     27          6           0        4.652856   -1.114421   -0.505135
     28          6           0        3.854076   -1.541174    0.545414
     29          6           0        2.554966   -1.077240    0.676372
     30          1           0        2.425154    0.930183   -2.024992
     31          1           0        4.720553    0.122742   -2.255495
     32          1           0        5.669501   -1.472226   -0.607388
     33          1           0        4.245421   -2.235176    1.279722
     34          1           0        1.976916   -1.425288    1.522381
     35          8           0       -0.935711    2.026475    0.032763
     36          6           0       -1.448032    3.276376   -0.402977
     37          1           0       -1.595472    3.285708   -1.483240
     38          1           0       -2.404149    3.397164    0.101488
     39          1           0       -0.778579    4.091503   -0.127183
 ---------------------------------------------------------------------

 SCF Done:  E(RwB97XD) =  -864.448063019     A.U. after    1 cycles

 The electronic state is 1-A.
 Alpha  occ. eigenvalues --  -19.28091 -19.21261 -14.47865 -10.39583 -10.34082
 Alpha  occ. eigenvalues --  -10.32620 -10.31290 -10.30777 -10.29800 -10.29207
 Alpha  occ. eigenvalues --  -10.29169 -10.29093 -10.29068 -10.28988 -10.28260
 Alpha  occ. eigenvalues --  -10.28103 -10.27879 -10.27716 -10.27269 -10.26858
 Alpha  occ. eigenvalues --   -1.19602  -1.09874  -1.03339  -0.97189  -0.95852
 Alpha  occ. eigenvalues --   -0.91004  -0.86482  -0.85296  -0.84074  -0.83360
 Alpha  occ. eigenvalues --   -0.80195  -0.78541  -0.74318  -0.70678  -0.70073
 Alpha  occ. eigenvalues --   -0.68664  -0.67792  -0.63887  -0.63333  -0.61533
 Alpha  occ. eigenvalues --   -0.60146  -0.57508  -0.56977  -0.56742  -0.56083
 Alpha  occ. eigenvalues --   -0.55175  -0.54780  -0.53129  -0.52992  -0.52334
 Alpha  occ. eigenvalues --   -0.51198  -0.50887  -0.50013  -0.49478  -0.48305
 Alpha  occ. eigenvalues --   -0.47652  -0.47276  -0.46140  -0.45658  -0.44083
 Alpha  occ. eigenvalues --   -0.43434  -0.43222  -0.41923  -0.41660  -0.41203
 Alpha  occ. eigenvalues --   -0.38185  -0.35209  -0.34633  -0.33759  -0.33332
 Alpha  occ. eigenvalues --   -0.32834  -0.25981
 Alpha virt. eigenvalues --    0.03232   0.05215   0.06196   0.06596   0.07119
 Alpha virt. eigenvalues --    0.10279   0.12418   0.13261   0.13769   0.14278
 Alpha virt. eigenvalues --    0.15097   0.15730   0.16478   0.16523   0.17208

 Mulliken charges:
               1
     1  C   -0.214315
     2  C    0.419235
     3  O   -0.497674
     4  C   -0.057001
     5  C   -0.293298
     6  H    0.156803
     7  H    0.153575
     8  H    0.144702
     9  N   -0.312188
    10  H    0.282029
    11  H    0.270319
    12  H    0.184081
    13  C    0.252418
    14  C   -0.275637
    15  C   -0.137728
    16  C   -0.155023
    17  C   -0.151850
    18  C   -0.278179
    19  H    0.142818
    20  H    0.142952
    21  H    0.143928
    22  H    0.141715
    23  H    0.172525
    24  C    0.205527
    25  C   -0.263895
    26  C   -0.138224
    27  C   -0.171461
    28  C   -0.197271
    29  C   -0.256669
    30  H    0.141050
    31  H    0.132989
    32  H    0.135765
    33  H    0.134355
    34  H    0.151724
    35  O   -0.306445
    36  C   -0.197961
    37  H    0.130263
    38  H    0.135994
    39  H    0.130054
 Sum of Mulliken charges =  -0.00000

 Dipole moment (field-independent basis, Debye):
    X=             -5.9565    Y=             -2.8523    Z=              7.8392  Tot=             10.2503
 Quadrupole moment (field-independent basis, Debye-Ang):
   XX=           -113.9512   YY=           -116.7381   ZZ=           -104.9352
   XY=             -8.6998   XZ=              1.2648   YZ=              3.9896

  Exact polarizability: 375.387 -17.258 274.503 -18.977 -10.742 270.056
 Approx polarizability: 277.964 -12.320 229.158 -14.436  -9.544 227.221

 ******    1 imaginary frequencies (negative Signs) ******

                      1                      2                      3
                      A                      A                      A
 Frequencies --   -329.9147                 3.6634                26.3526
 Red. masses --      5.8652                 2.8066                 3.7363
 Frc consts  --      0.3761                 0.0000                 0.0015
 IR Inten    --    760.3662                 4.0089                 3.2679

                      4                      5                      6
                      A                      A                      A
 Frequencies --     44.6749                52.6709                64.6878
 Red. masses --      4.3016                 3.4019                 3.8359
 Frc consts  --      0.0051                 0.0056                 0.0095
 IR Inten    --      2.9822                 2.9797                 1.8223

                      7                      8                      9
                      A                      A                      A
 Frequencies --     75.7412                94.4858               112.5653
 Red. masses --      2.9427                 3.6645                 2.1136
 Frc consts  --      0.0099                 0.0193                 0.0158
 IR Inten    --      7.0558                 5.9900                 5.1474

                     10                     11                     12
                      A                      A                      A
 Frequencies --    122.1020               146.0226               150.7796
 Red. masses --      3.7850                 1.6407                 1.4683
 Frc consts  --      0.0332                 0.0206                 0.0197
 IR Inten    --      4.7105                 3.8052                 1.9676

                     13                     14                     15
                      A                      A                      A
 Frequencies --    174.4114               211.2715               225.1618
 Red. masses --      2.4952                 3.1666                 4.1530
 Frc consts  --      0.0447                 0.0833                 0.1241
 IR Inten    --      2.3806                 2.2374                 5.5874

                     16                     17                     18
                      A                      A                      A
 Frequencies --    254.6476               286.7866               304.0829
 Red. masses --      4.6230                 3.9846                 5.4648
 Frc consts  --      0.1766                 0.1931                 0.2977
 IR Inten    --      7.1840                21.5389                13.1635

                     19                     20                     21
                      A                      A                      A
 Frequencies --    320.0027               369.6267               412.2185
 Red. masses --      4.3445                 4.9502                 4.9851
 Frc consts  --      0.2621                 0.3985                 0.4991
 IR Inten    --     13.5263                40.0495                33.9312

                     22                     23                     24
                      A                      A                      A
 Frequencies --    424.5276               426.0584               448.8451
 Red. masses --      3.0420                 2.9925                 4.1409
 Frc consts  --      0.3230                 0.3201                 0.4915
 IR Inten    --      0.8162                 4.5050                39.3575

                     25                     26                     27
                      A                      A                      A
 Frequencies --    516.9459               548.8819               593.3900
 Red. masses --      2.3820                 2.6639                 2.8587
 Frc consts  --      0.3750                 0.4728                 0.5931
 IR Inten    --     55.2813                17.2620                49.3195

                     28                     29                     30
                      A                      A                      A
 Frequencies --    614.8380               636.3752               638.1877
 Red. masses --      3.7596                 6.2608                 6.3514
 Frc consts  --      0.8374                 1.4939                 1.5241
 IR Inten    --     34.6386                 4.3993                 1.9548

                     31                     32                     33
                      A                      A                      A
 Frequencies --    669.1261               718.8621               726.1801
 Red. masses --      6.0918                 2.8554                 1.5787
 Frc consts  --      1.6070                 0.8694                 0.4905
 IR Inten    --     23.8428                17.9295               108.7544

                     34                     35                     36
                      A                      A                      A
 Frequencies --    727.3291               777.0565               785.1321
 Red. masses --      1.8998                 2.7792                 2.2745
 Frc consts  --      0.5921                 0.9887                 0.8261
 IR Inten    --     72.3695                13.0927                31.0395

                     37                     38                     39
                      A                      A                      A
 Frequencies --    818.1423               844.3667               860.9070
 Red. masses --      4.6733                 4.3754                 4.4533
 Frc consts  --      1.8430                 1.8379                 1.9447
 IR Inten    --    101.1441                 2.9434                 4.5344

                     40                     41                     42
                      A                      A                      A
 Frequencies --    871.5659               873.6989               932.5924
 Red. masses --      1.2771                 1.2481                 2.0882
 Frc consts  --      0.5716                 0.5613                 1.0701
 IR Inten    --      0.4862                 0.9567                27.0453

                     43                     44                     45
                      A                      A                      A
 Frequencies --    944.1644               963.9242              1007.9268
 Red. masses --      1.8938                 1.8035                 1.3478
 Frc consts  --      0.9947                 0.9873                 0.8067
 IR Inten    --      8.2345                 2.4510                 4.2036

                     46                     47                     48
                      A                      A                      A
 Frequencies --   1009.0169              1010.0903              1015.7195
 Red. masses --      1.1455                 1.2851                 1.2781
 Frc consts  --      0.6871                 0.7725                 0.7769
 IR Inten    --     19.3219                23.2030                 3.0684

                     49                     50                     51
                      A                      A                      A
 Frequencies --   1019.2886              1025.4056              1027.1252
 Red. masses --      5.7671                 3.9976                 1.3712
 Frc consts  --      3.5302                 2.4765                 0.8523
 IR Inten    --      8.2235                10.2694                32.5862

                     52                     53                     54
                      A                      A                      A
 Frequencies --   1030.3699              1063.3005              1067.6473
 Red. masses --      1.3165                 2.6842                 2.2378
 Frc consts  --      0.8235                 1.7880                 1.5029
 IR Inten    --     92.0769                18.3104                31.5141

                     55                     56                     57
                      A                      A                      A
 Frequencies --   1081.3683              1097.2508              1115.4246
 Red. masses --      2.9790                 3.7248                 1.6236
 Frc consts  --      2.0524                 2.6422                 1.1902
 IR Inten    --     20.5564                65.4618                 1.4848

                     58                     59                     60
                      A                      A                      A
 Frequencies --   1121.1004              1154.8546              1180.7812
 Red. masses --      1.5927                 1.2277                 1.2863
 Frc consts  --      1.1794                 0.9647                 1.0567
 IR Inten    --     26.5674                73.3083                 1.6405

                     61                     62                     63
                      A                      A                      A
 Frequencies --   1181.7263              1184.8934              1194.0925
 Red. masses --      1.1165                 1.1370                 1.8209
 Frc consts  --      0.9187                 0.9405                 1.5297
 IR Inten    --      5.3324                 6.2233               136.1980

                     64                     65                     66
                      A                      A                      A
 Frequencies --   1199.3843              1216.7184              1220.1559
 Red. masses --      1.7432                 1.3237                 1.2674
 Frc consts  --      1.4774                 1.1546                 1.1117
 IR Inten    --     28.2714                56.5634                47.5542

                     67                     68                     69
                      A                      A                      A
 Frequencies --   1223.2824              1230.9398              1286.2123
 Red. masses --      1.6214                 2.5990                 2.4472
 Frc consts  --      1.4296                 2.3203                 2.3853
 IR Inten    --    114.5215               251.5494               116.3421

                     70                     71                     72
                      A                      A                      A
 Frequencies --   1309.6705              1335.4559              1340.7952
 Red. masses --      4.2370                 1.3881                 3.7629
 Frc consts  --      4.2818                 1.4586                 3.9856
 IR Inten    --    121.0942                 7.3497               104.9525

                     73                     74                     75
                      A                      A                      A
 Frequencies --   1362.1139              1369.0069              1389.0623
 Red. masses --      1.8210                 1.4153                 2.1034
 Frc consts  --      1.9906                 1.5629                 2.3912
 IR Inten    --     69.6447                58.9303               198.8327

                     76                     77                     78
                      A                      A                      A
 Frequencies --   1449.9631              1470.2652              1479.5811
 Red. masses --      1.2232                 1.8334                 1.0644
 Frc consts  --      1.5152                 2.3351                 1.3728
 IR Inten    --     33.9639               124.7736                18.4923

                     79                     80                     81
                      A                      A                      A
 Frequencies --   1480.8664              1490.5007              1493.4821
 Red. masses --      1.3337                 1.9319                 1.0643
 Frc consts  --      1.7232                 2.5287                 1.3987
 IR Inten    --     72.3714                 3.6454                40.5229

                     82                     83                     84
                      A                      A                      A
 Frequencies --   1496.7703              1500.3249              1510.0553
 Red. masses --      1.1141                 1.0471                 2.4029
 Frc consts  --      1.4706                 1.3887                 3.2283
 IR Inten    --      7.6761                14.3335                68.8293

                     85                     86                     87
                      A                      A                      A
 Frequencies --   1542.8715              1547.1615              1636.5043
 Red. masses --      2.2170                 2.4154                 5.2070
 Frc consts  --      3.1094                 3.4065                 8.2162
 IR Inten    --    186.6176                13.0732                 3.7923

                     88                     89                     90
                      A                      A                      A
 Frequencies --   1641.2912              1652.0704              1664.9807
 Red. masses --      1.1164                 5.2325                 5.8358
 Frc consts  --      1.7720                 8.4143                 9.5317
 IR Inten    --     67.3699                 4.4676               146.7930

                     91                     92                     93
                      A                      A                      A
 Frequencies --   1675.3927              1698.3424              3053.3593
 Red. masses --      5.9109                10.7203                 1.0390
 Frc consts  --      9.7755                18.2183                 5.7072
 IR Inten    --     19.8418              1013.1838                36.1050

                     94                     95                     96
                      A                      A                      A
 Frequencies --   3060.8004              3129.7084              3137.0451
 Red. masses --      1.0304                 1.0987                 1.1067
 Frc consts  --      5.6875                 6.3407                 6.4168
 IR Inten    --     68.0075                12.8677                39.4448

                     97                     98                     99
                      A                      A                      A
 Frequencies --   3164.4860              3170.9598              3177.5313
 Red. masses --      1.1055                 1.1043                 1.0871
 Frc consts  --      6.5227                 6.5424                 6.4668
 IR Inten    --     26.3960                21.3807                 5.2682

                    100                    101                    102
                      A                      A                      A
 Frequencies --   3186.1589              3188.5921              3193.2486
 Red. masses --      1.0859                 1.0877                 1.0896
 Frc consts  --      6.4947                 6.5157                 6.5463
 IR Inten    --      9.7060                 8.7109                18.2164

                    103                    104                    105
                      A                      A                      A
 Frequencies --   3198.8000              3208.5426              3210.5563
 Red. masses --      1.0878                 1.0929                 1.0928
 Frc consts  --      6.5582                 6.6288                 6.6364
 IR Inten    --      0.3499                28.4424                48.1805

                    106                    107                    108
                      A                      A                      A
 Frequencies --   3219.1181              3221.0411              3241.2225
 Red. masses --      1.0951                 1.0976                 1.0930
 Frc consts  --      6.6860                 6.7097                 6.7653
 IR Inten    --     21.8880                27.3475                10.6402

                    109                    110                    111
                      A                      A                      A
 Frequencies --   3252.8171              3551.0973              3632.4183
 Red. masses --      1.0915                 1.0512                 1.0953
 Frc consts  --      6.8046                 7.8102                 8.5144
 IR Inten    --      5.1302                50.9278                47.1984

 - Thermochemistry -
 -------------------
 Temperature   298.150 Kelvin.  Pressure   1.00000 Atm.
 Atom     1 has atomic number  6 and mass  12.00000

 Molecular mass:   269.14158 amu.
 Principal axes and moments of inertia in atomic units:
                           1         2         3
     Eigenvalues --  3522.672997899.005488675.72294
           X            0.99993  -0.01176   0.00272
           Y            0.01172   0.99981   0.01562
           Z           -0.00291  -0.01559   0.99987
 This molecule is an asymmetric top.
 Rotational symmetry number  1.
 Warning -- assumption of classical behavior for rotation
           may cause significant error
 Rotational temperatures (Kelvin)      0.02459     0.01097     0.00998
 Rotational constants (GHZ):           0.51232     0.22848     0.20802
    1 imaginary frequencies ignored.
 Zero-point vibrational energy     858387.4 (Joules/Mol)
                                  205.15950 (Kcal/Mol)
 Warning -- explicit consideration of  27 degrees of freedom as
           vibrations may cause significant error
 Vibrational temperatures:      5.27    37.92    64.28    75.78    93.07
          (Kelvin)            108.97   135.94   161.96   175.68   210.09
                              216.94   250.94   303.97   323.96   366.38
                              412.62   437.51   460.41   531.81   593.09
                              610.80   613.00   645.79   743.77   789.72
                              853.76   884.61   915.60   918.21   962.72
                             1034.28  1044.81  1046.46  1118.01  1129.63
                             1177.12  1214.86  1238.65  1253.99  1257.06
                             1341.79  1358.44  1386.87  1450.18  1451.75
                             1453.29  1461.39  1466.53  1475.33  1477.80
                             1482.47  1529.85  1536.11  1555.85  1578.70
                             1604.85  1613.01  1661.58  1698.88  1700.24
                             1704.80  1718.03  1725.65  1750.59  1755.53
                             1760.03  1771.05  1850.57  1884.32  1921.42
                             1929.11  1959.78  1969.70  1998.55  2086.17
                             2115.38  2128.79  2130.64  2144.50  2148.79
                             2153.52  2158.63  2172.63  2219.85  2226.02
                             2354.56  2361.45  2376.96  2395.54  2410.52
                             2443.54  4393.10  4403.81  4502.95  4513.51
                             4552.99  4562.30  4571.76  4584.17  4587.67
                             4594.37  4602.36  4616.38  4619.27  4631.59
                             4634.36  4663.40  4680.08  5109.24  5226.24

 Zero-point correction=                           0.326942 (Hartree/Particle)
 Thermal correction to Energy=                    0.345966
 Thermal correction to Enthalpy=                  0.346910
 Thermal correction to Gibbs Free Energy=         0.275559
 Sum of electronic and zero-point Energies=           -864.121121
 Sum of electronic and thermal Energies=              -864.102097
 Sum of electronic and thermal Enthalpies=            -864.101153
 Sum of electronic and thermal Free Energies=         -864.172504

                     E (Thermal)             CV                S
                      KCal/Mol        Cal/Mol-Kelvin    Cal/Mol-Kelvin
 Total                  217.097             70.605            150.171
 Electronic               0.000              0.000              0.000
 Translational            0.889              2.981             42.669
 Rotational               0.889              2.981             33.845
 Vibrational            215.319             64.644             73.657
 Vibration     1          0.593              1.987             10.006
 Vibration     2          0.593              1.985              6.087
 Vibration     3          0.595              1.980              5.040
 Vibration     4          0.596              1.977              4.714
 Vibration     5          0.597              1.971              4.309
 Vibration     6          0.599              1.965              3.998
 Vibration     7          0.603              1.953              3.565
 Vibration     8          0.607              1.939              3.224
 Vibration     9          0.610              1.931              3.067
 Vibration    10          0.617              1.907              2.723
 Vibration    11          0.618              1.902              2.662
 Vibration    12          0.627              1.874              2.387
 Vibration    13          0.643              1.824              2.033
 Vibration    14          0.650              1.803              1.917
 Vibration    15          0.665              1.755              1.698
 Vibration    16          0.684              1.698              1.493
 Vibration    17          0.695              1.666              1.394
 Vibration    18          0.706              1.635              1.310
 Vibration    19          0.742              1.535              1.081
 Vibration    20          0.776              1.444              0.919
 Vibration    21          0.787              1.417              0.877
 Vibration    22          0.788              1.414              0.872
 Vibration    23          0.808              1.363              0.799
 Vibration    24          0.872              1.212              0.617
 Vibration    25          0.904              1.142              0.546
 Vibration    26          0.951              1.046              0.461
 Vibration    27          0.974              1.000              0.425

 Optimization completed on the basis of negligible forces.
    -- Stationary point found.
 Normal termination of Gaussian 16 at Mon Mar 29 15:16:15 2021.
