 Gaussian 16, Revision A.03,
 Gaussian 16:  ES64L-G16RevA.03 25-Dec-2016

 ----------------------------------------------------------------------
 # wB97XD def2tzvp, opt=(ts, noeigen, calcfc, maxcycles=70, maxstep=5),
  freq=noraman, scrf=(iefpcm, solvent=water)
 ----------------------------------------------------------------------

 ------------------------
 2_iteration/TS-237-2.out
 ------------------------
 Symbolic Z-matrix:
 Charge =  0 Multiplicity = 1

 SCF Done:  E(RwB97XD) =  -1073.14179821     A.U. after   15 cycles
 Optimization completed.
    -- Stationary point found.
 Normal termination of Gaussian 16 at Thu Feb 11 04:20:04 2021.

 ---------------------------------------------------------------------
 #N Geom=AllCheck Guess=TCheck SCRF=Check GenChk RwB97XD/def2TZVP Freq
 ---------------------------------------------------------------------

 Structure from the checkpoint file:  "/beegfs/scratch/user/q/tla25/Gau-1363.chk"
 ------------------------
 2_iteration/TS-237-2.out
 ------------------------
 Charge =  0 Multiplicity = 1

                         Standard orientation:
 ---------------------------------------------------------------------
 Center     Atomic      Atomic             Coordinates (Angstroms)
 Number     Number       Type             X           Y           Z
 ---------------------------------------------------------------------
      1          6           0       -0.985560    0.251358   -0.634080
      2          6           0       -1.524889   -0.769302    0.228980
      3          8           0       -0.911249   -1.133192    1.251670
      4          6           0        0.241700    0.875989   -0.401710
      5          6           0       -0.984561    2.539168    1.528280
      6          1           0       -1.858751    2.037348    1.113490
      7          1           0       -1.173161    2.762138    2.579040
      8          1           0       -0.819851    3.468168    0.985360
      9          7           0        0.168870    1.667269    1.359370
     10          1           0        0.055180    0.797589    1.874370
     11          1           0        1.035599    2.110929    1.635720
     12          1           0        0.361839    1.799159   -0.960590
     13          6           0        1.549140    0.156469   -0.267300
     14          6           0        1.659601   -1.224961   -0.388710
     15          6           0        2.898061   -1.843530   -0.316310
     16          6           0        4.049471   -1.091100   -0.132460
     17          6           0        3.954790    0.289410   -0.034050
     18          6           0        2.715170    0.904310   -0.106780
     19          1           0        0.770541   -1.818141   -0.545960
     20          1           0        2.963762   -2.920280   -0.410090
     21          1           0        5.015691   -1.576509   -0.078440
     22          1           0        4.846730    0.890101    0.090990
     23          1           0        2.656499    1.985640   -0.049970
     24         17           0       -2.116990    1.102178   -1.707170
     25          7           0       -2.729499   -1.312423   -0.071250
     26          6           0       -3.371939   -2.272933    0.792030
     27          1           0       -3.208629   -0.999953   -0.895290
     28          1           0       -4.344009   -2.521033    0.371080
     29          1           0       -2.785298   -3.189933    0.878230
     30          1           0       -3.518809   -1.869893    1.796450
 ---------------------------------------------------------------------

 SCF Done:  E(RwB97XD) =  -1073.14179821     A.U. after    1 cycles

 The electronic state is 1-A.
 Alpha  occ. eigenvalues -- -101.68562 -19.19951 -14.47552 -14.44401 -10.37585
 Alpha  occ. eigenvalues --  -10.34446 -10.31336 -10.30633 -10.30492 -10.30101
 Alpha  occ. eigenvalues --  -10.29348 -10.29161 -10.29103 -10.29023 -10.28960
 Alpha  occ. eigenvalues --   -9.57090  -7.31696  -7.30913  -7.30860  -1.12542
 Alpha  occ. eigenvalues --   -1.03220  -1.01233  -0.97219  -0.95270  -0.88528
 Alpha  occ. eigenvalues --   -0.85310  -0.82379  -0.80413  -0.78347  -0.72932
 Alpha  occ. eigenvalues --   -0.70494  -0.68533  -0.65902  -0.62814  -0.62042
 Alpha  occ. eigenvalues --   -0.58018  -0.56643  -0.56045  -0.54948  -0.54095
 Alpha  occ. eigenvalues --   -0.53705  -0.52888  -0.51315  -0.50719  -0.49799
 Alpha  occ. eigenvalues --   -0.47823  -0.47745  -0.47303  -0.46660  -0.46501
 Alpha  occ. eigenvalues --   -0.43884  -0.43111  -0.42333  -0.41244  -0.39694
 Alpha  occ. eigenvalues --   -0.34647  -0.33736  -0.33271  -0.32683  -0.26219
 Alpha virt. eigenvalues --    0.02177   0.05287   0.08240   0.10426   0.12098
 Alpha virt. eigenvalues --    0.12690   0.13687   0.14722   0.15297   0.15826
 Alpha virt. eigenvalues --    0.16680   0.16908   0.17590   0.18003   0.19160

 Mulliken charges:
               1
     1  C   -0.229304
     2  C    0.352070
     3  O   -0.579954
     4  C    0.081609
     5  C   -0.283583
     6  H    0.151759
     7  H    0.149359
     8  H    0.150370
     9  N   -0.330537
    10  H    0.276521
    11  H    0.274449
    12  H    0.164497
    13  C    0.131571
    14  C   -0.203420
    15  C   -0.125828
    16  C   -0.154666
    17  C   -0.131797
    18  C   -0.303571
    19  H    0.159657
    20  H    0.142207
    21  H    0.144794
    22  H    0.144104
    23  H    0.159616
    24  Cl  -0.200783
    25  N   -0.331653
    26  C   -0.244741
    27  H    0.247204
    28  H    0.140069
    29  H    0.125415
    30  H    0.124566
 Sum of Mulliken charges =  -0.00000

 Dipole moment (field-independent basis, Debye):
    X=              1.4028    Y=              3.9337    Z=              2.1955  Tot=              4.7183
 Quadrupole moment (field-independent basis, Debye-Ang):
   XX=            -82.0765   YY=            -83.5950   ZZ=           -101.1009
   XY=              6.8020   XZ=              0.3387   YZ=             11.0946

  Exact polarizability: 274.289  10.981 236.471  17.509   5.245 176.124
 Approx polarizability: 207.220   6.758 193.973  15.855   2.143 154.023

 ******    1 imaginary frequencies (negative Signs) ******

                      1                      2                      3
                      A                      A                      A
 Frequencies --   -385.3861                39.3823                48.0774
 Red. masses --      5.6999                 3.7600                 2.9883
 Frc consts  --      0.4988                 0.0034                 0.0041
 IR Inten    --    754.8001                 3.0129                 9.9116

                      4                      5                      6
                      A                      A                      A
 Frequencies --     56.4642                74.9150                81.6570
 Red. masses --      1.4870                 3.2998                 5.2566
 Frc consts  --      0.0028                 0.0109                 0.0207
 IR Inten    --      0.5903                 5.5149                 4.0711

                      7                      8                      9
                      A                      A                      A
 Frequencies --     98.4390               124.5654               141.2604
 Red. masses --      2.6361                 2.2414                 3.1286
 Frc consts  --      0.0151                 0.0205                 0.0368
 IR Inten    --     12.0481                 1.5157                46.2419

                     10                     11                     12
                      A                      A                      A
 Frequencies --    151.9477               191.0067               212.6123
 Red. masses --      5.0820                 2.0899                 1.7570
 Frc consts  --      0.0691                 0.0449                 0.0468
 IR Inten    --     29.4928                 2.9002                14.3071

                     13                     14                     15
                      A                      A                      A
 Frequencies --    229.8525               269.8079               280.5166
 Red. masses --      5.8751                 3.5757                 4.6193
 Frc consts  --      0.1829                 0.1534                 0.2142
 IR Inten    --      2.5220                 4.3235                 9.8280

                     16                     17                     18
                      A                      A                      A
 Frequencies --    308.1796               336.8978               385.3431
 Red. masses --      4.9818                 4.7385                 1.3348
 Frc consts  --      0.2788                 0.3169                 0.1168
 IR Inten    --     28.9716                42.1763                39.5923

                     19                     20                     21
                      A                      A                      A
 Frequencies --    422.5941               426.3431               468.4484
 Red. masses --      3.4071                 2.9611                 5.7558
 Frc consts  --      0.3585                 0.3171                 0.7442
 IR Inten    --     50.4277                 2.2448                40.4606

                     22                     23                     24
                      A                      A                      A
 Frequencies --    533.7983               596.5410               625.5440
 Red. masses --      2.9718                 3.7019                 5.8237
 Frc consts  --      0.4989                 0.7762                 1.3427
 IR Inten    --     93.6680                30.7784                22.3381

                     25                     26                     27
                      A                      A                      A
 Frequencies --    639.4805               701.2364               728.0579
 Red. masses --      5.6625                 1.7227                 1.7547
 Frc consts  --      1.3643                 0.4991                 0.5480
 IR Inten    --      1.2683                90.5973                66.9366

                     28                     29                     30
                      A                      A                      A
 Frequencies --    778.4415               786.0717               829.7971
 Red. masses --      3.6860                 3.0092                 3.7079
 Frc consts  --      1.3160                 1.0955                 1.5042
 IR Inten    --     65.8330                14.7699                45.9106

                     31                     32                     33
                      A                      A                      A
 Frequencies --    852.9277               880.1134               965.5576
 Red. masses --      4.1642                 1.2425                 1.4264
 Frc consts  --      1.7849                 0.5670                 0.7835
 IR Inten    --      8.9880                 0.6595                 7.6151

                     34                     35                     36
                      A                      A                      A
 Frequencies --    993.7248               998.2188              1016.8188
 Red. masses --      2.4167                 1.2064                 1.3330
 Frc consts  --      1.4061                 0.7083                 0.8120
 IR Inten    --     15.6690                94.9058                 6.6017

                     37                     38                     39
                      A                      A                      A
 Frequencies --   1027.4236              1030.0706              1055.6377
 Red. masses --      5.0202                 1.3630                 1.3022
 Frc consts  --      3.1223                 0.8521                 0.8550
 IR Inten    --      0.4425                 2.0182                45.4272

                     40                     41                     42
                      A                      A                      A
 Frequencies --   1065.5577              1088.9608              1106.4964
 Red. masses --      2.1324                 4.1183                 1.7330
 Frc consts  --      1.4265                 2.8773                 1.2501
 IR Inten    --      9.5154                86.1814                21.0589

                     43                     44                     45
                      A                      A                      A
 Frequencies --   1121.6838              1128.4931              1157.3553
 Red. masses --      1.5003                 1.8746                 1.2861
 Frc consts  --      1.1122                 1.4066                 1.0149
 IR Inten    --     44.1195                18.6014                 0.1218

                     46                     47                     48
                      A                      A                      A
 Frequencies --   1184.5058              1186.9260              1209.5575
 Red. masses --      1.1388                 1.7102                 1.3903
 Frc consts  --      0.9414                 1.4195                 1.1985
 IR Inten    --      0.8072                37.3202                33.4727

                     49                     50                     51
                      A                      A                      A
 Frequencies --   1218.1837              1223.4202              1276.2371
 Red. masses --      1.1522                 2.8405                 1.7581
 Frc consts  --      1.0074                 2.5049                 1.6872
 IR Inten    --      7.1892                11.5614                90.8572

                     52                     53                     54
                      A                      A                      A
 Frequencies --   1326.2393              1352.0418              1360.3351
 Red. masses --      3.9051                 1.3105                 2.2258
 Frc consts  --      4.0470                 1.4115                 2.4267
 IR Inten    --    130.6607                 4.3407               287.4870

                     55                     56                     57
                      A                      A                      A
 Frequencies --   1371.5502              1447.3837              1458.1615
 Red. masses --      1.4871                 1.8669                 1.2353
 Frc consts  --      1.6482                 2.3043                 1.5476
 IR Inten    --    156.5919               161.5190                29.4278

                     58                     59                     60
                      A                      A                      A
 Frequencies --   1467.3892              1475.2701              1491.0257
 Red. masses --      1.5484                 1.0447                 1.0405
 Frc consts  --      1.9644                 1.3396                 1.3629
 IR Inten    --     46.3216                12.7586                16.1763

                     61                     62                     63
                      A                      A                      A
 Frequencies --   1503.7925              1507.1908              1508.2385
 Red. masses --      1.9555                 1.1167                 1.0966
 Frc consts  --      2.6054                 1.4947                 1.4698
 IR Inten    --    112.9770                 6.5918                19.6680

                     64                     65                     66
                      A                      A                      A
 Frequencies --   1547.9340              1567.0619              1618.4740
 Red. masses --      2.3503                 2.0921                 2.7540
 Frc consts  --      3.3180                 3.0270                 4.2504
 IR Inten    --     18.5028               836.4724               387.8571

                     67                     68                     69
                      A                      A                      A
 Frequencies --   1646.4588              1655.2473              1676.2883
 Red. masses --      1.4275                 5.4374                 5.7908
 Frc consts  --      2.2799                 8.7775                 9.5870
 IR Inten    --     19.9166                 5.1072                 0.8504

                     70                     71                     72
                      A                      A                      A
 Frequencies --   3046.5138              3064.1689              3101.2370
 Red. masses --      1.0360                 1.0335                 1.1045
 Frc consts  --      5.6654                 5.7171                 6.2589
 IR Inten    --     82.2596                48.4785                47.3139

                     73                     74                     75
                      A                      A                      A
 Frequencies --   3139.4949              3158.7788              3160.9529
 Red. masses --      1.1039                 1.1007                 1.1052
 Frc consts  --      6.4106                 6.4708                 6.5062
 IR Inten    --     14.2676                25.2501                20.8550

                     76                     77                     78
                      A                      A                      A
 Frequencies --   3166.2112              3185.2838              3197.6385
 Red. masses --      1.0887                 1.0883                 1.0876
 Frc consts  --      6.4307                 6.5058                 6.5520
 IR Inten    --      2.8291                11.9282                 0.7162

                     79                     80                     81
                      A                      A                      A
 Frequencies --   3208.2552              3220.2201              3242.7302
 Red. masses --      1.0926                 1.0977                 1.0925
 Frc consts  --      6.6261                 6.7066                 6.7688
 IR Inten    --     27.5627                25.9215                 7.8873

                     82                     83                     84
                      A                      A                      A
 Frequencies --   3488.1920              3601.9919              3689.4949
 Red. masses --      1.0557                 1.0920                 1.0777
 Frc consts  --      7.5681                 8.3473                 8.6432
 IR Inten    --     40.8263                78.4738                86.7357

 - Thermochemistry -
 -------------------
 Temperature   298.150 Kelvin.  Pressure   1.00000 Atm.
 Atom     1 has atomic number  6 and mass  12.00000

 Molecular mass:   226.08729 amu.
 Principal axes and moments of inertia in atomic units:
                           1         2         3
     Eigenvalues --  2357.067165147.273385932.40347
           X            0.99962   0.02230  -0.01594
           Y           -0.02128   0.99787   0.06173
           Z            0.01728  -0.06137   0.99797
 This molecule is an asymmetric top.
 Rotational symmetry number  1.
 Warning -- assumption of classical behavior for rotation
           may cause significant error
 Rotational temperatures (Kelvin)      0.03675     0.01683     0.01460
 Rotational constants (GHZ):           0.76567     0.35062     0.30422
    1 imaginary frequencies ignored.
 Zero-point vibrational energy     652003.0 (Joules/Mol)
                                  155.83247 (Kcal/Mol)
 Warning -- explicit consideration of  22 degrees of freedom as
           vibrations may cause significant error
 Vibrational temperatures:     56.66    69.17    81.24   107.79   117.49
          (Kelvin)            141.63   179.22   203.24   218.62   274.82
                              305.90   330.71   388.19   403.60   443.40
                              484.72   554.42   608.02   613.41   673.99
                              768.02   858.29   900.02   920.07  1008.92
                             1047.51  1120.00  1130.98  1193.89  1227.17
                             1266.29  1389.22  1429.75  1436.21  1462.98
                             1478.23  1482.04  1518.83  1533.10  1566.77
                             1592.00  1613.85  1623.65  1665.18  1704.24
                             1707.72  1740.28  1752.69  1760.23  1836.22
                             1908.16  1945.29  1957.22  1973.35  2082.46
                             2097.97  2111.25  2122.58  2145.25  2163.62
                             2168.51  2170.02  2227.13  2254.65  2328.62
                             2368.89  2381.53  2411.81  4383.25  4408.66
                             4461.99  4517.03  4544.78  4547.91  4555.47
                             4582.91  4600.69  4615.96  4633.18  4665.57
                             5018.73  5182.46  5308.36

 Zero-point correction=                           0.248335 (Hartree/Particle)
 Thermal correction to Energy=                    0.264236
 Thermal correction to Enthalpy=                  0.265180
 Thermal correction to Gibbs Free Energy=         0.203631
 Sum of electronic and zero-point Energies=          -1072.893463
 Sum of electronic and thermal Energies=             -1072.877562
 Sum of electronic and thermal Enthalpies=           -1072.876618
 Sum of electronic and thermal Free Energies=        -1072.938167

                     E (Thermal)             CV                S
                      KCal/Mol        Cal/Mol-Kelvin    Cal/Mol-Kelvin
 Total                  165.811             56.931            129.541
 Electronic               0.000              0.000              0.000
 Translational            0.889              2.981             42.150
 Rotational               0.889              2.981             32.643
 Vibrational            164.033             50.969             54.749
 Vibration     1          0.594              1.981              5.290
 Vibration     2          0.595              1.978              4.895
 Vibration     3          0.596              1.975              4.577
 Vibration     4          0.599              1.966              4.020
 Vibration     5          0.600              1.962              3.851
 Vibration     6          0.604              1.950              3.485
 Vibration     7          0.610              1.928              3.028
 Vibration     8          0.615              1.912              2.787
 Vibration     9          0.619              1.901              2.648
 Vibration    10          0.634              1.852              2.218
 Vibration    11          0.644              1.822              2.021
 Vibration    12          0.652              1.795              1.880
 Vibration    13          0.674              1.729              1.597
 Vibration    14          0.680              1.710              1.531
 Vibration    15          0.698              1.658              1.372
 Vibration    16          0.718              1.602              1.227
 Vibration    17          0.754              1.501              1.018
 Vibration    18          0.785              1.421              0.883
 Vibration    19          0.788              1.413              0.871
 Vibration    20          0.826              1.320              0.742
 Vibration    21          0.889              1.175              0.579
 Vibration    22          0.954              1.039              0.456

 Optimization completed.
    -- Stationary point found.
 Normal termination of Gaussian 16 at Thu Feb 11 05:17:08 2021.
