 Gaussian 16, Revision A.03,
 Gaussian 16:  ES64L-G16RevA.03 25-Dec-2016

 ----------------------------------------------------------------------
 # wB97XD def2tzvp, opt=(ts, noeigen, calcfc, maxcycles=70, maxstep=5),
  freq=noraman, scrf=(iefpcm, solvent=water)
 ----------------------------------------------------------------------

 -----------------------
 2_iteration/TS-26-2.out
 -----------------------
 Symbolic Z-matrix:
 Charge =  0 Multiplicity = 1

 SCF Done:  E(RwB97XD) =  -3362.81683467     A.U. after   15 cycles
 Optimization completed.
    -- Stationary point found.
 Normal termination of Gaussian 16 at Tue Mar 30 11:02:02 2021.

 ---------------------------------------------------------------------
 #N Geom=AllCheck Guess=TCheck SCRF=Check GenChk RwB97XD/def2TZVP Freq
 ---------------------------------------------------------------------

 Structure from the checkpoint file:  "/beegfs/scratch/user/q/tla25/Gau-62408.chk"
 -----------------------
 2_iteration/TS-26-2.out
 -----------------------
 Charge =  0 Multiplicity = 1

                         Standard orientation:
 ---------------------------------------------------------------------
 Center     Atomic      Atomic             Coordinates (Angstroms)
 Number     Number       Type             X           Y           Z
 ---------------------------------------------------------------------
      1          6           0       -0.493530   -1.103869   -0.344590
      2          6           0        0.014058   -2.220189   -1.069490
      3          8           0       -0.699883   -3.186598   -1.377510
      4          6           0        0.117371    0.044430    0.244460
      5          6           0       -0.103731   -1.552389    2.581250
      6          1           0       -1.019171   -1.759848    3.128990
      7          1           0       -0.052982   -2.224059    1.720620
      8          1           0        0.751219   -1.724780    3.229400
      9          7           0       -0.103699   -0.168549    2.095020
     10          1           0       -1.001518    0.271032    2.259010
     11          1           0        0.601252    0.385740    2.564770
     12          6           0       -0.569287    1.391641    0.061400
     13          6           0       -0.376885    2.450601    0.945670
     14          6           0       -0.930544    3.696832    0.697450
     15          6           0       -1.668423    3.915193   -0.455650
     16          6           0       -1.838345    2.878303   -1.360180
     17          6           0       -1.292476    1.630712   -1.103280
     18          1           0        0.230815    2.333800    1.833160
     19          1           0       -0.772123    4.501022    1.404340
     20          1           0       -2.097212    4.889263   -0.653000
     21          1           0       -2.395924    3.038704   -2.274110
     22          1           0       -1.415797    0.831813   -1.821430
     23          6           0        1.620812    0.193648    0.108080
     24          6           0        2.138693    1.114238   -0.800410
     25          6           0        3.506533    1.239096   -0.981670
     26          6           0        4.383692    0.462205   -0.239950
     27          6           0        3.879161   -0.444295    0.679050
     28          6           0        2.510371   -0.580173    0.845420
     29          1           0        1.469434    1.730109   -1.385470
     30          1           0        3.886064    1.951855   -1.702460
     31          1           0        5.452652    0.565073   -0.375080
     32          1           0        4.550890   -1.057316    1.265940
     33          1           0        2.147270   -1.322112    1.541160
     34         35           0       -2.385990   -1.254276    0.037080
     35          6           0        1.450018   -2.267591   -1.571250
     36          1           0        1.459147   -2.943921   -2.424180
     37          1           0        1.851490   -1.303162   -1.869460
     38          1           0        2.104178   -2.681272   -0.802930
 ---------------------------------------------------------------------

 SCF Done:  E(RwB97XD) =  -3362.81683467     A.U. after    1 cycles

 The electronic state is 1-A.
 Alpha  occ. eigenvalues -- -483.11390 -62.66206 -56.45304 -56.44985 -56.44973
 Alpha  occ. eigenvalues --  -19.19652 -14.50509 -10.37849 -10.35454 -10.32214
 Alpha  occ. eigenvalues --  -10.31526 -10.31168 -10.30535 -10.29949 -10.29870
 Alpha  occ. eigenvalues --  -10.29755 -10.29652 -10.29598 -10.29558 -10.29554
 Alpha  occ. eigenvalues --  -10.29493 -10.29465 -10.29388 -10.26907  -8.80301
 Alpha  occ. eigenvalues --   -6.62381  -6.61366  -6.61328  -2.72781  -2.72491
 Alpha  occ. eigenvalues --   -2.72461  -2.71639  -2.71638  -1.10635  -1.05922
 Alpha  occ. eigenvalues --   -0.98737  -0.97119  -0.92912  -0.88255  -0.86310
 Alpha  occ. eigenvalues --   -0.85745  -0.85552  -0.83194  -0.80664  -0.79610
 Alpha  occ. eigenvalues --   -0.73907  -0.71723  -0.71126  -0.70489  -0.67863
 Alpha  occ. eigenvalues --   -0.65515  -0.62530  -0.62020  -0.58747  -0.58284
 Alpha  occ. eigenvalues --   -0.56766  -0.56124  -0.55813  -0.54466  -0.53468
 Alpha  occ. eigenvalues --   -0.53230  -0.52511  -0.51788  -0.51266  -0.51107
 Alpha  occ. eigenvalues --   -0.50271  -0.49087  -0.48544  -0.47224  -0.46382
 Alpha  occ. eigenvalues --   -0.45343  -0.44937  -0.44317  -0.43353  -0.43180
 Alpha  occ. eigenvalues --   -0.42123  -0.41885  -0.37973  -0.36733  -0.35134
 Alpha  occ. eigenvalues --   -0.34346  -0.33875  -0.33120  -0.31538  -0.27466
 Alpha virt. eigenvalues --    0.01525   0.03609   0.03961   0.05320   0.07688
 Alpha virt. eigenvalues --    0.09236   0.10317   0.12115   0.12687   0.13354
 Alpha virt. eigenvalues --    0.13870   0.14543   0.14856   0.15860   0.16494

 Mulliken charges:
               1
     1  C   -0.289295
     2  C    0.210978
     3  O   -0.516457
     4  C    0.490945
     5  C   -0.327297
     6  H    0.171356
     7  H    0.166687
     8  H    0.171814
     9  N   -0.320183
    10  H    0.299585
    11  H    0.302520
    12  C    0.091300
    13  C   -0.250872
    14  C   -0.147966
    15  C   -0.131076
    16  C   -0.143009
    17  C   -0.229674
    18  H    0.141076
    19  H    0.145775
    20  H    0.147154
    21  H    0.144765
    22  H    0.169362
    23  C    0.015479
    24  C   -0.215827
    25  C   -0.132869
    26  C   -0.140187
    27  C   -0.130992
    28  C   -0.308404
    29  H    0.161205
    30  H    0.145089
    31  H    0.146988
    32  H    0.145663
    33  H    0.163180
    34  Br  -0.188746
    35  C   -0.361062
    36  H    0.128657
    37  H    0.134997
    38  H    0.139344
 Sum of Mulliken charges =  -0.00000

 Dipole moment (field-independent basis, Debye):
    X=              6.0174    Y=              8.2116    Z=              7.9664  Tot=             12.9268
 Quadrupole moment (field-independent basis, Debye-Ang):
   XX=           -126.2319   YY=           -144.1838   ZZ=           -114.6298
   XY=            -13.8550   XZ=             -1.1201   YZ=            -14.7658

  Exact polarizability: 338.324  -6.150 340.147  14.886   3.726 293.134
 Approx polarizability: 265.565  -2.893 271.055  14.296  -0.667 252.253

 ******    1 imaginary frequencies (negative Signs) ******

                      1                      2                      3
                      A                      A                      A
 Frequencies --   -290.6039                24.4196                59.4411
 Red. masses --      5.9521                 3.9089                 4.5231
 Frc consts  --      0.2962                 0.0014                 0.0094
 IR Inten    --    590.5653                 1.2082                 2.0260

                      4                      5                      6
                      A                      A                      A
 Frequencies --     65.5325                71.1016                79.8649
 Red. masses --      5.2271                 8.6531                 4.7405
 Frc consts  --      0.0132                 0.0258                 0.0178
 IR Inten    --      1.4462                 4.3525                 1.8209

                      7                      8                      9
                      A                      A                      A
 Frequencies --    102.6745               130.8548               142.9305
 Red. masses --      3.5366                 4.2902                 2.7926
 Frc consts  --      0.0220                 0.0433                 0.0336
 IR Inten    --      3.0442                 0.1848                 2.3897

                     10                     11                     12
                      A                      A                      A
 Frequencies --    153.0908               176.1387               204.6731
 Red. masses --      2.5988                 2.5695                 1.5332
 Frc consts  --      0.0359                 0.0470                 0.0378
 IR Inten    --      8.5299                 8.5661                 1.1483

                     13                     14                     15
                      A                      A                      A
 Frequencies --    211.5701               217.8281               229.2653
 Red. masses --      5.2600                 2.4103                 1.3260
 Frc consts  --      0.1387                 0.0674                 0.0411
 IR Inten    --      8.1185                 3.4943                 1.0087

                     16                     17                     18
                      A                      A                      A
 Frequencies --    263.5127               281.9313               300.8000
 Red. masses --      4.4540                 3.9682                 5.1158
 Frc consts  --      0.1822                 0.1858                 0.2727
 IR Inten    --      5.4321                 1.9941                 0.2523

                     19                     20                     21
                      A                      A                      A
 Frequencies --    320.0875               346.0617               380.3939
 Red. masses --      3.7932                 3.9257                 6.4313
 Frc consts  --      0.2290                 0.2770                 0.5483
 IR Inten    --     15.9887                19.8105                27.0825

                     22                     23                     24
                      A                      A                      A
 Frequencies --    396.9068               421.6777               426.1086
 Red. masses --      4.5684                 2.8708                 2.9035
 Frc consts  --      0.4240                 0.3008                 0.3106
 IR Inten    --     12.5295                 0.5321                 0.4869

                     25                     26                     27
                      A                      A                      A
 Frequencies --    491.1469               527.5828               571.6175
 Red. masses --      3.8343                 3.8501                 3.7070
 Frc consts  --      0.5450                 0.6314                 0.7136
 IR Inten    --     11.6287                 2.3424               113.8160

                     28                     29                     30
                      A                      A                      A
 Frequencies --    607.5338               622.0952               638.0277
 Red. masses --      2.3956                 3.4911                 5.7583
 Frc consts  --      0.5210                 0.7960                 1.3811
 IR Inten    --      9.8505                18.8472                 5.0886

                     31                     32                     33
                      A                      A                      A
 Frequencies --    638.1879               660.2701               674.6779
 Red. masses --      5.8809                 5.6231                 3.2274
 Frc consts  --      1.4112                 1.4443                 0.8656
 IR Inten    --      4.4754               120.8133                61.8159

                     34                     35                     36
                      A                      A                      A
 Frequencies --    686.7707               727.8724               728.8774
 Red. masses --      2.7452                 1.5506                 1.5647
 Frc consts  --      0.7629                 0.4840                 0.4898
 IR Inten    --     93.6050               105.2423                98.9211

                     37                     38                     39
                      A                      A                      A
 Frequencies --    777.7686               794.3924               824.5525
 Red. masses --      3.1462                 2.1878                 3.3599
 Frc consts  --      1.1213                 0.8134                 1.3459
 IR Inten    --     74.8759                20.9721                24.8060

                     40                     41                     42
                      A                      A                      A
 Frequencies --    877.3614               878.8355               904.5931
 Red. masses --      1.2476                 1.2526                 5.0072
 Frc consts  --      0.5658                 0.5700                 2.4141
 IR Inten    --      0.3179                 0.6099                38.5276

                     43                     44                     45
                      A                      A                      A
 Frequencies --    944.8569               967.4787               973.5868
 Red. masses --      2.2892                 1.4951                 1.8368
 Frc consts  --      1.2041                 0.8245                 1.0258
 IR Inten    --      8.7669                 0.6103                11.0029

                     46                     47                     48
                      A                      A                      A
 Frequencies --   1016.8213              1017.2333              1026.4990
 Red. masses --      1.3828                 1.4003                 4.2433
 Frc consts  --      0.8424                 0.8537                 2.6343
 IR Inten    --      0.3514                 1.0358                12.3008

                     49                     50                     51
                      A                      A                      A
 Frequencies --   1028.6918              1031.0206              1035.3667
 Red. masses --      5.4356                 1.8988                 1.3453
 Frc consts  --      3.3889                 1.1892                 0.8497
 IR Inten    --      1.8621                28.2825                 1.6383

                     52                     53                     54
                      A                      A                      A
 Frequencies --   1036.7327              1044.6874              1062.2056
 Red. masses --      1.3228                 1.7406                 2.3901
 Frc consts  --      0.8377                 1.1192                 1.5889
 IR Inten    --      0.2022                12.9242                90.0891

                     55                     56                     57
                      A                      A                      A
 Frequencies --   1063.8991              1070.5522              1074.9732
 Red. masses --      2.5542                 1.8710                 1.5196
 Frc consts  --      1.7033                 1.2634                 1.0346
 IR Inten    --      6.3698                12.3372                 4.5484

                     58                     59                     60
                      A                      A                      A
 Frequencies --   1108.9154              1124.2912              1129.4630
 Red. masses --      1.1821                 1.5401                 1.5884
 Frc consts  --      0.8565                 1.1470                 1.1938
 IR Inten    --     46.8277                22.6171                 4.6806

                     61                     62                     63
                      A                      A                      A
 Frequencies --   1173.0515              1185.3890              1188.7552
 Red. masses --      3.2124                 1.1286                 1.1294
 Frc consts  --      2.6044                 0.9343                 0.9403
 IR Inten    --     23.4312                 0.1843                 0.4392

                     64                     65                     66
                      A                      A                      A
 Frequencies --   1211.5365              1227.7324              1227.8890
 Red. masses --      1.2842                 1.1738                 1.1930
 Frc consts  --      1.1106                 1.0425                 1.0597
 IR Inten    --     23.4226                14.3797                14.6533

                     67                     68                     69
                      A                      A                      A
 Frequencies --   1255.5072              1296.0677              1322.5352
 Red. masses --      3.9960                 4.0419                 3.6463
 Frc consts  --      3.7112                 4.0003                 3.7576
 IR Inten    --     20.4907                33.4715                19.8350

                     70                     71                     72
                      A                      A                      A
 Frequencies --   1331.1279              1335.5139              1366.6932
 Red. masses --      5.6170                 1.4811                 1.3939
 Frc consts  --      5.8640                 1.5565                 1.5340
 IR Inten    --      5.0831                 6.4226                 6.7718

                     73                     74                     75
                      A                      A                      A
 Frequencies --   1372.6230              1384.2059              1406.8543
 Red. masses --      1.4073                 1.4358                 3.5659
 Frc consts  --      1.5623                 1.6209                 4.1584
 IR Inten    --     29.0278               177.2618               889.2724

                     76                     77                     78
                      A                      A                      A
 Frequencies --   1452.9676              1471.9074              1483.2498
 Red. masses --      1.1555                 1.1037                 1.0791
 Frc consts  --      1.4373                 1.4088                 1.3987
 IR Inten    --      7.2543                26.6964                31.9356

                     79                     80                     81
                      A                      A                      A
 Frequencies --   1492.1146              1493.5992              1496.4354
 Red. masses --      2.1393                 2.0430                 1.1404
 Frc consts  --      2.8063                 2.6852                 1.5046
 IR Inten    --     27.6775                38.0174                27.5908

                     82                     83                     84
                      A                      A                      A
 Frequencies --   1507.2061              1543.6260              1548.1097
 Red. masses --      1.0373                 2.2189                 2.1929
 Frc consts  --      1.3884                 3.1151                 3.0965
 IR Inten    --     17.8735                11.2074                20.5982

                     85                     86                     87
                      A                      A                      A
 Frequencies --   1605.8760              1642.3804              1653.4459
 Red. masses --      8.6317                 1.1767                 5.2388
 Frc consts  --     13.1151                 1.8702                 8.4384
 IR Inten    --    897.4168                83.9029                 0.7461

                     88                     89                     90
                      A                      A                      A
 Frequencies --   1655.5580              1674.3578              1677.1472
 Red. masses --      4.3705                 5.7062                 5.7984
 Frc consts  --      7.0578                 9.4253                 9.6095
 IR Inten    --      2.0476                 1.0413                 1.1951

                     91                     92                     93
                      A                      A                      A
 Frequencies --   3056.8292              3076.2535              3145.4136
 Red. masses --      1.0423                 1.0371                 1.0928
 Frc consts  --      5.7382                 5.7822                 6.3703
 IR Inten    --     30.7260                19.3451                 4.5827

                     94                     95                     96
                      A                      A                      A
 Frequencies --   3149.9438              3179.6626              3184.0470
 Red. masses --      1.1010                 1.1017                 1.1078
 Frc consts  --      6.4365                 6.5628                 6.6169
 IR Inten    --     21.8837                13.4230                11.9158

                     97                     98                     99
                      A                      A                      A
 Frequencies --   3199.2851              3200.8577              3206.8763
 Red. masses --      1.0860                 1.0864                 1.0887
 Frc consts  --      6.5489                 6.5581                 6.5968
 IR Inten    --      1.2605                 0.0093                 3.8799

                    100                    101                    102
                      A                      A                      A
 Frequencies --   3210.0044              3215.6677              3220.0580
 Red. masses --      1.0901                 1.0924                 1.0938
 Frc consts  --      6.6177                 6.6555                 6.6821
 IR Inten    --      9.4811                28.7846                19.3579

                    103                    104                    105
                      A                      A                      A
 Frequencies --   3224.1211              3228.0470              3229.4649
 Red. masses --      1.0950                 1.0966                 1.0970
 Frc consts  --      6.7063                 6.7326                 6.7406
 IR Inten    --     23.1847                16.7501                 6.6381

                    106                    107                    108
                      A                      A                      A
 Frequencies --   3245.3558              3534.6436              3615.4367
 Red. masses --      1.0920                 1.0519                 1.0960
 Frc consts  --      6.7765                 7.7430                 8.4405
 IR Inten    --      5.9009                62.4211                61.9781

 - Thermochemistry -
 -------------------
 Temperature   298.150 Kelvin.  Pressure   1.00000 Atm.
 Atom     1 has atomic number  6 and mass  12.00000

 Molecular mass:   331.05718 amu.
 Principal axes and moments of inertia in atomic units:
                           1         2         3
     Eigenvalues --  5471.369216420.131999207.28071
           X            0.97944  -0.20173  -0.00098
           Y            0.20169   0.97935  -0.01397
           Z            0.00378   0.01349   0.99990
 This molecule is an asymmetric top.
 Rotational symmetry number  1.
 Warning -- assumption of classical behavior for rotation
           may cause significant error
 Rotational temperatures (Kelvin)      0.01583     0.01349     0.00941
 Rotational constants (GHZ):           0.32985     0.28111     0.19601
    1 imaginary frequencies ignored.
 Zero-point vibrational energy     820648.6 (Joules/Mol)
                                  196.13973 (Kcal/Mol)
 Warning -- explicit consideration of  27 degrees of freedom as
           vibrations may cause significant error
 Vibrational temperatures:     35.13    85.52    94.29   102.30   114.91
          (Kelvin)            147.73   188.27   205.65   220.26   253.42
                              294.48   304.40   313.41   329.86   379.14
                              405.64   432.78   460.53   497.91   547.30
                              571.06   606.70   613.08   706.65   759.07
                              822.43   874.11   895.06   917.98   918.21
                              949.98   970.71   988.11  1047.25  1048.69
                             1119.04  1142.95  1186.35  1262.33  1264.45
                             1301.51  1359.44  1391.99  1400.77  1462.98
                             1463.57  1476.90  1480.06  1483.41  1489.66
                             1491.63  1503.07  1528.28  1530.71  1540.29
                             1546.65  1595.48  1617.60  1625.05  1687.76
                             1705.51  1710.35  1743.13  1766.43  1766.66
                             1806.39  1864.75  1902.83  1915.20  1921.51
                             1966.37  1974.90  1991.56  2024.15  2090.50
                             2117.75  2134.07  2146.82  2148.96  2153.04
                             2168.53  2220.93  2227.38  2310.50  2363.02
                             2378.94  2381.98  2409.03  2413.04  4398.10
                             4426.04  4525.55  4532.07  4574.83  4581.13
                             4603.06  4605.32  4613.98  4618.48  4626.63
                             4632.95  4638.79  4644.44  4646.48  4669.34
                             5085.56  5201.81

 Zero-point correction=                           0.312569 (Hartree/Particle)
 Thermal correction to Energy=                    0.331223
 Thermal correction to Enthalpy=                  0.332168
 Thermal correction to Gibbs Free Energy=         0.264964
 Sum of electronic and zero-point Energies=          -3362.504266
 Sum of electronic and thermal Energies=             -3362.485611
 Sum of electronic and thermal Enthalpies=           -3362.484667
 Sum of electronic and thermal Free Energies=        -3362.551870

                     E (Thermal)             CV                S
                      KCal/Mol        Cal/Mol-Kelvin    Cal/Mol-Kelvin
 Total                  207.846             71.359            141.441
 Electronic               0.000              0.000              0.000
 Translational            0.889              2.981             43.286
 Rotational               0.889              2.981             34.136
 Vibrational            206.068             65.397             64.019
 Vibration     1          0.593              1.985              6.238
 Vibration     2          0.597              1.974              4.476
 Vibration     3          0.597              1.971              4.283
 Vibration     4          0.598              1.968              4.123
 Vibration     5          0.600              1.963              3.894
 Vibration     6          0.605              1.947              3.403
 Vibration     7          0.612              1.922              2.933
 Vibration     8          0.616              1.910              2.764
 Vibration     9          0.619              1.899              2.633
 Vibration    10          0.628              1.872              2.369
 Vibration    11          0.640              1.833              2.091
 Vibration    12          0.643              1.823              2.030
 Vibration    13          0.646              1.814              1.977
 Vibration    14          0.652              1.796              1.885
 Vibration    15          0.670              1.740              1.638
 Vibration    16          0.681              1.707              1.522
 Vibration    17          0.693              1.672              1.412
 Vibration    18          0.706              1.635              1.310
 Vibration    19          0.724              1.583              1.184
 Vibration    20          0.750              1.512              1.038
 Vibration    21          0.763              1.477              0.974
 Vibration    22          0.784              1.423              0.886
 Vibration    23          0.788              1.413              0.871
 Vibration    24          0.847              1.270              0.681
 Vibration    25          0.883              1.189              0.593
 Vibration    26          0.928              1.093              0.501
 Vibration    27          0.966              1.016              0.437

 Optimization completed.
    -- Stationary point found.
 Normal termination of Gaussian 16 at Tue Mar 30 13:54:57 2021.
