 Gaussian 16, Revision A.03,
 Gaussian 16:  ES64L-G16RevA.03 25-Dec-2016

 ----------------------------------------------------------------------
 # wB97XD def2tzvp, opt=(ts, noeigen, calcfc, maxcycles=70, maxstep=1),
  freq=noraman, scrf=(iefpcm, solvent=water)
 ----------------------------------------------------------------------

 ------------------------
 0_iteration/TS-257-0.out
 ------------------------
 Symbolic Z-matrix:
 Charge =  0 Multiplicity = 1

 SCF Done:  E(RwB97XD) =  -327.104216612     A.U. after   14 cycles
 SCF Done:  E(RwB97XD) =  -327.104144881     A.U. after   10 cycles
 SCF Done:  E(RwB97XD) =  -327.104077099     A.U. after   10 cycles
 SCF Done:  E(RwB97XD) =  -327.104013307     A.U. after   10 cycles
 SCF Done:  E(RwB97XD) =  -327.103953574     A.U. after   10 cycles
 SCF Done:  E(RwB97XD) =  -327.103897977     A.U. after   10 cycles
 SCF Done:  E(RwB97XD) =  -327.103846625     A.U. after   10 cycles
 SCF Done:  E(RwB97XD) =  -327.103799680     A.U. after   10 cycles
 SCF Done:  E(RwB97XD) =  -327.103757371     A.U. after   10 cycles
 SCF Done:  E(RwB97XD) =  -327.103719996     A.U. after   10 cycles
 SCF Done:  E(RwB97XD) =  -327.104360751     A.U. after   10 cycles
 SCF Done:  E(RwB97XD) =  -327.104397684     A.U. after   10 cycles
 SCF Done:  E(RwB97XD) =  -327.104429582     A.U. after   10 cycles
 SCF Done:  E(RwB97XD) =  -327.104457259     A.U. after   10 cycles
 SCF Done:  E(RwB97XD) =  -327.104477523     A.U. after   10 cycles
 SCF Done:  E(RwB97XD) =  -327.104490656     A.U. after   10 cycles
 SCF Done:  E(RwB97XD) =  -327.104497556     A.U. after   10 cycles
 SCF Done:  E(RwB97XD) =  -327.104498990     A.U. after   10 cycles
 SCF Done:  E(RwB97XD) =  -327.104498973     A.U. after    8 cycles
 Optimization completed.
    -- Stationary point found.
 Normal termination of Gaussian 16 at Tue Feb  9 09:04:49 2021.

 ---------------------------------------------------------------------
 #N Geom=AllCheck Guess=TCheck SCRF=Check GenChk RwB97XD/def2TZVP Freq
 ---------------------------------------------------------------------

 Structure from the checkpoint file:  "/beegfs/scratch/user/q/tla25/Gau-76722.chk"
 ------------------------
 0_iteration/TS-257-0.out
 ------------------------
 Charge =  0 Multiplicity = 1

                         Standard orientation:
 ---------------------------------------------------------------------
 Center     Atomic      Atomic             Coordinates (Angstroms)
 Number     Number       Type             X           Y           Z
 ---------------------------------------------------------------------
      1          6           0        0.815549    0.264410    0.307313
      2          6           0        1.633199   -0.872151    0.126123
      3          8           0        2.774792   -0.899127   -0.352890
      4          6           0       -0.458572    0.070408    0.826890
      5          6           0       -3.179444   -0.248470   -0.041386
      6          1           0       -3.919333   -0.355460   -0.835800
      7          1           0       -3.228676   -1.121266    0.608315
      8          1           0       -3.418352    0.636864    0.546485
      9          7           0       -1.821596   -0.119997   -0.561137
     10          1           0       -1.536053   -0.933940   -1.091602
     11          1           0       -1.718926    0.691502   -1.158033
     12          1           0       -0.984389    0.906868    1.274795
     13          1           0       -0.685461   -0.889156    1.279896
     14          6           0        1.290372    1.617394   -0.144691
     15          1           0        0.660582    2.409919    0.264589
     16          1           0        2.318554    1.803950    0.174153
     17          1           0        1.276992    1.718602   -1.235442
     18          1           0        1.181267   -1.824435    0.478227
 ---------------------------------------------------------------------

 SCF Done:  E(RwB97XD) =  -327.104498973     A.U. after    1 cycles

 The electronic state is 1-A.
 Alpha  occ. eigenvalues --  -19.19909 -14.47370 -10.33210 -10.32405 -10.31591
 Alpha  occ. eigenvalues --  -10.26601 -10.25322  -1.09830  -1.02856  -0.89348
 Alpha  occ. eigenvalues --   -0.79040  -0.77956  -0.72517  -0.62742  -0.60815
 Alpha  occ. eigenvalues --   -0.56988  -0.54530  -0.53212  -0.52496  -0.49459
 Alpha  occ. eigenvalues --   -0.47790  -0.47248  -0.45057  -0.44212  -0.43977
 Alpha  occ. eigenvalues --   -0.41989  -0.31584  -0.26748
 Alpha virt. eigenvalues --    0.05480   0.09950   0.13487   0.13806   0.14990
 Alpha virt. eigenvalues --    0.16334   0.16809   0.18543   0.19292   0.20304
 Alpha virt. eigenvalues --    0.20692   0.21508   0.22423   0.23399   0.25412

 Mulliken charges:
               1
     1  C   -0.056160
     2  C    0.087589
     3  O   -0.535507
     4  C   -0.222172
     5  C   -0.268203
     6  H    0.148593
     7  H    0.147566
     8  H    0.147681
     9  N   -0.342590
    10  H    0.273815
    11  H    0.279778
    12  H    0.161129
    13  H    0.162270
    14  C   -0.381551
    15  H    0.120458
    16  H    0.115889
    17  H    0.115811
    18  H    0.045604
 Sum of Mulliken charges =  -0.00000

 Dipole moment (field-independent basis, Debye):
    X=            -11.7374    Y=              1.2408    Z=             -0.3516  Tot=             11.8081
 Quadrupole moment (field-independent basis, Debye-Ang):
   XX=            -54.2646   YY=            -43.4009   ZZ=            -42.9802
   XY=              6.1034   XZ=              4.8511   YZ=             -1.0712

  Exact polarizability: 162.056  -8.191  95.723  -5.540  -0.665  82.897
 Approx polarizability: 116.578  -6.071  77.149  -5.451   0.444  71.135

 ******    1 imaginary frequencies (negative Signs) ******

                      1                      2                      3
                      A                      A                      A
 Frequencies --   -359.8949                38.5066                83.6247
 Red. masses --      6.2321                 2.3296                 1.0971
 Frc consts  --      0.4756                 0.0020                 0.0045
 IR Inten    --   1133.0724                 5.6217                 2.0319

                      4                      5                      6
                      A                      A                      A
 Frequencies --     95.1360               122.7988               184.5050
 Red. masses --      3.0635                 1.8320                 1.3643
 Frc consts  --      0.0163                 0.0163                 0.0274
 IR Inten    --      6.7279                 2.9310                 1.4379

                      7                      8                      9
                      A                      A                      A
 Frequencies --    205.9747               259.2550               348.5985
 Red. masses --      2.8474                 3.6546                 2.6784
 Frc consts  --      0.0712                 0.1447                 0.1918
 IR Inten    --     11.7080                15.2066                46.8557

                     10                     11                     12
                      A                      A                      A
 Frequencies --    409.5225               477.1355               613.6921
 Red. masses --      2.0272                 3.3623                 1.1176
 Frc consts  --      0.2003                 0.4510                 0.2480
 IR Inten    --      4.0540               197.4388                18.6328

                     13                     14                     15
                      A                      A                      A
 Frequencies --    670.4835               849.7615               929.0886
 Red. masses --      4.3428                 3.4852                 1.3708
 Frc consts  --      1.1503                 1.4827                 0.6972
 IR Inten    --     25.5733                11.1468                 0.1147

                     16                     17                     18
                      A                      A                      A
 Frequencies --   1005.1317              1012.0202              1018.5080
 Red. masses --      1.1307                 1.1325                 1.4333
 Frc consts  --      0.6731                 0.6834                 0.8760
 IR Inten    --     21.9911                79.8070                 9.8251

                     19                     20                     21
                      A                      A                      A
 Frequencies --   1028.8953              1058.1517              1076.0181
 Red. masses --      1.5800                 1.6151                 3.7950
 Frc consts  --      0.9855                 1.0655                 2.5888
 IR Inten    --    245.2490                 4.6817               141.9044

                     22                     23                     24
                      A                      A                      A
 Frequencies --   1131.0637              1183.6177              1212.6443
 Red. masses --      1.1163                 1.1272                 1.4373
 Frc consts  --      0.8414                 0.9304                 1.2452
 IR Inten    --      7.5642               232.3460                20.3577

                     25                     26                     27
                      A                      A                      A
 Frequencies --   1342.3099              1351.7974              1393.1252
 Red. masses --      1.3338                 1.5348                 1.4464
 Frc consts  --      1.4160                 1.6524                 1.6539
 IR Inten    --      2.1491               338.4709                15.5799

                     28                     29                     30
                      A                      A                      A
 Frequencies --   1425.8378              1446.9242              1463.7761
 Red. masses --      2.2962                 1.4421                 1.1808
 Frc consts  --      2.7505                 1.7788                 1.4906
 IR Inten    --     19.8579                 2.0632                12.4260

                     31                     32                     33
                      A                      A                      A
 Frequencies --   1469.6572              1491.3566              1492.0029
 Red. masses --      1.0504                 1.0659                 1.0678
 Frc consts  --      1.3367                 1.3968                 1.4004
 IR Inten    --     12.0785                 4.5308                11.8393

                     34                     35                     36
                      A                      A                      A
 Frequencies --   1508.1343              1548.8617              1647.6289
 Red. masses --      1.0308                 2.1924                 1.3657
 Frc consts  --      1.3814                 3.0987                 2.1844
 IR Inten    --     16.8845               302.6710               493.1394

                     37                     38                     39
                      A                      A                      A
 Frequencies --   1652.3232              2874.5538              3022.4842
 Red. masses --      2.9350                 1.0803                 1.0425
 Frc consts  --      4.7211                 5.2595                 5.6110
 IR Inten    --    802.7641               209.5487                74.9458

                     40                     41                     42
                      A                      A                      A
 Frequencies --   3062.1925              3079.3287              3115.0905
 Red. masses --      1.0340                 1.0934                 1.1018
 Frc consts  --      5.7129                 6.1088                 6.2995
 IR Inten    --     64.4667                47.8693                36.5801

                     43                     44                     45
                      A                      A                      A
 Frequencies --   3132.6986              3138.4032              3156.9879
 Red. masses --      1.0619                 1.1010                 1.1056
 Frc consts  --      6.1400                 6.3891                 6.4921
 IR Inten    --     52.2377                17.8755                21.6200

                     46                     47                     48
                      A                      A                      A
 Frequencies --   3216.9188              3533.0415              3617.6469
 Red. masses --      1.1166                 1.0504                 1.0967
 Frc consts  --      6.8082                 7.7254                 8.4565
 IR Inten    --     14.5481                18.9463                37.7939

 - Thermochemistry -
 -------------------
 Temperature   298.150 Kelvin.  Pressure   1.00000 Atm.
 Atom     1 has atomic number  6 and mass  12.00000

 Molecular mass:   101.08406 amu.
 Principal axes and moments of inertia in atomic units:
                           1         2         3
     Eigenvalues --   359.032421540.358061719.23638
           X            0.99969   0.02494   0.00054
           Y           -0.02491   0.99904  -0.03611
           Z           -0.00144   0.03608   0.99935
 This molecule is an asymmetric top.
 Rotational symmetry number  1.
 Rotational temperatures (Kelvin)      0.24124     0.05623     0.05038
 Rotational constants (GHZ):           5.02668     1.17164     1.04973
    1 imaginary frequencies ignored.
 Zero-point vibrational energy     413891.3 (Joules/Mol)
                                   98.92239 (Kcal/Mol)
 Warning -- explicit consideration of  11 degrees of freedom as
           vibrations may cause significant error
 Vibrational temperatures:     55.40   120.32   136.88   176.68   265.46
          (Kelvin)            296.35   373.01   501.56   589.21   686.49
                              882.97   964.68  1222.62  1336.75  1446.16
                             1456.07  1465.41  1480.35  1522.44  1548.15
                             1627.35  1702.96  1744.72  1931.28  1944.93
                             2004.40  2051.46  2081.80  2106.05  2114.51
                             2145.73  2146.66  2169.87  2228.47  2370.57
                             2377.32  4135.84  4348.68  4405.81  4430.47
                             4481.92  4507.25  4515.46  4542.20  4628.43
                             5083.26  5204.99

 Zero-point correction=                           0.157643 (Hartree/Particle)
 Thermal correction to Energy=                    0.166769
 Thermal correction to Enthalpy=                  0.167713
 Thermal correction to Gibbs Free Energy=         0.122784
 Sum of electronic and zero-point Energies=           -326.946856
 Sum of electronic and thermal Energies=              -326.937730
 Sum of electronic and thermal Enthalpies=            -326.936786
 Sum of electronic and thermal Free Energies=         -326.981715

                     E (Thermal)             CV                S
                      KCal/Mol        Cal/Mol-Kelvin    Cal/Mol-Kelvin
 Total                  104.649             30.299             94.562
 Electronic               0.000              0.000              0.000
 Translational            0.889              2.981             39.750
 Rotational               0.889              2.981             28.343
 Vibrational            102.872             24.338             26.468
 Vibration     1          0.594              1.981              5.334
 Vibration     2          0.601              1.960              3.804
 Vibration     3          0.603              1.953              3.552
 Vibration     4          0.610              1.930              3.056
 Vibration     5          0.631              1.861              2.282
 Vibration     6          0.640              1.831              2.079
 Vibration     7          0.668              1.747              1.667
 Vibration     8          0.726              1.578              1.173
 Vibration     9          0.774              1.450              0.928
 Vibration    10          0.834              1.301              0.718
 Vibration    11          0.973              1.003              0.427

 Optimization completed.
    -- Stationary point found.
 Normal termination of Gaussian 16 at Tue Feb  9 09:10:15 2021.
