 Gaussian 16, Revision A.03,
 Gaussian 16:  ES64L-G16RevA.03 25-Dec-2016

 ----------------------------------------------------------------------
 # wB97XD def2tzvp, opt=(ts, noeigen, calcfc, maxcycles=70, maxstep=8),
  freq=noraman, scrf=(iefpcm, solvent=water)
 ----------------------------------------------------------------------

 ------------------------
 1_iteration/TS-296-1.out
 ------------------------
 Symbolic Z-matrix:
 Charge =  0 Multiplicity = 1

 SCF Done:  E(RwB97XD) =  -558.163511799     A.U. after   14 cycles
 SCF Done:  E(RwB97XD) =  -558.163511795     A.U. after    6 cycles
 Optimization completed.
    -- Stationary point found.
 Normal termination of Gaussian 16 at Wed Feb 10 10:20:42 2021.

 ---------------------------------------------------------------------
 #N Geom=AllCheck Guess=TCheck SCRF=Check GenChk RwB97XD/def2TZVP Freq
 ---------------------------------------------------------------------

 Structure from the checkpoint file:  "/beegfs/scratch/user/q/tla25/Gau-77624.chk"
 ------------------------
 1_iteration/TS-296-1.out
 ------------------------
 Charge =  0 Multiplicity = 1

                         Standard orientation:
 ---------------------------------------------------------------------
 Center     Atomic      Atomic             Coordinates (Angstroms)
 Number     Number       Type             X           Y           Z
 ---------------------------------------------------------------------
      1          6           0        1.035701   -0.344058   -0.753468
      2          6           0        0.150571   -0.502952    0.345624
      3          8           0        0.488198   -0.833793    1.495183
      4          6           0        2.402828   -0.617017   -0.720538
      5          6           0        2.790792    2.192987   -0.270566
      6          1           0        3.095380    3.023620    0.367448
      7          1           0        3.126920    2.382016   -1.289030
      8          1           0        1.701443    2.124125   -0.272120
      9          7           0        3.327642    0.919932    0.182665
     10          1           0        4.329227    0.856770    0.050419
     11          1           0        3.125013    0.758971    1.161578
     12          1           0        2.914739   -0.440055   -1.661458
     13          6           0        3.027267   -1.712939    0.096710
     14          1           0        2.656559   -1.711496    1.117728
     15          1           0        2.759700   -2.670065   -0.357993
     16          1           0        4.114770   -1.639356    0.093390
     17          1           0        0.654689    0.156441   -1.633167
     18          6           0       -1.311789   -0.202684    0.105801
     19          6           0       -1.922221   -0.389330   -1.132373
     20          6           0       -3.273489   -0.124155   -1.301905
     21          6           0       -4.030589    0.344023   -0.237434
     22          6           0       -3.431443    0.534482    1.000773
     23          6           0       -2.084873    0.254173    1.170324
     24          1           0       -1.343685   -0.764010   -1.967250
     25          1           0       -3.736624   -0.286173   -2.267274
     26          1           0       -5.084028    0.556168   -0.370992
     27          1           0       -4.016459    0.900244    1.835554
     28          1           0       -1.613247    0.388439    2.135354
 ---------------------------------------------------------------------

 SCF Done:  E(RwB97XD) =  -558.163511795     A.U. after    1 cycles

 The electronic state is 1-A.
 Alpha  occ. eigenvalues --  -19.19938 -14.46670 -10.34699 -10.33159 -10.30906
 Alpha  occ. eigenvalues --  -10.29120 -10.29014 -10.28964 -10.28888 -10.28869
 Alpha  occ. eigenvalues --  -10.28689 -10.27240 -10.24376  -1.10477  -1.02291
 Alpha  occ. eigenvalues --   -0.96340  -0.89172  -0.86071  -0.84927  -0.80146
 Alpha  occ. eigenvalues --   -0.77544  -0.72823  -0.70292  -0.67834  -0.63015
 Alpha  occ. eigenvalues --   -0.61663  -0.58565  -0.56021  -0.55673  -0.54654
 Alpha  occ. eigenvalues --   -0.53952  -0.53296  -0.50850  -0.50641  -0.49939
 Alpha  occ. eigenvalues --   -0.48611  -0.47693  -0.47050  -0.45080  -0.44440
 Alpha  occ. eigenvalues --   -0.44255  -0.43330  -0.42142  -0.39310  -0.33714
 Alpha  occ. eigenvalues --   -0.33463  -0.31469  -0.27783
 Alpha virt. eigenvalues --    0.01927   0.05436   0.07959   0.10318   0.13375
 Alpha virt. eigenvalues --    0.13634   0.14518   0.15246   0.16324   0.17043
 Alpha virt. eigenvalues --    0.17478   0.18168   0.18747   0.19243   0.19984

 Mulliken charges:
               1
     1  C   -0.434048
     2  C    0.296258
     3  O   -0.543381
     4  C    0.017653
     5  C   -0.265014
     6  H    0.143853
     7  H    0.146379
     8  H    0.139987
     9  N   -0.381112
    10  H    0.278887
    11  H    0.274666
    12  H    0.142989
    13  C   -0.340711
    14  H    0.141355
    15  H    0.133387
    16  H    0.129510
    17  H    0.149878
    18  C    0.154506
    19  C   -0.246481
    20  C   -0.139920
    21  C   -0.145478
    22  C   -0.126968
    23  C   -0.238750
    24  H    0.149874
    25  H    0.141729
    26  H    0.144215
    27  H    0.141360
    28  H    0.135378
 Sum of Mulliken charges =  -0.00000

 Dipole moment (field-independent basis, Debye):
    X=              6.0818    Y=              3.9730    Z=             -2.8606  Tot=              7.8074
 Quadrupole moment (field-independent basis, Debye-Ang):
   XX=            -45.6024   YY=            -79.1567   ZZ=            -78.8802
   XY=              5.3920   XZ=             -0.3005   YZ=              5.0565

  Exact polarizability: 270.960  -2.849 152.689  -4.223   9.439 192.646
 Approx polarizability: 192.970  -4.183 126.635  -0.802   7.404 168.471

 ******    1 imaginary frequencies (negative Signs) ******

                      1                      2                      3
                      A                      A                      A
 Frequencies --   -344.3639                36.2231                39.4926
 Red. masses --      5.3825                 3.3363                 4.0751
 Frc consts  --      0.3761                 0.0026                 0.0037
 IR Inten    --    904.2998                 2.0147                 9.3760

                      4                      5                      6
                      A                      A                      A
 Frequencies --     59.0384                70.0168               122.8181
 Red. masses --      3.6641                 2.1288                 4.1362
 Frc consts  --      0.0075                 0.0061                 0.0368
 IR Inten    --      6.3933                26.7623                 9.2446

                      7                      8                      9
                      A                      A                      A
 Frequencies --    164.8575               168.3082               193.4827
 Red. masses --      1.2765                 2.7588                 1.2717
 Frc consts  --      0.0204                 0.0460                 0.0280
 IR Inten    --      2.5188                 0.4473                 8.3506

                     10                     11                     12
                      A                      A                      A
 Frequencies --    214.4680               242.8926               302.4223
 Red. masses --      2.6767                 2.8631                 4.2897
 Frc consts  --      0.0725                 0.0995                 0.2312
 IR Inten    --      2.1265                 1.4993                26.6380

                     13                     14                     15
                      A                      A                      A
 Frequencies --    347.0488               405.5917               422.0172
 Red. masses --      3.5563                 3.5458                 2.9220
 Frc consts  --      0.2524                 0.3437                 0.3066
 IR Inten    --     23.9329                 6.3617                 1.5329

                     16                     17                     18
                      A                      A                      A
 Frequencies --    439.2707               466.9611               525.5489
 Red. masses --      2.9164                 3.2056                 3.3821
 Frc consts  --      0.3316                 0.4118                 0.5504
 IR Inten    --     37.3784                 6.5211                 6.1916

                     19                     20                     21
                      A                      A                      A
 Frequencies --    623.3867               636.7378               704.3225
 Red. masses --      1.7019                 6.1179                 3.8220
 Frc consts  --      0.3897                 1.4614                 1.1171
 IR Inten    --     35.5929                 1.9414                 9.8730

                     22                     23                     24
                      A                      A                      A
 Frequencies --    720.9661               733.2273               763.2853
 Red. masses --      2.2521                 1.5693                 1.4545
 Frc consts  --      0.6897                 0.4971                 0.4993
 IR Inten    --     33.6833                84.5594               144.9711

                     25                     26                     27
                      A                      A                      A
 Frequencies --    833.2572               869.1240               881.7465
 Red. masses --      3.2004                 3.6195                 1.2504
 Frc consts  --      1.3092                 1.6109                 0.5728
 IR Inten    --     12.8505                36.8795                 1.0734

                     28                     29                     30
                      A                      A                      A
 Frequencies --    911.4986               967.3067               969.7156
 Red. masses --      2.3098                 1.2104                 1.3588
 Frc consts  --      1.1307                 0.6673                 0.7528
 IR Inten    --     26.3423               124.0756                28.8490

                     31                     32                     33
                      A                      A                      A
 Frequencies --    995.9801              1016.6555              1025.9074
 Red. masses --      1.1381                 1.3812                 6.0370
 Frc consts  --      0.6652                 0.8411                 3.7436
 IR Inten    --      1.6764                 1.9717                 0.8765

                     34                     35                     36
                      A                      A                      A
 Frequencies --   1030.0697              1034.4363              1058.0462
 Red. masses --      1.3151                 1.4290                 2.2288
 Frc consts  --      0.8221                 0.9009                 1.4701
 IR Inten    --      0.7617                 8.6318                20.0889

                     37                     38                     39
                      A                      A                      A
 Frequencies --   1087.2388              1092.0011              1105.6240
 Red. masses --      2.9789                 2.0909                 1.6468
 Frc consts  --      2.0747                 1.4690                 1.1860
 IR Inten    --     70.8766                34.4592                31.0949

                     40                     41                     42
                      A                      A                      A
 Frequencies --   1118.1483              1158.6238              1182.6077
 Red. masses --      1.6875                 1.3828                 1.1345
 Frc consts  --      1.2431                 1.0937                 0.9348
 IR Inten    --     47.3747                72.0221                 0.9819

                     43                     44                     45
                      A                      A                      A
 Frequencies --   1197.0587              1203.2940              1251.1695
 Red. masses --      1.4251                 1.1344                 2.0519
 Frc consts  --      1.2031                 0.9677                 1.8926
 IR Inten    --     12.5804                 5.8909                 3.2600

                     46                     47                     48
                      A                      A                      A
 Frequencies --   1266.2374              1329.6009              1346.3319
 Red. masses --      1.6877                 3.9293                 1.3312
 Frc consts  --      1.5943                 4.0926                 1.4217
 IR Inten    --    284.4887                 6.3108                 1.1933

                     49                     50                     51
                      A                      A                      A
 Frequencies --   1353.4399              1396.0097              1445.3469
 Red. masses --      1.5514                 1.2551                 1.3381
 Frc consts  --      1.6744                 1.4412                 1.6470
 IR Inten    --      4.1046                68.0964               177.9812

                     52                     53                     54
                      A                      A                      A
 Frequencies --   1457.2502              1473.2687              1488.7965
 Red. masses --      1.3237                 1.5198                 1.7074
 Frc consts  --      1.6562                 1.9435                 2.2298
 IR Inten    --     47.7809               208.4186                16.9644

                     55                     56                     57
                      A                      A                      A
 Frequencies --   1491.9080              1493.5147              1501.3066
 Red. masses --      1.0521                 1.1316                 1.0428
 Frc consts  --      1.3797                 1.4871                 1.3848
 IR Inten    --     26.1117                38.0545                19.6848

                     58                     59                     60
                      A                      A                      A
 Frequencies --   1518.3176              1540.4117              1625.8947
 Red. masses --      2.2816                 2.3576                 6.8914
 Frc consts  --      3.0990                 3.2961                10.7335
 IR Inten    --    790.7292                88.6375               369.6465

                     61                     62                     63
                      A                      A                      A
 Frequencies --   1646.2603              1660.3629              1672.2915
 Red. masses --      1.0999                 6.5072                 5.9635
 Frc consts  --      1.7563                10.5694                 9.8260
 IR Inten    --     43.6455               102.7110                12.0410

                     64                     65                     66
                      A                      A                      A
 Frequencies --   3054.8525              3060.4458              3125.7243
 Red. masses --      1.0334                 1.0404                 1.0987
 Frc consts  --      5.6821                 5.7412                 6.3245
 IR Inten    --     52.6750                28.1297                32.5408

                     67                     68                     69
                      A                      A                      A
 Frequencies --   3127.3815              3151.2244              3159.1809
 Red. masses --      1.1042                 1.1047                 1.0900
 Frc consts  --      6.3628                 6.4633                 6.4097
 IR Inten    --     21.9667                23.9170                23.1303

                     70                     71                     72
                      A                      A                      A
 Frequencies --   3182.4549              3191.8779              3199.1326
 Red. masses --      1.0993                 1.0857                 1.0886
 Frc consts  --      6.5597                 6.5171                 6.5643
 IR Inten    --     16.7513                 0.8509                 8.3543

                     73                     74                     75
                      A                      A                      A
 Frequencies --   3206.9278              3211.9307              3216.1829
 Red. masses --      1.0915                 1.0909                 1.0930
 Frc consts  --      6.6138                 6.6309                 6.6611
 IR Inten    --     14.0399                 9.8202                37.9883

                     76                     77                     78
                      A                      A                      A
 Frequencies --   3221.5393              3534.4017              3620.2879
 Red. masses --      1.0980                 1.0501                 1.0964
 Frc consts  --      6.7142                 7.7285                 8.4666
 IR Inten    --     18.7018                32.7491                41.3142

 - Thermochemistry -
 -------------------
 Temperature   298.150 Kelvin.  Pressure   1.00000 Atm.
 Atom     1 has atomic number  6 and mass  12.00000

 Molecular mass:   177.11536 amu.
 Principal axes and moments of inertia in atomic units:
                           1         2         3
     Eigenvalues --  1116.786894722.503814812.38556
           X            1.00000   0.00198  -0.00086
           Y           -0.00190   0.99651   0.08349
           Z            0.00102  -0.08349   0.99651
 This molecule is an asymmetric top.
 Rotational symmetry number  1.
 Warning -- assumption of classical behavior for rotation
           may cause significant error
 Rotational temperatures (Kelvin)      0.07756     0.01834     0.01800
 Rotational constants (GHZ):           1.61601     0.38216     0.37502
    1 imaginary frequencies ignored.
 Zero-point vibrational energy     630204.6 (Joules/Mol)
                                  150.62253 (Kcal/Mol)
 Warning -- explicit consideration of  17 degrees of freedom as
           vibrations may cause significant error
 Vibrational temperatures:     52.12    56.82    84.94   100.74   176.71
          (Kelvin)            237.19   242.16   278.38   308.57   349.47
                              435.12   499.33   583.56   607.19   632.01
                              671.85   756.15   896.91   916.12  1013.36
                             1037.31  1054.95  1098.20  1198.87  1250.48
                             1268.64  1311.44  1391.74  1395.20  1432.99
                             1462.74  1476.05  1482.04  1488.32  1522.29
                             1564.29  1571.15  1590.75  1608.77  1667.00
                             1701.51  1722.30  1731.27  1800.15  1821.83
                             1913.00  1937.07  1947.30  2008.55  2079.53
                             2096.66  2119.71  2142.05  2146.52  2148.83
                             2160.05  2184.52  2216.31  2339.30  2368.60
                             2388.89  2406.05  4395.25  4403.30  4497.22
                             4499.60  4533.91  4545.36  4578.84  4592.40
                             4602.84  4614.05  4621.25  4627.37  4635.08
                             5085.22  5208.79

 Zero-point correction=                           0.240032 (Hartree/Particle)
 Thermal correction to Energy=                    0.253332
 Thermal correction to Enthalpy=                  0.254276
 Thermal correction to Gibbs Free Energy=         0.198722
 Sum of electronic and zero-point Energies=           -557.923480
 Sum of electronic and thermal Energies=              -557.910180
 Sum of electronic and thermal Enthalpies=            -557.909235
 Sum of electronic and thermal Free Energies=         -557.964790

                     E (Thermal)             CV                S
                      KCal/Mol        Cal/Mol-Kelvin    Cal/Mol-Kelvin
 Total                  158.968             48.826            116.924
 Electronic               0.000              0.000              0.000
 Translational            0.889              2.981             41.422
 Rotational               0.889              2.981             31.607
 Vibrational            157.191             42.864             43.896
 Vibration     1          0.594              1.982              5.456
 Vibration     2          0.594              1.981              5.284
 Vibration     3          0.596              1.974              4.489
 Vibration     4          0.598              1.968              4.153
 Vibration     5          0.610              1.930              3.056
 Vibration     6          0.623              1.886              2.493
 Vibration     7          0.625              1.881              2.454
 Vibration     8          0.635              1.849              2.194
 Vibration     9          0.644              1.819              2.005
 Vibration    10          0.659              1.775              1.782
 Vibration    11          0.694              1.669              1.403
 Vibration    12          0.725              1.581              1.180
 Vibration    13          0.771              1.458              0.942
 Vibration    14          0.784              1.422              0.885
 Vibration    15          0.799              1.385              0.829
 Vibration    16          0.824              1.323              0.746
 Vibration    17          0.881              1.193              0.597

 Optimization completed.
    -- Stationary point found.
 Normal termination of Gaussian 16 at Wed Feb 10 10:57:27 2021.
