 Gaussian 16, Revision A.03,
 Gaussian 16:  ES64L-G16RevA.03 25-Dec-2016

 ----------------------------------------------------------------------
 # wB97XD def2tzvp, opt=(ts, noeigen, calcfc, maxcycles=70, maxstep=1),
  freq=noraman, scrf=(iefpcm, solvent=water)
 ----------------------------------------------------------------------

 ------------------------
 0_iteration/TS-276-0.out
 ------------------------
 Symbolic Z-matrix:
 Charge =  0 Multiplicity = 1

 SCF Done:  E(RwB97XD) =  -861.958074113     A.U. after   15 cycles
 SCF Done:  E(RwB97XD) =  -861.958034873     A.U. after   10 cycles
 SCF Done:  E(RwB97XD) =  -861.957998990     A.U. after   10 cycles
 SCF Done:  E(RwB97XD) =  -861.957966484     A.U. after   10 cycles
 SCF Done:  E(RwB97XD) =  -861.957937386     A.U. after   10 cycles
 SCF Done:  E(RwB97XD) =  -861.957911730     A.U. after   10 cycles
 SCF Done:  E(RwB97XD) =  -861.957889561     A.U. after   10 cycles
 SCF Done:  E(RwB97XD) =  -861.957870932     A.U. after   10 cycles
 SCF Done:  E(RwB97XD) =  -861.957855932     A.U. after   10 cycles
 SCF Done:  E(RwB97XD) =  -861.957844776     A.U. after   10 cycles
 SCF Done:  E(RwB97XD) =  -861.959089014     A.U. after   10 cycles
 SCF Done:  E(RwB97XD) =  -861.959122287     A.U. after   10 cycles
 SCF Done:  E(RwB97XD) =  -861.959148892     A.U. after    9 cycles
 SCF Done:  E(RwB97XD) =  -861.959171141     A.U. after    9 cycles
 SCF Done:  E(RwB97XD) =  -861.959187691     A.U. after   10 cycles
 SCF Done:  E(RwB97XD) =  -861.959197121     A.U. after   10 cycles
 SCF Done:  E(RwB97XD) =  -861.959199838     A.U. after    9 cycles
 SCF Done:  E(RwB97XD) =  -861.959200030     A.U. after    8 cycles
 SCF Done:  E(RwB97XD) =  -861.959200030     A.U. after    7 cycles
 Optimization completed.
    -- Stationary point found.
 Normal termination of Gaussian 16 at Wed Feb 10 06:33:16 2021.

 ---------------------------------------------------------------------
 #N Geom=AllCheck Guess=TCheck SCRF=Check GenChk RwB97XD/def2TZVP Freq
 ---------------------------------------------------------------------

 Structure from the checkpoint file:  "/beegfs/scratch/user/q/tla25/Gau-119520.chk"
 ------------------------
 0_iteration/TS-276-0.out
 ------------------------
 Charge =  0 Multiplicity = 1

                         Standard orientation:
 ---------------------------------------------------------------------
 Center     Atomic      Atomic             Coordinates (Angstroms)
 Number     Number       Type             X           Y           Z
 ---------------------------------------------------------------------
      1          6           0        0.022956    0.431569    0.425396
      2          6           0        1.054200   -0.546180    0.224894
      3          8           0        0.908729   -1.744533    0.426381
      4          6           0       -1.234642    0.064817    0.844451
      5          6           0       -3.759955   -0.825124   -0.207758
      6          1           0       -4.396547   -1.109486   -1.046776
      7          1           0       -3.683408   -1.667108    0.478957
      8          1           0       -4.220117    0.010984    0.317147
      9          7           0       -2.419752   -0.437598   -0.635748
     10          1           0       -1.935132   -1.192809   -1.104398
     11          1           0       -2.434623    0.360040   -1.259016
     12          1           0       -1.915058    0.825387    1.204402
     13          1           0       -1.321621   -0.901362    1.324168
     14         17           0        0.288969    2.097548   -0.073386
     15          8           0        2.227028   -0.037498   -0.197903
     16          6           0        3.280318   -0.971842   -0.399824
     17          1           0        4.133635   -0.387406   -0.734238
     18          1           0        3.524831   -1.491365    0.526831
     19          1           0        3.010506   -1.705198   -1.160057
 ---------------------------------------------------------------------

 SCF Done:  E(RwB97XD) =  -861.959200030     A.U. after    1 cycles

 The electronic state is 1-A.
 Alpha  occ. eigenvalues -- -101.68481 -19.28603 -19.21571 -14.47403 -10.40251
 Alpha  occ. eigenvalues --  -10.33024 -10.32786 -10.31621 -10.30820  -9.57009
 Alpha  occ. eigenvalues --   -7.31636  -7.30800  -7.30789  -1.20045  -1.10283
 Alpha  occ. eigenvalues --   -1.02908  -0.95979  -0.85171  -0.82572  -0.78416
 Alpha  occ. eigenvalues --   -0.72196  -0.64029  -0.62860  -0.59378  -0.57055
 Alpha  occ. eigenvalues --   -0.56673  -0.55635  -0.53025  -0.52508  -0.49928
 Alpha  occ. eigenvalues --   -0.48594  -0.47810  -0.47024  -0.43931  -0.43729
 Alpha  occ. eigenvalues --   -0.40736  -0.39813  -0.38273  -0.35322  -0.27282
 Alpha virt. eigenvalues --    0.05438   0.10459   0.11604   0.13496   0.14743
 Alpha virt. eigenvalues --    0.16161   0.16325   0.17157   0.17912   0.19065
 Alpha virt. eigenvalues --    0.19623   0.20936   0.21288   0.22260   0.23066

 Mulliken charges:
               1
     1  C   -0.145889
     2  C    0.413177
     3  O   -0.511231
     4  C   -0.187950
     5  C   -0.267578
     6  H    0.148385
     7  H    0.147976
     8  H    0.148361
     9  N   -0.362056
    10  H    0.279740
    11  H    0.278864
    12  H    0.172969
    13  H    0.165356
    14  Cl  -0.182904
    15  O   -0.303761
    16  C   -0.189725
    17  H    0.139413
    18  H    0.128695
    19  H    0.128159
 Sum of Mulliken charges =  -0.00000

 Dipole moment (field-independent basis, Debye):
    X=             -6.6533    Y=             -1.3147    Z=             -2.3778  Tot=              7.1867
 Quadrupole moment (field-independent basis, Debye-Ang):
   XX=            -37.1290   YY=            -69.8398   ZZ=            -58.7786
   XY=              1.0864   XZ=              1.1898   YZ=              2.6696

  Exact polarizability: 166.813   3.886 122.858   0.744  -2.831  93.831
 Approx polarizability: 118.110   3.625 106.166  -0.121  -3.452  83.040

 ******    1 imaginary frequencies (negative Signs) ******

                      1                      2                      3
                      A                      A                      A
 Frequencies --   -340.1562                30.0225                59.3354
 Red. masses --      6.2833                 2.6230                 4.0130
 Frc consts  --      0.4283                 0.0014                 0.0083
 IR Inten    --    989.7408                 0.1381                 7.8408

                      4                      5                      6
                      A                      A                      A
 Frequencies --     81.7532               120.1539               143.4008
 Red. masses --      2.4389                 3.4440                 2.6941
 Frc consts  --      0.0096                 0.0293                 0.0326
 IR Inten    --      9.4768                 6.6235                20.2536

                      7                      8                      9
                      A                      A                      A
 Frequencies --    168.1905               172.6726               180.6083
 Red. masses --      1.6453                 1.3668                 2.3080
 Frc consts  --      0.0274                 0.0240                 0.0444
 IR Inten    --      4.9499                 2.0224                 6.3775

                     10                     11                     12
                      A                      A                      A
 Frequencies --    211.4387               323.1207               359.8881
 Red. masses --      4.0363                 3.8882                 2.6521
 Frc consts  --      0.1063                 0.2392                 0.2024
 IR Inten    --     23.8450                28.3820                24.6138

                     13                     14                     15
                      A                      A                      A
 Frequencies --    427.2706               463.7942               597.3059
 Red. masses --      6.3230                13.2976                 3.9587
 Frc consts  --      0.6801                 1.6853                 0.8321
 IR Inten    --    115.8131                18.5619                17.9307

                     16                     17                     18
                      A                      A                      A
 Frequencies --    605.5899               749.0514               785.9633
 Red. masses --      1.2153                 4.0845                10.5731
 Frc consts  --      0.2626                 1.3502                 3.8482
 IR Inten    --     19.5775                42.6652                61.0735

                     19                     20                     21
                      A                      A                      A
 Frequencies --    878.1111               984.7694              1001.6628
 Red. masses --      2.3855                 1.2507                 1.1203
 Frc consts  --      1.0838                 0.7146                 0.6622
 IR Inten    --      8.0938                 1.1348               117.1187

                     22                     23                     24
                      A                      A                      A
 Frequencies --   1041.8531              1074.2612              1087.9202
 Red. masses --      1.8653                 4.6120                 2.4294
 Frc consts  --      1.1929                 3.1359                 1.6941
 IR Inten    --      6.2682               241.3929                94.6088

                     25                     26                     27
                      A                      A                      A
 Frequencies --   1170.2823              1172.8997              1182.0182
 Red. masses --      1.3672                 1.3575                 1.2823
 Frc consts  --      1.1032                 1.1003                 1.0556
 IR Inten    --    487.1287                52.4878                 4.4839

                     28                     29                     30
                      A                      A                      A
 Frequencies --   1207.3209              1220.2048              1302.3563
 Red. masses --      1.4429                 1.5882                 3.3800
 Frc consts  --      1.2392                 1.3932                 3.3777
 IR Inten    --     22.3430               104.5280               220.3129

                     31                     32                     33
                      A                      A                      A
 Frequencies --   1342.6195              1381.0898              1463.2727
 Red. masses --      1.3339                 1.9904                 1.1886
 Frc consts  --      1.4167                 2.2368                 1.4995
 IR Inten    --      1.9929               728.4256                20.9484

                     34                     35                     36
                      A                      A                      A
 Frequencies --   1480.9693              1482.8167              1491.4322
 Red. masses --      1.1674                 1.0887                 1.0415
 Frc consts  --      1.5086                 1.4104                 1.3650
 IR Inten    --     63.5942                28.7575                12.3800

                     37                     38                     39
                      A                      A                      A
 Frequencies --   1495.7971              1507.6493              1513.2123
 Red. masses --      1.0836                 1.0302                 2.2337
 Frc consts  --      1.4285                 1.3797                 3.0135
 IR Inten    --     25.6204                16.6341               384.4815

                     40                     41                     42
                      A                      A                      A
 Frequencies --   1647.6910              1691.4783              3062.4033
 Red. masses --      1.0904                10.1152                 1.0311
 Frc consts  --      1.7442                17.0513                 5.6971
 IR Inten    --     44.3366               509.8538                74.4495

                     43                     44                     45
                      A                      A                      A
 Frequencies --   3063.2690              3138.3095              3138.9771
 Red. masses --      1.0337                 1.1068                 1.1043
 Frc consts  --      5.7151                 6.4225                 6.4110
 IR Inten    --     44.9394                36.5584                22.6548

                     46                     47                     48
                      A                      A                      A
 Frequencies --   3157.1881              3164.8139              3173.1504
 Red. masses --      1.1056                 1.0594                 1.1053
 Frc consts  --      6.4930                 6.2521                 6.5574
 IR Inten    --     20.6458                19.8232                25.2394

                     49                     50                     51
                      A                      A                      A
 Frequencies --   3256.1923              3537.9735              3621.4893
 Red. masses --      1.1178                 1.0504                 1.0967
 Frc consts  --      6.9826                 7.7464                 8.4746
 IR Inten    --      0.8200                21.1653                41.6919

 - Thermochemistry -
 -------------------
 Temperature   298.150 Kelvin.  Pressure   1.00000 Atm.
 Atom     1 has atomic number  6 and mass  12.00000

 Molecular mass:   151.04001 amu.
 Principal axes and moments of inertia in atomic units:
                           1         2         3
     Eigenvalues --   983.048232304.161233053.14438
           X            0.99999   0.00007  -0.00329
           Y           -0.00002   0.99992   0.01295
           Z            0.00329  -0.01295   0.99991
 This molecule is an asymmetric top.
 Rotational symmetry number  1.
 Warning -- assumption of classical behavior for rotation
           may cause significant error
 Rotational temperatures (Kelvin)      0.08811     0.03759     0.02837
 Rotational constants (GHZ):           1.83586     0.78325     0.59111
    1 imaginary frequencies ignored.
 Zero-point vibrational energy     404427.6 (Joules/Mol)
                                   96.66052 (Kcal/Mol)
 Warning -- explicit consideration of  15 degrees of freedom as
           vibrations may cause significant error
 Vibrational temperatures:     43.20    85.37   117.62   172.87   206.32
          (Kelvin)            241.99   248.44   259.86   304.21   464.90
                              517.80   614.75   667.30   859.39   871.31
                             1077.72  1130.83  1263.41  1416.86  1441.17
                             1498.99  1545.62  1565.27  1683.78  1687.54
                             1700.66  1737.07  1755.60  1873.80  1931.73
                             1987.08  2105.32  2130.78  2133.44  2145.84
                             2152.12  2169.17  2177.18  2370.66  2433.66
                             4406.12  4407.36  4515.33  4516.29  4542.49
                             4553.46  4565.46  4684.93  5090.35  5210.52

 Zero-point correction=                           0.154038 (Hartree/Particle)
 Thermal correction to Energy=                    0.165187
 Thermal correction to Enthalpy=                  0.166131
 Thermal correction to Gibbs Free Energy=         0.115370
 Sum of electronic and zero-point Energies=           -861.805162
 Sum of electronic and thermal Energies=              -861.794013
 Sum of electronic and thermal Enthalpies=            -861.793069
 Sum of electronic and thermal Free Energies=         -861.843830

                     E (Thermal)             CV                S
                      KCal/Mol        Cal/Mol-Kelvin    Cal/Mol-Kelvin
 Total                  103.657             36.863            106.836
 Electronic               0.000              0.000              0.000
 Translational            0.889              2.981             40.947
 Rotational               0.889              2.981             30.315
 Vibrational            101.879             30.902             35.573
 Vibration     1          0.594              1.984              5.828
 Vibration     2          0.597              1.974              4.479
 Vibration     3          0.600              1.962              3.848
 Vibration     4          0.609              1.932              3.098
 Vibration     5          0.616              1.910              2.758
 Vibration     6          0.625              1.882              2.456
 Vibration     7          0.626              1.876              2.406
 Vibration     8          0.630              1.866              2.322
 Vibration     9          0.643              1.823              2.031
 Vibration    10          0.708              1.629              1.294
 Vibration    11          0.734              1.555              1.123
 Vibration    12          0.789              1.411              0.868
 Vibration    13          0.821              1.330              0.755
 Vibration    14          0.955              1.038              0.454
 Vibration    15          0.964              1.020              0.440

 Optimization completed.
    -- Stationary point found.
 Normal termination of Gaussian 16 at Wed Feb 10 06:41:42 2021.
