 Gaussian 16, Revision A.03,
 Gaussian 16:  ES64L-G16RevA.03 25-Dec-2016

 ----------------------------------------------------------------------
 # wB97XD def2tzvp, opt=(ts, noeigen, calcfc, maxcycles=70, maxstep=5),
  freq=noraman, scrf=(iefpcm, solvent=water)
 ----------------------------------------------------------------------

 ------------------------
 2_iteration/TS-226-2.out
 ------------------------
 Symbolic Z-matrix:
 Charge =  0 Multiplicity = 1

 SCF Done:  E(RwB97XD) =  -3131.77296073     A.U. after   15 cycles
 SCF Done:  E(RwB97XD) =  -3131.77295851     A.U. after   10 cycles
 SCF Done:  E(RwB97XD) =  -3131.77296003     A.U. after    9 cycles
 Optimization completed on the basis of negligible forces.
    -- Stationary point found.
 Normal termination of Gaussian 16 at Thu Feb 11 04:09:24 2021.

 ---------------------------------------------------------------------
 #N Geom=AllCheck Guess=TCheck SCRF=Check GenChk RwB97XD/def2TZVP Freq
 ---------------------------------------------------------------------

 Structure from the checkpoint file:  "/beegfs/scratch/user/q/tla25/Gau-28903.chk"
 ------------------------
 2_iteration/TS-226-2.out
 ------------------------
 Charge =  0 Multiplicity = 1

                         Standard orientation:
 ---------------------------------------------------------------------
 Center     Atomic      Atomic             Coordinates (Angstroms)
 Number     Number       Type             X           Y           Z
 ---------------------------------------------------------------------
      1          6           0        0.887256    0.223635   -0.189392
      2          6           0        0.989279    1.642099   -0.034599
      3          8           0        0.131532    2.280072    0.585586
      4          6           0       -0.195264   -0.593853    0.137266
      5          6           0        1.090409   -0.897970    2.690865
      6          1           0        1.622255   -0.027301    2.304753
      7          1           0        1.058821   -0.842251    3.779521
      8          1           0        1.630001   -1.793724    2.390574
      9          7           0       -0.243247   -0.920026    2.108007
     10          1           0       -0.719791   -1.799783    2.263206
     11          1           0       -0.823066   -0.180784    2.484502
     12          1           0       -0.001235   -1.636205   -0.085570
     13          6           0       -1.641582   -0.291294   -0.088515
     14          6           0       -2.348271    0.769367    0.474795
     15          6           0       -3.693989    0.946911    0.190657
     16          6           0       -4.356987    0.076230   -0.661821
     17          6           0       -3.666195   -0.987989   -1.221635
     18          6           0       -2.324941   -1.174111   -0.926949
     19          1           0       -1.833716    1.463717    1.120724
     20          1           0       -4.227278    1.775240    0.640161
     21          1           0       -5.406857    0.221952   -0.882426
     22          1           0       -4.171942   -1.681140   -1.881780
     23          1           0       -1.797427   -2.016073   -1.359730
     24         35           0        2.469974   -0.731017   -0.756344
     25          6           0        2.170702    2.384895   -0.617972
     26          1           0        2.362100    2.099560   -1.652701
     27          1           0        1.971406    3.452796   -0.557590
     28          1           0        3.075628    2.161673   -0.048547
 ---------------------------------------------------------------------

 SCF Done:  E(RwB97XD) =  -3131.77296003     A.U. after    1 cycles

 The electronic state is 1-A.
 Alpha  occ. eigenvalues -- -483.11952 -62.66791 -56.45891 -56.45561 -56.45554
 Alpha  occ. eigenvalues --  -19.21265 -14.47513 -10.36210 -10.34808 -10.31287
 Alpha  occ. eigenvalues --  -10.30919 -10.30831 -10.29411 -10.29190 -10.29127
 Alpha  occ. eigenvalues --  -10.29057 -10.28829 -10.27314  -8.80903  -6.63002
 Alpha  occ. eigenvalues --   -6.61949  -6.61928  -2.73397  -2.73094  -2.73077
 Alpha  occ. eigenvalues --   -2.72225  -2.72225  -1.12071  -1.03031  -0.97230
 Alpha  occ. eigenvalues --   -0.92704  -0.87818  -0.85289  -0.83064  -0.81281
 Alpha  occ. eigenvalues --   -0.78404  -0.73712  -0.70622  -0.68838  -0.62810
 Alpha  occ. eigenvalues --   -0.62162  -0.58820  -0.56609  -0.56311  -0.55018
 Alpha  occ. eigenvalues --   -0.54674  -0.52972  -0.52522  -0.51434  -0.50957
 Alpha  occ. eigenvalues --   -0.49641  -0.47567  -0.47526  -0.46446  -0.45724
 Alpha  occ. eigenvalues --   -0.44130  -0.43385  -0.42843  -0.41506  -0.39023
 Alpha  occ. eigenvalues --   -0.36901  -0.34016  -0.33816  -0.32259  -0.27588
 Alpha virt. eigenvalues --    0.01912   0.05062   0.05476   0.08942   0.10656
 Alpha virt. eigenvalues --    0.12645   0.13669   0.14257   0.14697   0.15622
 Alpha virt. eigenvalues --    0.17142   0.17447   0.17884   0.18747   0.19040

 Mulliken charges:
               1
     1  C   -0.161276
     2  C    0.254691
     3  O   -0.504904
     4  C   -0.064033
     5  C   -0.282236
     6  H    0.148554
     7  H    0.151921
     8  H    0.153825
     9  N   -0.353415
    10  H    0.282532
    11  H    0.275670
    12  H    0.175971
    13  C    0.258582
    14  C   -0.291978
    15  C   -0.139621
    16  C   -0.155394
    17  C   -0.140762
    18  C   -0.236589
    19  H    0.172584
    20  H    0.143097
    21  H    0.145115
    22  H    0.144485
    23  H    0.142166
    24  Br  -0.168310
    25  C   -0.361522
    26  H    0.141164
    27  H    0.127216
    28  H    0.142467
 Sum of Mulliken charges =  -0.00000

 Dipole moment (field-independent basis, Debye):
    X=             -2.3638    Y=             -4.9533    Z=              4.2312  Tot=              6.9301
 Quadrupole moment (field-independent basis, Debye-Ang):
   XX=            -91.6024   YY=            -98.0715   ZZ=            -85.6751
   XY=              4.0214   XZ=              2.2618   YZ=             -5.4198

  Exact polarizability: 272.412  -1.978 225.264  -5.264  11.161 194.691
 Approx polarizability: 205.706  -6.763 188.632  -3.889  15.315 163.659

 ******    1 imaginary frequencies (negative Signs) ******

                      1                      2                      3
                      A                      A                      A
 Frequencies --   -322.5749                21.4664                53.4296
 Red. masses --      5.8476                 4.5281                 5.1220
 Frc consts  --      0.3585                 0.0012                 0.0086
 IR Inten    --    697.7756                 2.6252                 6.0810

                      4                      5                      6
                      A                      A                      A
 Frequencies --     58.4429                79.0002               103.0106
 Red. masses --      2.9377                 2.8532                 4.0887
 Frc consts  --      0.0059                 0.0105                 0.0256
 IR Inten    --      2.4294                 7.1350                 9.9742

                      7                      8                      9
                      A                      A                      A
 Frequencies --    115.1518               137.5774               160.5485
 Red. masses --      4.0196                 4.5980                 1.0484
 Frc consts  --      0.0314                 0.0513                 0.0159
 IR Inten    --     12.2121                 6.5902                 0.2511

                     10                     11                     12
                      A                      A                      A
 Frequencies --    191.5298               196.7265               223.0218
 Red. masses --      1.3980                 3.6079                 4.3617
 Frc consts  --      0.0302                 0.0823                 0.1278
 IR Inten    --      4.2602                 2.5267                 5.2361

                     13                     14                     15
                      A                      A                      A
 Frequencies --    260.1246               277.3940               314.0891
 Red. masses --      3.6386                 3.3299                 6.9327
 Frc consts  --      0.1451                 0.1510                 0.4030
 IR Inten    --      3.9975                22.1593                16.6524

                     16                     17                     18
                      A                      A                      A
 Frequencies --    391.4497               408.1115               424.1614
 Red. masses --      4.6591                 4.2922                 2.9144
 Frc consts  --      0.4206                 0.4212                 0.3089
 IR Inten    --      8.0777                36.5088                 1.2661

                     19                     20                     21
                      A                      A                      A
 Frequencies --    513.8897               546.8239               588.0974
 Red. masses --      2.2623                 3.2278                 2.8360
 Frc consts  --      0.3520                 0.5687                 0.5779
 IR Inten    --     36.7005                93.0136                22.7964

                     22                     23                     24
                      A                      A                      A
 Frequencies --    624.6595               636.3984               640.0356
 Red. masses --      2.7794                 3.6885                 3.8122
 Frc consts  --      0.6390                 0.8801                 0.9201
 IR Inten    --     26.7176                27.5825                43.6469

                     25                     26                     27
                      A                      A                      A
 Frequencies --    724.1627               747.9807               801.2555
 Red. masses --      1.6032                 3.5496                 2.0840
 Frc consts  --      0.4954                 1.1701                 0.7883
 IR Inten    --     97.8541                 5.5763                11.8407

                     28                     29                     30
                      A                      A                      A
 Frequencies --    820.6960               877.3249               956.5704
 Red. masses --      5.4285                 1.2453                 1.9600
 Frc consts  --      2.1543                 0.5648                 1.0567
 IR Inten    --     24.9810                 1.3494                33.5003

                     31                     32                     33
                      A                      A                      A
 Frequencies --    972.1983               988.4546              1001.7520
 Red. masses --      2.3072                 1.2939                 1.3141
 Frc consts  --      1.2848                 0.7449                 0.7770
 IR Inten    --     25.4170                78.9501                65.6606

                     34                     35                     36
                      A                      A                      A
 Frequencies --   1011.3908              1018.4961              1026.8569
 Red. masses --      1.2976                 1.3473                 3.5991
 Frc consts  --      0.7820                 0.8234                 2.2360
 IR Inten    --     20.1530                38.3293                 4.1648

                     37                     38                     39
                      A                      A                      A
 Frequencies --   1032.7988              1042.7817              1066.5184
 Red. masses --      1.4100                 1.7829                 2.2093
 Frc consts  --      0.8861                 1.1422                 1.4806
 IR Inten    --      5.3062                28.0316                10.4107

                     40                     41                     42
                      A                      A                      A
 Frequencies --   1082.8714              1117.3039              1131.0938
 Red. masses --      3.7813                 1.6074                 1.1940
 Frc consts  --      2.6124                 1.1823                 0.9000
 IR Inten    --     51.6827                27.2168                58.9218

                     43                     44                     45
                      A                      A                      A
 Frequencies --   1184.0034              1188.2878              1206.0285
 Red. masses --      1.2829                 2.4740                 1.3979
 Frc consts  --      1.0597                 2.0582                 1.1980
 IR Inten    --      4.2859                25.5632                13.3896

                     46                     47                     48
                      A                      A                      A
 Frequencies --   1218.2294              1251.9067              1330.7976
 Red. masses --      1.1409                 2.0648                 4.7559
 Frc consts  --      0.9976                 1.9066                 4.9626
 IR Inten    --      2.5099                61.5288                 2.8557

                     49                     50                     51
                      A                      A                      A
 Frequencies --   1343.6650              1363.8415              1379.0999
 Red. masses --      1.3344                 1.5059                 1.3816
 Frc consts  --      1.4195                 1.6504                 1.5482
 IR Inten    --      4.4074                26.5570                79.6689

                     52                     53                     54
                      A                      A                      A
 Frequencies --   1412.9848              1443.4099              1458.3296
 Red. masses --      2.0122                 2.0032                 1.0913
 Frc consts  --      2.3670                 2.4590                 1.3675
 IR Inten    --    528.1161               308.3778                51.3563

                     55                     56                     57
                      A                      A                      A
 Frequencies --   1466.9657              1471.4142              1490.6244
 Red. masses --      1.1150                 1.3026                 1.0398
 Frc consts  --      1.4137                 1.6617                 1.3612
 IR Inten    --     14.9357                99.6244                14.6818

                     58                     59                     60
                      A                      A                      A
 Frequencies --   1504.3771              1507.8680              1543.5958
 Red. masses --      2.0952                 1.0732                 2.3106
 Frc consts  --      2.7937                 1.4376                 3.2437
 IR Inten    --    118.9170                 5.0789                24.8304

                     61                     62                     63
                      A                      A                      A
 Frequencies --   1646.7617              1650.7379              1653.1234
 Red. masses --      1.2201                 6.1061                 4.4862
 Frc consts  --      1.9494                 9.8033                 7.2233
 IR Inten    --    120.4575                87.6363               172.0089

                     64                     65                     66
                      A                      A                      A
 Frequencies --   1674.6514              3061.7372              3063.2020
 Red. masses --      5.7943                 1.0368                 1.0336
 Frc consts  --      9.5741                 5.7266                 5.7139
 IR Inten    --      2.9060                 6.9391                38.0053

                     67                     68                     69
                      A                      A                      A
 Frequencies --   3133.0288              3135.7133              3164.2209
 Red. masses --      1.0992                 1.1045                 1.1045
 Frc consts  --      6.3572                 6.3988                 6.5157
 IR Inten    --     12.0338                17.3170                 7.3693

                     70                     71                     72
                      A                      A                      A
 Frequencies --   3164.3960              3185.8739              3191.7134
 Red. masses --      1.1044                 1.0885                 1.0871
 Frc consts  --      6.5155                 6.5091                 6.5250
 IR Inten    --     35.5634                 2.2076                 7.2854

                     73                     74                     75
                      A                      A                      A
 Frequencies --   3198.8145              3209.0802              3221.0260
 Red. masses --      1.0886                 1.0933                 1.0981
 Frc consts  --      6.5629                 6.6333                 6.7126
 IR Inten    --      2.2853                32.4615                22.5499

                     76                     77                     78
                      A                      A                      A
 Frequencies --   3251.0558              3539.5262              3622.6394
 Red. masses --      1.0929                 1.0503                 1.0963
 Frc consts  --      6.8057                 7.7531                 8.4765
 IR Inten    --     10.3562                43.9106                42.5271

 - Thermochemistry -
 -------------------
 Temperature   298.150 Kelvin.  Pressure   1.00000 Atm.
 Atom     1 has atomic number  6 and mass  12.00000

 Molecular mass:   255.02588 amu.
 Principal axes and moments of inertia in atomic units:
                           1         2         3
     Eigenvalues --  2248.983985974.680406186.84954
           X            0.99924   0.03421   0.01881
           Y           -0.02934   0.97594  -0.21605
           Z           -0.02575   0.21534   0.97620
 This molecule is an asymmetric top.
 Rotational symmetry number  1.
 Warning -- assumption of classical behavior for rotation
           may cause significant error
 Rotational temperatures (Kelvin)      0.03851     0.01450     0.01400
 Rotational constants (GHZ):           0.80247     0.30206     0.29171
    1 imaginary frequencies ignored.
 Zero-point vibrational energy     603626.0 (Joules/Mol)
                                  144.27007 (Kcal/Mol)
 Warning -- explicit consideration of  20 degrees of freedom as
           vibrations may cause significant error
 Vibrational temperatures:     30.89    76.87    84.09   113.66   148.21
          (Kelvin)            165.68   197.94   230.99   275.57   283.05
                              320.88   374.26   399.11   451.90   563.21
                              587.18   610.27   739.37   786.76   846.14
                              898.75   915.64   920.87  1041.91  1076.18
                             1152.83  1180.80  1262.27  1376.29  1398.78
                             1422.17  1441.30  1455.17  1465.39  1477.42
                             1485.97  1500.33  1534.48  1558.01  1607.55
                             1627.39  1703.52  1709.68  1735.21  1752.76
                             1801.21  1914.72  1933.23  1962.26  1984.22
                             2032.97  2076.74  2098.21  2110.64  2117.04
                             2144.68  2164.46  2169.49  2220.89  2369.32
                             2375.04  2378.48  2409.45  4405.16  4407.26
                             4507.73  4511.59  4552.61  4552.86  4583.76
                             4592.16  4602.38  4617.15  4634.34  4677.54
                             5092.59  5212.17

 Zero-point correction=                           0.229909 (Hartree/Particle)
 Thermal correction to Energy=                    0.244689
 Thermal correction to Enthalpy=                  0.245633
 Thermal correction to Gibbs Free Energy=         0.185792
 Sum of electronic and zero-point Energies=          -3131.543051
 Sum of electronic and thermal Energies=             -3131.528271
 Sum of electronic and thermal Enthalpies=           -3131.527327
 Sum of electronic and thermal Free Energies=        -3131.587168

                     E (Thermal)             CV                S
                      KCal/Mol        Cal/Mol-Kelvin    Cal/Mol-Kelvin
 Total                  153.545             53.018            125.947
 Electronic               0.000              0.000              0.000
 Translational            0.889              2.981             42.509
 Rotational               0.889              2.981             32.786
 Vibrational            151.767             47.056             50.652
 Vibration     1          0.593              1.985              6.494
 Vibration     2          0.596              1.976              4.686
 Vibration     3          0.596              1.974              4.509
 Vibration     4          0.600              1.963              3.916
 Vibration     5          0.605              1.947              3.397
 Vibration     6          0.608              1.937              3.180
 Vibration     7          0.614              1.916              2.837
 Vibration     8          0.622              1.891              2.543
 Vibration     9          0.634              1.852              2.213
 Vibration    10          0.636              1.844              2.163
 Vibration    11          0.649              1.806              1.934
 Vibration    12          0.668              1.746              1.661
 Vibration    13          0.678              1.715              1.550
 Vibration    14          0.702              1.647              1.341
 Vibration    15          0.759              1.488              0.995
 Vibration    16          0.773              1.453              0.933
 Vibration    17          0.786              1.418              0.878
 Vibration    18          0.869              1.219              0.624
 Vibration    19          0.902              1.147              0.551
 Vibration    20          0.945              1.057              0.471

 Optimization completed on the basis of negligible forces.
    -- Stationary point found.
 Normal termination of Gaussian 16 at Thu Feb 11 04:58:57 2021.
