 Gaussian 16, Revision A.03,
 Gaussian 16:  ES64L-G16RevA.03 25-Dec-2016

 ----------------------------------------------------------------------
 # wB97XD def2tzvp, opt=(ts, noeigen, calcfc, maxcycles=70, maxstep=8),
  freq=noraman, scrf=(iefpcm, solvent=water)
 ----------------------------------------------------------------------

 ------------------------
 1_iteration/TS-292-1.out
 ------------------------
 Symbolic Z-matrix:
 Charge =  0 Multiplicity = 1

 SCF Done:  E(RwB97XD) =  -441.666339013     A.U. after   14 cycles
 SCF Done:  E(RwB97XD) =  -441.666339025     A.U. after    7 cycles
 Optimization completed.
    -- Stationary point found.
 Normal termination of Gaussian 16 at Wed Feb 10 05:12:28 2021.

 ---------------------------------------------------------------------
 #N Geom=AllCheck Guess=TCheck SCRF=Check GenChk RwB97XD/def2TZVP Freq
 ---------------------------------------------------------------------

 Structure from the checkpoint file:  "/beegfs/scratch/user/q/tla25/Gau-16284.chk"
 ------------------------
 1_iteration/TS-292-1.out
 ------------------------
 Charge =  0 Multiplicity = 1

                         Standard orientation:
 ---------------------------------------------------------------------
 Center     Atomic      Atomic             Coordinates (Angstroms)
 Number     Number       Type             X           Y           Z
 ---------------------------------------------------------------------
      1          6           0        0.037393    0.031537    0.934264
      2          6           0       -1.083985    0.167710    0.077838
      3          8           0       -1.169457    0.785178   -0.982291
      4          6           0        1.290492    0.613729    0.692589
      5          6           0        2.243297   -1.858577   -0.175190
      6          1           0        1.208148   -2.127078    0.038348
      7          1           0        2.625058   -2.493200   -0.974429
      8          1           0        2.838763   -2.011533    0.723401
      9          7           0        2.279374   -0.447545   -0.537206
     10          1           0        3.228984   -0.101367   -0.611119
     11          1           0        1.817062   -0.284695   -1.424386
     12          1           0        1.995225    0.465699    1.506343
     13          6           0        1.460299    1.951939    0.018015
     14          1           0        1.070154    2.724978    0.682885
     15          1           0        2.511675    2.173511   -0.168336
     16          1           0        0.902819    2.002502   -0.913949
     17          1           0       -0.054820   -0.673359    1.748852
     18          8           0       -2.172962   -0.514015    0.555468
     19          6           0       -3.345573   -0.462025   -0.237727
     20          1           0       -3.174600   -0.884484   -1.229354
     21          1           0       -4.090573   -1.055234    0.288668
     22          1           0       -3.705699    0.561895   -0.350640
 ---------------------------------------------------------------------

 SCF Done:  E(RwB97XD) =  -441.666339025     A.U. after    1 cycles

 The electronic state is 1-A.
 Alpha  occ. eigenvalues --  -19.26788 -19.19970 -14.47980 -10.38086 -10.33176
 Alpha  occ. eigenvalues --  -10.31985 -10.31264 -10.27199 -10.23624  -1.17831
 Alpha  occ. eigenvalues --   -1.08335  -1.03505  -0.88983  -0.82837  -0.78615
 Alpha  occ. eigenvalues --   -0.77010  -0.69330  -0.63560  -0.61952  -0.56737
 Alpha  occ. eigenvalues --   -0.56514  -0.55662  -0.55111  -0.53543  -0.52741
 Alpha  occ. eigenvalues --   -0.49008  -0.48411  -0.47480  -0.46356  -0.44504
 Alpha  occ. eigenvalues --   -0.44438  -0.42337  -0.40747  -0.36971  -0.33753
 Alpha  occ. eigenvalues --   -0.26867
 Alpha virt. eigenvalues --    0.07470   0.10134   0.13609   0.13727   0.14872
 Alpha virt. eigenvalues --    0.15941   0.17321   0.17861   0.18278   0.19117
 Alpha virt. eigenvalues --    0.19838   0.20125   0.20722   0.21344   0.22658

 Mulliken charges:
               1
     1  C   -0.497420
     2  C    0.434335
     3  O   -0.543006
     4  C    0.011437
     5  C   -0.273415
     6  H    0.146104
     7  H    0.149697
     8  H    0.149580
     9  N   -0.324735
    10  H    0.282129
    11  H    0.278784
    12  H    0.138017
    13  C   -0.337121
    14  H    0.130787
    15  H    0.126423
    16  H    0.139233
    17  H    0.130414
    18  O   -0.325097
    19  C   -0.182231
    20  H    0.116978
    21  H    0.131450
    22  H    0.117657
 Sum of Mulliken charges =  -0.00000

 Dipole moment (field-independent basis, Debye):
    X=              7.4772    Y=             -2.5905    Z=             -0.8692  Tot=              7.9608
 Quadrupole moment (field-independent basis, Debye-Ang):
   XX=            -37.2316   YY=            -55.0332   ZZ=            -58.4694
   XY=             -0.1604   XZ=             -2.6656   YZ=              3.1683

  Exact polarizability: 159.343  -1.567 112.222  -1.009  -1.093 109.661
 Approx polarizability: 115.432  -0.118  90.799  -0.758  -3.142  95.723

 ******    1 imaginary frequencies (negative Signs) ******

                      1                      2                      3
                      A                      A                      A
 Frequencies --   -363.2204                46.4472                64.4896
 Red. masses --      5.6698                 3.1001                 2.8802
 Frc consts  --      0.4407                 0.0039                 0.0071
 IR Inten    --    862.9837                 0.8833                19.5211

                      4                      5                      6
                      A                      A                      A
 Frequencies --     72.4138               128.7481               165.9526
 Red. masses --      2.6190                 2.3063                 2.6729
 Frc consts  --      0.0081                 0.0225                 0.0434
 IR Inten    --     16.3675                14.7902                 5.8053

                      7                      8                      9
                      A                      A                      A
 Frequencies --    168.5008               182.2762               205.3158
 Red. masses --      1.3393                 1.1691                 1.1475
 Frc consts  --      0.0224                 0.0229                 0.0285
 IR Inten    --      2.7863                 5.1744                 0.6271

                     10                     11                     12
                      A                      A                      A
 Frequencies --    235.2079               290.8312               349.3705
 Red. masses --      2.5658                 3.4277                 3.3304
 Frc consts  --      0.0836                 0.1708                 0.2395
 IR Inten    --      5.8329                14.0772                51.1626

                     13                     14                     15
                      A                      A                      A
 Frequencies --    401.8842               441.1533               529.3636
 Red. masses --      3.7548                 2.7348                 2.6196
 Frc consts  --      0.3573                 0.3136                 0.4325
 IR Inten    --     11.8283                30.4932                 7.6756

                     16                     17                     18
                      A                      A                      A
 Frequencies --    666.9821               714.3647               745.2311
 Red. masses --      1.3303                 1.6946                 2.5672
 Frc consts  --      0.3487                 0.5095                 0.8400
 IR Inten    --     36.4761                67.1004                31.0246

                     19                     20                     21
                      A                      A                      A
 Frequencies --    801.5162               902.4875               931.6756
 Red. masses --      9.7949                 3.9506                 2.1182
 Frc consts  --      3.7075                 1.8958                 1.0833
 IR Inten    --     66.6825                78.1920                50.6840

                     22                     23                     24
                      A                      A                      A
 Frequencies --   1001.6543              1007.0956              1053.7169
 Red. masses --      1.2275                 1.1014                 1.4478
 Frc consts  --      0.7256                 0.6581                 0.9471
 IR Inten    --    113.2433                25.2610                 0.9712

                     25                     26                     27
                      A                      A                      A
 Frequencies --   1082.6837              1099.2839              1118.1175
 Red. masses --      4.2452                 2.9518                 1.7354
 Frc consts  --      2.9319                 2.1016                 1.2783
 IR Inten    --    114.0520                24.9352                56.3082

                     28                     29                     30
                      A                      A                      A
 Frequencies --   1181.7968              1191.4694              1204.1427
 Red. masses --      1.2823                 1.7401                 2.1180
 Frc consts  --      1.0552                 1.4554                 1.8094
 IR Inten    --      1.5681               660.1397               226.8522

                     31                     32                     33
                      A                      A                      A
 Frequencies --   1212.6525              1223.6603              1248.1489
 Red. masses --      1.4605                 1.4096                 1.3275
 Frc consts  --      1.2654                 1.2436                 1.2185
 IR Inten    --     60.0089                10.7063                 3.3517

                     34                     35                     36
                      A                      A                      A
 Frequencies --   1348.1622              1397.5160              1440.8662
 Red. masses --      1.3162                 1.2457                 1.5255
 Frc consts  --      1.4095                 1.4334                 1.8660
 IR Inten    --      1.3564                30.0892                 4.4230

                     37                     38                     39
                      A                      A                      A
 Frequencies --   1450.7485              1465.2576              1478.2565
 Red. masses --      1.2539                 1.2935                 1.1552
 Frc consts  --      1.5549                 1.6363                 1.4874
 IR Inten    --    127.8420               144.6056                21.8045

                     40                     41                     42
                      A                      A                      A
 Frequencies --   1480.3756              1489.7137              1494.3189
 Red. masses --      1.0459                 1.1772                 1.0400
 Frc consts  --      1.3505                 1.5393                 1.3683
 IR Inten    --     10.0297               231.8919                 8.2471

                     43                     44                     45
                      A                      A                      A
 Frequencies --   1498.5977              1502.1375              1518.5540
 Red. masses --      1.0640                 1.0550                 1.8355
 Frc consts  --      1.4079                 1.4026                 2.4938
 IR Inten    --      8.3677                37.8142               365.4704

                     46                     47                     48
                      A                      A                      A
 Frequencies --   1645.6240              1677.9844              3050.7811
 Red. masses --      1.0904                 9.5538                 1.0313
 Frc consts  --      1.7397                15.8489                 5.6553
 IR Inten    --     61.6314               709.7041                73.0376

                     49                     50                     51
                      A                      A                      A
 Frequencies --   3062.5306              3063.5348              3120.3832
 Red. masses --      1.0379                 1.0328                 1.1060
 Frc consts  --      5.7352                 5.7111                 6.3447
 IR Inten    --     37.1383                38.6332                51.1668

                     52                     53                     54
                      A                      A                      A
 Frequencies --   3128.0232              3142.0380              3145.6837
 Red. masses --      1.1014                 1.1046                 1.0899
 Frc consts  --      6.3492                 6.4251                 6.3542
 IR Inten    --     36.1444                 8.1954                25.2723

                     55                     56                     57
                      A                      A                      A
 Frequencies --   3156.7522              3157.9401              3171.4552
 Red. masses --      1.1043                 1.1057                 1.1001
 Frc consts  --      6.4834                 6.4967                 6.5194
 IR Inten    --     34.1887                19.0530                17.1840

                     58                     59                     60
                      A                      A                      A
 Frequencies --   3209.7754              3523.1906              3606.9694
 Red. masses --      1.0895                 1.0504                 1.0964
 Frc consts  --      6.6136                 7.6819                 8.4042
 IR Inten    --     16.2940                30.6309                43.8643

 - Thermochemistry -
 -------------------
 Temperature   298.150 Kelvin.  Pressure   1.00000 Atm.
 Atom     1 has atomic number  6 and mass  12.00000

 Molecular mass:   131.09463 amu.
 Principal axes and moments of inertia in atomic units:
                           1         2         3
     Eigenvalues --   713.360232006.362582333.41343
           X            0.99999   0.00114   0.00301
           Y           -0.00118   0.99992   0.01250
           Z           -0.00300  -0.01251   0.99992
 This molecule is an asymmetric top.
 Rotational symmetry number  1.
 Warning -- assumption of classical behavior for rotation
           may cause significant error
 Rotational temperatures (Kelvin)      0.12142     0.04317     0.03712
 Rotational constants (GHZ):           2.52992     0.89951     0.77343
    1 imaginary frequencies ignored.
 Zero-point vibrational energy     503004.6 (Joules/Mol)
                                  120.22099 (Kcal/Mol)
 Warning -- explicit consideration of  14 degrees of freedom as
           vibrations may cause significant error
 Vibrational temperatures:     66.83    92.79   104.19   185.24   238.77
          (Kelvin)            242.44   262.25   295.40   338.41   418.44
                              502.67   578.22   634.72   761.64   959.64
                             1027.81  1072.22  1153.20  1298.48  1340.47
                             1441.16  1448.99  1516.06  1557.74  1581.62
                             1608.72  1700.34  1714.26  1732.49  1744.74
                             1760.57  1795.81  1939.70  2010.71  2073.09
                             2087.30  2108.18  2126.88  2129.93  2143.37
                             2149.99  2156.15  2161.24  2184.86  2367.69
                             2414.25  4389.39  4406.30  4407.74  4489.54
                             4500.53  4520.69  4525.94  4541.86  4543.57
                             4563.02  4618.15  5069.09  5189.62

 Zero-point correction=                           0.191584 (Hartree/Particle)
 Thermal correction to Energy=                    0.202845
 Thermal correction to Enthalpy=                  0.203789
 Thermal correction to Gibbs Free Energy=         0.153976
 Sum of electronic and zero-point Energies=           -441.474755
 Sum of electronic and thermal Energies=              -441.463494
 Sum of electronic and thermal Enthalpies=            -441.462550
 Sum of electronic and thermal Free Energies=         -441.512363

                     E (Thermal)             CV                S
                      KCal/Mol        Cal/Mol-Kelvin    Cal/Mol-Kelvin
 Total                  127.287             38.613            104.840
 Electronic               0.000              0.000              0.000
 Translational            0.889              2.981             40.525
 Rotational               0.889              2.981             29.592
 Vibrational            125.509             32.651             34.723
 Vibration     1          0.595              1.979              4.963
 Vibration     2          0.597              1.971              4.315
 Vibration     3          0.599              1.967              4.087
 Vibration     4          0.611              1.924              2.965
 Vibration     5          0.624              1.884              2.481
 Vibration     6          0.625              1.881              2.452
 Vibration     7          0.630              1.864              2.305
 Vibration     8          0.640              1.832              2.085
 Vibration     9          0.655              1.787              1.839
 Vibration    10          0.687              1.691              1.469
 Vibration    11          0.727              1.577              1.169
 Vibration    12          0.767              1.466              0.956
 Vibration    13          0.801              1.380              0.823
 Vibration    14          0.884              1.185              0.589

 Optimization completed.
    -- Stationary point found.
 Normal termination of Gaussian 16 at Wed Feb 10 05:23:03 2021.
