 Gaussian 16, Revision A.03,
 Gaussian 16:  ES64L-G16RevA.03 25-Dec-2016

 ----------------------------------------------------------------------
 # wB97XD def2tzvp, opt=(ts, noeigen, calcfc, maxcycles=70, maxstep=8),
  freq=noraman, scrf=(iefpcm, solvent=water)
 ----------------------------------------------------------------------

 ------------------------
 1_iteration/TS-206-1.out
 ------------------------
 Symbolic Z-matrix:
 Charge =  0 Multiplicity = 1

 SCF Done:  E(RwB97XD) =  -883.892764911     A.U. after   14 cycles
 Optimization completed.
    -- Stationary point found.
 Normal termination of Gaussian 16 at Mon Mar 29 01:21:32 2021.

 ---------------------------------------------------------------------
 #N Geom=AllCheck Guess=TCheck SCRF=Check GenChk RwB97XD/def2TZVP Freq
 ---------------------------------------------------------------------

 Structure from the checkpoint file:  "/beegfs/scratch/user/q/tla25/Gau-19280.chk"
 ------------------------
 1_iteration/TS-206-1.out
 ------------------------
 Charge =  0 Multiplicity = 1

                         Standard orientation:
 ---------------------------------------------------------------------
 Center     Atomic      Atomic             Coordinates (Angstroms)
 Number     Number       Type             X           Y           Z
 ---------------------------------------------------------------------
      1          6           0        0.391100    0.001300    0.013194
      2          6           0        0.217599    1.328700    0.598294
      3          8           0       -0.516501    1.510090    1.594194
      4          6           0       -0.684290   -0.900800    0.124994
      5          6           0        0.239010   -1.901800    2.568794
      6          1           0        0.289720   -2.939500    2.241894
      7          1           0        1.126910   -1.377400    2.216794
      8          1           0        0.218410   -1.868900    3.658994
      9          7           0       -0.930890   -1.262310    1.985494
     10          1           0       -1.791190   -1.747411    2.207194
     11          1           0       -0.998300   -0.277910    2.251794
     12          1           0       -0.435090   -1.919200   -0.157206
     13          6           0       -2.098390   -0.575811   -0.253106
     14          6           0       -3.083890   -1.554311   -0.122506
     15          6           0       -4.391490   -1.313121   -0.511606
     16          6           0       -4.738800   -0.082021   -1.049706
     17          6           0       -3.764100    0.892479   -1.206606
     18          6           0       -2.455800    0.644389   -0.819006
     19          1           0       -2.822290   -2.527011    0.279394
     20          1           0       -5.137890   -2.089521   -0.400706
     21          1           0       -5.758900    0.111469   -1.356506
     22          1           0       -4.020001    1.850479   -1.641706
     23          1           0       -1.703001    1.404889   -0.975206
     24          6           0        1.727210   -0.512100   -0.320706
     25          6           0        2.895200    0.006810    0.261194
     26          6           0        4.148410   -0.499889   -0.040306
     27          6           0        4.290310   -1.558279   -0.928006
     28          6           0        3.150910   -2.087590   -1.518606
     29          6           0        1.899410   -1.566590   -1.231606
     30          1           0        2.815500    0.818510    0.974494
     31          1           0        5.022800   -0.070879    0.434894
     32          1           0        5.269310   -1.957779   -1.159706
     33          1           0        3.236810   -2.903890   -2.226206
     34          1           0        1.035310   -1.975100   -1.742206
     35          7           0        0.876589    2.392300    0.059594
     36          6           0        0.910789    3.655700    0.761194
     37          6           0        1.448689    2.403300   -1.267206
     38          1           0        1.897989    4.107500    0.642194
     39          1           0        0.164289    4.354100    0.368694
     40          1           0        0.713489    3.494700    1.816794
     41          1           0        1.105599    1.540300   -1.831406
     42          1           0        1.128989    3.309800   -1.787206
     43          1           0        2.542389    2.389910   -1.236406
 ---------------------------------------------------------------------

 SCF Done:  E(RwB97XD) =  -883.892764911     A.U. after    1 cycles

 The electronic state is 1-A.
 Alpha  occ. eigenvalues --  -19.19940 -14.46755 -14.45300 -10.37092 -10.33424
 Alpha  occ. eigenvalues --  -10.30992 -10.30379 -10.30202 -10.30181 -10.29477
 Alpha  occ. eigenvalues --  -10.29179 -10.29096 -10.29041 -10.28995 -10.28944
 Alpha  occ. eigenvalues --  -10.28194 -10.28171 -10.27569 -10.27548 -10.27477
 Alpha  occ. eigenvalues --  -10.25087  -1.12459  -1.02931  -1.02269  -0.96958
 Alpha  occ. eigenvalues --   -0.95676  -0.90145  -0.86304  -0.85203  -0.84048
 Alpha  occ. eigenvalues --   -0.81780  -0.80997  -0.79141  -0.77767  -0.73198
 Alpha  occ. eigenvalues --   -0.70648  -0.69688  -0.68369  -0.66763  -0.63450
 Alpha  occ. eigenvalues --   -0.62169  -0.60934  -0.60365  -0.57079  -0.56370
 Alpha  occ. eigenvalues --   -0.55949  -0.55703  -0.54897  -0.54274  -0.53367
 Alpha  occ. eigenvalues --   -0.52530  -0.51975  -0.51228  -0.50493  -0.49756
 Alpha  occ. eigenvalues --   -0.49336  -0.48346  -0.47969  -0.47716  -0.47176
 Alpha  occ. eigenvalues --   -0.46764  -0.46044  -0.45087  -0.44867  -0.43532
 Alpha  occ. eigenvalues --   -0.42712  -0.42241  -0.41806  -0.41141  -0.35289
 Alpha  occ. eigenvalues --   -0.33833  -0.33416  -0.32970  -0.32613  -0.31514
 Alpha  occ. eigenvalues --   -0.24344
 Alpha virt. eigenvalues --    0.02552   0.05268   0.05942   0.06266   0.08829
 Alpha virt. eigenvalues --    0.10512   0.11771   0.13485   0.14119   0.14644
 Alpha virt. eigenvalues --    0.14886   0.15550   0.16022   0.16540   0.16881

 Mulliken charges:
               1
     1  C   -0.119735
     2  C    0.234053
     3  O   -0.582326
     4  C    0.030559
     5  C   -0.284055
     6  H    0.143635
     7  H    0.150533
     8  H    0.147315
     9  N   -0.296690
    10  H    0.264924
    11  H    0.269251
    12  H    0.155296
    13  C    0.140676
    14  C   -0.301609
    15  C   -0.136520
    16  C   -0.146296
    17  C   -0.159761
    18  C   -0.184150
    19  H    0.158483
    20  H    0.142781
    21  H    0.144133
    22  H    0.140214
    23  H    0.166884
    24  C    0.056559
    25  C   -0.246544
    26  C   -0.150847
    27  C   -0.170571
    28  C   -0.158028
    29  C   -0.269601
    30  H    0.149260
    31  H    0.132379
    32  H    0.135320
    33  H    0.132851
    34  H    0.142298
    35  N   -0.085784
    36  C   -0.292516
    37  C   -0.304141
    38  H    0.135619
    39  H    0.133270
    40  H    0.140753
    41  H    0.158335
    42  H    0.145860
    43  H    0.137932
 Sum of Mulliken charges =  -0.00000

 Dipole moment (field-independent basis, Debye):
    X=             -1.6164    Y=             -2.4532    Z=              0.9834  Tot=              3.0981
 Quadrupole moment (field-independent basis, Debye-Ang):
   XX=           -118.6105   YY=           -111.2169   ZZ=           -123.3194
   XY=             10.9076   XZ=              1.6947   YZ=            -11.2348

  Exact polarizability: 412.902   3.455 330.196 -12.612  -3.437 267.237
 Approx polarizability: 302.945   4.895 266.566  -5.885  -0.316 225.979

 ******    1 imaginary frequencies (negative Signs) ******

                      1                      2                      3
                      A                      A                      A
 Frequencies --   -411.7254                39.3758                43.1124
 Red. masses --      5.7630                 4.2123                 4.0261
 Frc consts  --      0.5756                 0.0038                 0.0044
 IR Inten    --    958.1513                 1.6106                 0.7821

                      4                      5                      6
                      A                      A                      A
 Frequencies --     51.4404                67.5811                78.5441
 Red. masses --      4.0287                 3.4486                 3.0592
 Frc consts  --      0.0063                 0.0093                 0.0111
 IR Inten    --      6.7928                 1.9427                 1.1697

                      7                      8                      9
                      A                      A                      A
 Frequencies --     81.3945                95.0990               104.2109
 Red. masses --      2.7922                 3.3657                 1.2716
 Frc consts  --      0.0109                 0.0179                 0.0081
 IR Inten    --      0.2364                 1.0838                 0.5911

                     10                     11                     12
                      A                      A                      A
 Frequencies --    125.6072               156.9563               163.0765
 Red. masses --      3.0390                 5.9507                 1.7714
 Frc consts  --      0.0282                 0.0864                 0.0278
 IR Inten    --      6.2119                16.5795                10.5710

                     13                     14                     15
                      A                      A                      A
 Frequencies --    191.2542               205.0240               225.1175
 Red. masses --      1.7938                 4.2963                 2.9254
 Frc consts  --      0.0387                 0.1064                 0.0873
 IR Inten    --      4.0304                 0.2870                26.1578

                     16                     17                     18
                      A                      A                      A
 Frequencies --    243.7570               250.8736               267.8446
 Red. masses --      1.8821                 2.2811                 1.9295
 Frc consts  --      0.0659                 0.0846                 0.0816
 IR Inten    --      3.4535                11.8809                11.8157

                     19                     20                     21
                      A                      A                      A
 Frequencies --    279.8690               287.4523               335.1623
 Red. masses --      5.1331                 2.6693                 3.7562
 Frc consts  --      0.2369                 0.1299                 0.2486
 IR Inten    --      1.4719                 2.9905                 5.6629

                     22                     23                     24
                      A                      A                      A
 Frequencies --    347.6991               402.4092               424.6952
 Red. masses --      3.9416                 3.6314                 2.9327
 Frc consts  --      0.2808                 0.3465                 0.3117
 IR Inten    --     73.3183                12.8897                 0.4040

                     25                     26                     27
                      A                      A                      A
 Frequencies --    428.0845               455.7998               490.7833
 Red. masses --      2.9565                 3.3818                 4.3644
 Frc consts  --      0.3192                 0.4139                 0.6194
 IR Inten    --      2.3601                12.6740                19.0884

                     28                     29                     30
                      A                      A                      A
 Frequencies --    526.5347               556.1671               612.7513
 Red. masses --      3.1782                 4.0439                 5.4450
 Frc consts  --      0.5191                 0.7370                 1.2045
 IR Inten    --     58.6945                76.7672                 8.7312

                     31                     32                     33
                      A                      A                      A
 Frequencies --    619.6684               639.0661               642.4931
 Red. masses --      3.2561                 5.8786                 5.8201
 Frc consts  --      0.7367                 1.4145                 1.4155
 IR Inten    --     20.0198                 1.2996                 9.6364

                     34                     35                     36
                      A                      A                      A
 Frequencies --    660.2175               719.3853               726.3030
 Red. masses --      4.2735                 4.3956                 1.7478
 Frc consts  --      1.0975                 1.3403                 0.5432
 IR Inten    --     52.5220                34.1554                69.6219

                     37                     38                     39
                      A                      A                      A
 Frequencies --    726.9787               747.7312               781.5852
 Red. masses --      1.5663                 1.8377                 2.2089
 Frc consts  --      0.4877                 0.6054                 0.7950
 IR Inten    --     77.9017                90.6019                41.2537

                     40                     41                     42
                      A                      A                      A
 Frequencies --    796.8681               811.1678               861.5124
 Red. masses --      2.2076                 5.8565                 2.5288
 Frc consts  --      0.8259                 2.2704                 1.1058
 IR Inten    --     14.4526                74.8000                14.5099

                     43                     44                     45
                      A                      A                      A
 Frequencies --    869.5593               882.1802               930.6537
 Red. masses --      1.5024                 1.2448                 1.5328
 Frc consts  --      0.6693                 0.5708                 0.7822
 IR Inten    --      8.5400                 1.8402                 5.6836

                     46                     47                     48
                      A                      A                      A
 Frequencies --    952.1936               970.0710               998.0541
 Red. masses --      2.7068                 1.6423                 1.1363
 Frc consts  --      1.4460                 0.9105                 0.6669
 IR Inten    --     15.6563                 5.8534                98.7732

                     49                     50                     51
                      A                      A                      A
 Frequencies --   1003.1209              1011.7159              1016.4563
 Red. masses --      1.3738                 1.3643                 3.8422
 Frc consts  --      0.8145                 0.8228                 2.3389
 IR Inten    --      1.1306                 2.9850                12.7709

                     52                     53                     54
                      A                      A                      A
 Frequencies --   1018.9293              1023.7397              1027.0343
 Red. masses --      1.3801                 2.9516                 5.2201
 Frc consts  --      0.8442                 1.8226                 3.2441
 IR Inten    --      4.1147                40.7813                 3.0465

                     55                     56                     57
                      A                      A                      A
 Frequencies --   1031.3374              1062.8175              1065.9528
 Red. masses --      1.3336                 1.8299                 2.1316
 Frc consts  --      0.8357                 1.2179                 1.4270
 IR Inten    --      1.8540                28.6439                11.9442

                     58                     59                     60
                      A                      A                      A
 Frequencies --   1074.7672              1083.9160              1098.5011
 Red. masses --      1.6233                 1.3844                 2.7908
 Frc consts  --      1.1048                 0.9583                 1.9842
 IR Inten    --     15.3730                 9.6701                87.9681

                     61                     62                     63
                      A                      A                      A
 Frequencies --   1110.1492              1122.7453              1136.4359
 Red. masses --      1.5502                 1.5920                 1.2332
 Frc consts  --      1.1256                 1.1824                 0.9384
 IR Inten    --     16.7473                 4.3280                11.0854

                     64                     65                     66
                      A                      A                      A
 Frequencies --   1144.1844              1166.7035              1178.7119
 Red. masses --      1.2181                 1.8479                 1.3600
 Frc consts  --      0.9395                 1.4820                 1.1133
 IR Inten    --    189.7564                41.2646                17.6760

                     67                     68                     69
                      A                      A                      A
 Frequencies --   1180.3193              1184.0676              1210.3996
 Red. masses --      1.2054                 1.1352                 1.3777
 Frc consts  --      0.9894                 0.9377                 1.1892
 IR Inten    --     16.6396                 0.3763                62.0168

                     70                     71                     72
                      A                      A                      A
 Frequencies --   1213.3341              1218.6138              1224.7618
 Red. masses --      1.1309                 1.1617                 2.3141
 Frc consts  --      0.9809                 1.0164                 2.0452
 IR Inten    --     16.6951                19.5592                69.9600

                     73                     74                     75
                      A                      A                      A
 Frequencies --   1277.9339              1301.5888              1313.7889
 Red. masses --      2.4802                 3.9434                 5.2941
 Frc consts  --      2.3865                 3.9361                 5.3838
 IR Inten    --    171.3632                48.1315                29.1293

                     76                     77                     78
                      A                      A                      A
 Frequencies --   1334.1386              1345.0523              1355.1467
 Red. masses --      5.2020                 2.9845                 1.3175
 Frc consts  --      5.4553                 3.1812                 1.4255
 IR Inten    --     50.3194               108.5601                12.9298

                     79                     80                     81
                      A                      A                      A
 Frequencies --   1366.8163              1370.3076              1425.5982
 Red. masses --      1.4681                 1.4525                 1.6337
 Frc consts  --      1.6160                 1.6070                 1.9563
 IR Inten    --     29.2810                38.8502               285.5288

                     82                     83                     84
                      A                      A                      A
 Frequencies --   1438.3780              1447.5750              1461.6020
 Red. masses --      1.6292                 1.5039                 1.4760
 Frc consts  --      1.9860                 1.8568                 1.8578
 IR Inten    --    300.9276                65.8667                50.5288

                     85                     86                     87
                      A                      A                      A
 Frequencies --   1470.8563              1484.9009              1491.4711
 Red. masses --      1.2981                 1.1540                 1.4088
 Frc consts  --      1.6546                 1.4992                 1.8464
 IR Inten    --     68.3979                 8.7078                10.8416

                     88                     89                     90
                      A                      A                      A
 Frequencies --   1491.7169              1492.6501              1502.1336
 Red. masses --      1.1097                 1.3114                 1.5613
 Frc consts  --      1.4549                 1.7215                 2.0756
 IR Inten    --     10.6370                55.3187                72.3595

                     91                     92                     93
                      A                      A                      A
 Frequencies --   1504.7063              1506.8558              1535.5733
 Red. masses --      1.2166                 1.1348                 2.2538
 Frc consts  --      1.6230                 1.5181                 3.1312
 IR Inten    --     16.2692                 3.8895               224.6802

                     94                     95                     96
                      A                      A                      A
 Frequencies --   1539.3558              1548.8095              1594.9459
 Red. masses --      1.5626                 2.3113                 3.9435
 Frc consts  --      2.1816                 3.2666                 5.9105
 IR Inten    --    270.6567                 8.0932               986.3821

                     97                     98                     99
                      A                      A                      A
 Frequencies --   1631.8114              1652.9107              1654.8366
 Red. masses --      5.4473                 1.7205                 2.2112
 Frc consts  --      8.5461                 2.7696                 3.5678
 IR Inten    --     23.9343                16.7158                13.8070

                    100                    101                    102
                      A                      A                      A
 Frequencies --   1664.9729              1676.4013              3029.0220
 Red. masses --      5.7668                 5.7764                 1.0417
 Frc consts  --      9.4189                 9.5645                 5.6310
 IR Inten    --    100.1973                 1.7727                72.3418

                    103                    104                    105
                      A                      A                      A
 Frequencies --   3034.1274              3061.9329              3086.7968
 Red. masses --      1.0410                 1.0339                 1.1009
 Frc consts  --      5.6464                 5.7109                 6.1804
 IR Inten    --    143.2674                60.8045                88.8172

                    106                    107                    108
                      A                      A                      A
 Frequencies --   3094.8259              3137.9554              3158.1639
 Red. masses --      1.0998                 1.1038                 1.1046
 Frc consts  --      6.2064                 6.4039                 6.4915
 IR Inten    --     17.4795                19.5035                17.9416

                    109                    110                    111
                      A                      A                      A
 Frequencies --   3163.5821              3170.8109              3177.6750
 Red. masses --      1.0883                 1.0979                 1.0980
 Frc consts  --      6.4174                 6.5034                 6.5325
 IR Inten    --      8.5395                10.4767                 9.0859

                    112                    113                    114
                      A                      A                      A
 Frequencies --   3181.5661              3183.8192              3185.0575
 Red. masses --      1.0852                 1.0883                 1.0873
 Frc consts  --      6.4718                 6.4997                 6.4987
 IR Inten    --     21.6538                12.2709                 0.0903

                    115                    116                    117
                      A                      A                      A
 Frequencies --   3196.8547              3197.5150              3200.9406
 Red. masses --      1.0873                 1.0910                 1.0946
 Frc consts  --      6.5473                 6.5720                 6.6081
 IR Inten    --      0.2479                 7.8518                61.1132

                    118                    119                    120
                      A                      A                      A
 Frequencies --   3206.8919              3216.5791              3219.0174
 Red. masses --      1.0922                 1.0981                 1.0965
 Frc consts  --      6.6182                 6.6937                 6.6945
 IR Inten    --     25.8908                28.4646                29.7202

                    121                    122                    123
                      A                      A                      A
 Frequencies --   3229.8423              3405.2430              3589.7664
 Red. masses --      1.0941                 1.0634                 1.0857
 Frc consts  --      6.7247                 7.2651                 8.2428
 IR Inten    --      9.1654               172.1118                80.5590

 - Thermochemistry -
 -------------------
 Temperature   298.150 Kelvin.  Pressure   1.00000 Atm.
 Atom     1 has atomic number  6 and mass  12.00000

 Molecular mass:   282.17321 amu.
 Principal axes and moments of inertia in atomic units:
                           1         2         3
     Eigenvalues --  3995.259618053.535529418.06992
           X            0.99995   0.01008   0.00000
           Y           -0.01008   0.99936  -0.03431
           Z           -0.00035   0.03431   0.99941
 This molecule is an asymmetric top.
 Rotational symmetry number  1.
 Warning -- assumption of classical behavior for rotation
           may cause significant error
 Rotational temperatures (Kelvin)      0.02168     0.01075     0.00920
 Rotational constants (GHZ):           0.45172     0.22409     0.19163
    1 imaginary frequencies ignored.
 Zero-point vibrational energy     965942.1 (Joules/Mol)
                                  230.86569 (Kcal/Mol)
 Warning -- explicit consideration of  30 degrees of freedom as
           vibrations may cause significant error
 Vibrational temperatures:     56.65    62.03    74.01    97.23   113.01
          (Kelvin)            117.11   136.83   149.94   180.72   225.83
                              234.63   275.17   294.98   323.89   350.71
                              360.95   385.37   402.67   413.58   482.22
                              500.26   578.98   611.04   615.92   655.79
                              706.13   757.57   800.20   881.61   891.56
                              919.47   924.40   949.91  1035.04  1044.99
                             1045.96  1075.82  1124.53  1146.52  1167.09
                             1239.52  1251.10  1269.26  1339.00  1369.99
                             1395.72  1435.98  1443.27  1455.63  1462.45
                             1466.01  1472.93  1477.67  1483.86  1529.16
                             1533.67  1546.35  1559.51  1580.50  1597.26
                             1615.38  1635.08  1646.23  1678.63  1695.90
                             1698.22  1703.61  1741.50  1745.72  1753.31
                             1762.16  1838.66  1872.70  1890.25  1919.53
                             1935.23  1949.75  1966.54  1971.57  2051.12
                             2069.51  2082.74  2102.92  2116.23  2136.44
                             2145.89  2146.25  2147.59  2161.24  2164.94
                             2168.03  2209.35  2214.79  2228.39  2294.77
                             2347.81  2378.17  2380.94  2395.52  2411.97
                             4358.09  4365.43  4405.44  4441.21  4452.76
                             4514.82  4543.89  4551.69  4562.09  4571.97
                             4577.56  4580.81  4582.59  4599.56  4600.51
                             4605.44  4614.00  4627.94  4631.45  4647.02
                             4899.39  5164.87

 Zero-point correction=                           0.367908 (Hartree/Particle)
 Thermal correction to Energy=                    0.387987
 Thermal correction to Enthalpy=                  0.388931
 Thermal correction to Gibbs Free Energy=         0.318773
 Sum of electronic and zero-point Energies=           -883.524857
 Sum of electronic and thermal Energies=              -883.504778
 Sum of electronic and thermal Enthalpies=            -883.503834
 Sum of electronic and thermal Free Energies=         -883.573992

                     E (Thermal)             CV                S
                      KCal/Mol        Cal/Mol-Kelvin    Cal/Mol-Kelvin
 Total                  243.466             76.335            147.660
 Electronic               0.000              0.000              0.000
 Translational            0.889              2.981             42.810
 Rotational               0.889              2.981             34.071
 Vibrational            241.688             70.374             70.779
 Vibration     1          0.594              1.981              5.290
 Vibration     2          0.595              1.980              5.111
 Vibration     3          0.596              1.977              4.761
 Vibration     4          0.598              1.970              4.223
 Vibration     5          0.600              1.964              3.927
 Vibration     6          0.600              1.962              3.857
 Vibration     7          0.603              1.953              3.552
 Vibration     8          0.605              1.946              3.374
 Vibration     9          0.611              1.927              3.012
 Vibration    10          0.621              1.895              2.586
 Vibration    11          0.623              1.888              2.514
 Vibration    12          0.634              1.852              2.216
 Vibration    13          0.640              1.833              2.088
 Vibration    14          0.650              1.803              1.918
 Vibration    15          0.659              1.773              1.775
 Vibration    16          0.663              1.761              1.724
 Vibration    17          0.673              1.732              1.610
 Vibration    18          0.680              1.711              1.534
 Vibration    19          0.685              1.697              1.489
 Vibration    20          0.716              1.605              1.235
 Vibration    21          0.725              1.580              1.177
 Vibration    22          0.768              1.465              0.954
 Vibration    23          0.787              1.417              0.876
 Vibration    24          0.790              1.409              0.865
 Vibration    25          0.814              1.348              0.778
 Vibration    26          0.847              1.270              0.682
 Vibration    27          0.881              1.191              0.595
 Vibration    28          0.912              1.126              0.532
 Vibration    29          0.972              1.005              0.428
 Vibration    30          0.980              0.990              0.417

 Optimization completed.
    -- Stationary point found.
 Normal termination of Gaussian 16 at Mon Mar 29 04:18:48 2021.
