 Gaussian 16, Revision A.03,
 Gaussian 16:  ES64L-G16RevA.03 25-Dec-2016

 ----------------------------------------------------------------------
 # wB97XD def2tzvp, opt=(ts, noeigen, calcfc, maxcycles=70, maxstep=1),
  freq=noraman, scrf=(iefpcm, solvent=water)
 ----------------------------------------------------------------------

 ------------------------
 0_iteration/TS-258-0.out
 ------------------------
 Symbolic Z-matrix:
 Charge =  0 Multiplicity = 1

 SCF Done:  E(RwB97XD) =  -366.423945903     A.U. after   14 cycles
 SCF Done:  E(RwB97XD) =  -366.423915253     A.U. after   10 cycles
 SCF Done:  E(RwB97XD) =  -366.423889752     A.U. after   10 cycles
 SCF Done:  E(RwB97XD) =  -366.423870053     A.U. after   10 cycles
 SCF Done:  E(RwB97XD) =  -366.423857298     A.U. after   10 cycles
 SCF Done:  E(RwB97XD) =  -366.423852648     A.U. after   10 cycles
 SCF Done:  E(RwB97XD) =  -366.423856205     A.U. after   10 cycles
 SCF Done:  E(RwB97XD) =  -366.423866228     A.U. after   10 cycles
 SCF Done:  E(RwB97XD) =  -366.423882304     A.U. after   11 cycles
 SCF Done:  E(RwB97XD) =  -366.423903207     A.U. after   11 cycles
 SCF Done:  E(RwB97XD) =  -366.424226200     A.U. after   10 cycles
 SCF Done:  E(RwB97XD) =  -366.424243164     A.U. after   11 cycles
 SCF Done:  E(RwB97XD) =  -366.424256634     A.U. after   11 cycles
 SCF Done:  E(RwB97XD) =  -366.424265849     A.U. after   11 cycles
 SCF Done:  E(RwB97XD) =  -366.424270532     A.U. after   11 cycles
 SCF Done:  E(RwB97XD) =  -366.424271728     A.U. after   10 cycles
 SCF Done:  E(RwB97XD) =  -366.424271819     A.U. after    9 cycles
 SCF Done:  E(RwB97XD) =  -366.424271827     A.U. after    7 cycles
 SCF Done:  E(RwB97XD) =  -366.424271867     A.U. after    7 cycles
 Optimization completed.
    -- Stationary point found.
 Normal termination of Gaussian 16 at Tue Feb  9 06:08:25 2021.

 ---------------------------------------------------------------------
 #N Geom=AllCheck Guess=TCheck SCRF=Check GenChk RwB97XD/def2TZVP Freq
 ---------------------------------------------------------------------

 Structure from the checkpoint file:  "/beegfs/scratch/user/q/tla25/Gau-18035.chk"
 ------------------------
 0_iteration/TS-258-0.out
 ------------------------
 Charge =  0 Multiplicity = 1

                         Standard orientation:
 ---------------------------------------------------------------------
 Center     Atomic      Atomic             Coordinates (Angstroms)
 Number     Number       Type             X           Y           Z
 ---------------------------------------------------------------------
      1          6           0       -0.597046    0.575778    0.316970
      2          6           0       -1.561194   -0.404803   -0.036909
      3          8           0       -2.670268   -0.109089   -0.521442
      4          6           0        0.662834    0.216220    0.797681
      5          6           0        3.286738   -0.343645   -0.092514
      6          1           0        4.009390   -0.429780   -0.904320
      7          1           0        3.630049    0.414405    0.609956
      8          1           0        3.219339   -1.298072    0.427329
      9          7           0        1.959005    0.026912   -0.576138
     10          1           0        1.966814    0.917918   -1.057758
     11          1           0        1.579306   -0.663086   -1.213107
     12          1           0        1.242057    0.969445    1.323540
     13          1           0        0.812733   -0.781830    1.192368
     14          6           0       -0.911042    2.022772    0.037122
     15          1           0       -1.888015    2.308063    0.435403
     16          1           0       -0.936528    2.248491   -1.035298
     17          1           0       -0.160914    2.676350    0.488479
     18          6           0       -1.257606   -1.883031    0.183553
     19          1           0       -0.424277   -2.218256   -0.437893
     20          1           0       -0.997393   -2.096006    1.221853
     21          1           0       -2.139562   -2.463056   -0.081468
 ---------------------------------------------------------------------

 SCF Done:  E(RwB97XD) =  -366.424271867     A.U. after    1 cycles

 The electronic state is 1-A.
 Alpha  occ. eigenvalues --  -19.18943 -14.48119 -10.33445 -10.32112 -10.31812
 Alpha  occ. eigenvalues --  -10.26614 -10.26086 -10.24405  -1.09250  -1.03538
 Alpha  occ. eigenvalues --   -0.88889  -0.81661  -0.79115  -0.77123  -0.70219
 Alpha  occ. eigenvalues --   -0.63244  -0.58931  -0.55789  -0.54992  -0.53482
 Alpha  occ. eigenvalues --   -0.52103  -0.50839  -0.48158  -0.48037  -0.47438
 Alpha  occ. eigenvalues --   -0.46603  -0.43495  -0.43011  -0.42702  -0.41293
 Alpha  occ. eigenvalues --   -0.30853  -0.25826
 Alpha virt. eigenvalues --    0.06138   0.09599   0.13388   0.13661   0.14843
 Alpha virt. eigenvalues --    0.16251   0.17073   0.17633   0.18477   0.19458
 Alpha virt. eigenvalues --    0.20402   0.20845   0.21291   0.22395   0.23127

 Mulliken charges:
               1
     1  C   -0.119255
     2  C    0.201770
     3  O   -0.552753
     4  C   -0.249927
     5  C   -0.272663
     6  H    0.152236
     7  H    0.149602
     8  H    0.150665
     9  N   -0.302168
    10  H    0.282696
    11  H    0.273843
    12  H    0.163984
    13  H    0.161789
    14  C   -0.371108
    15  H    0.108806
    16  H    0.106436
    17  H    0.114583
    18  C   -0.381935
    19  H    0.127525
    20  H    0.137194
    21  H    0.118680
 Sum of Mulliken charges =  -0.00000

 Dipole moment (field-independent basis, Debye):
    X=             12.2100    Y=             -1.0940    Z=             -0.1788  Tot=             12.2602
 Quadrupole moment (field-independent basis, Debye-Ang):
   XX=            -57.4080   YY=            -48.8336   ZZ=            -49.8634
   XY=              1.0965   XZ=             -6.5608   YZ=             -0.3694

  Exact polarizability: 174.047   1.429 112.292   6.987   0.373  96.391
 Approx polarizability: 127.249   0.072  88.465   6.079   0.408  83.547

 ******    1 imaginary frequencies (negative Signs) ******

                      1                      2                      3
                      A                      A                      A
 Frequencies --   -376.3850                50.0906                70.6674
 Red. masses --      6.3256                 2.4199                 1.2840
 Frc consts  --      0.5280                 0.0036                 0.0038
 IR Inten    --   1187.1246                 2.8992                 2.4478

                      4                      5                      6
                      A                      A                      A
 Frequencies --     87.4238               101.1138               142.9464
 Red. masses --      2.1602                 1.9398                 1.1106
 Frc consts  --      0.0097                 0.0117                 0.0134
 IR Inten    --      7.1303                 4.0930                 1.0330

                      7                      8                      9
                      A                      A                      A
 Frequencies --    158.5795               178.2172               218.8918
 Red. masses --      2.3300                 1.3333                 2.7534
 Frc consts  --      0.0345                 0.0249                 0.0777
 IR Inten    --      2.5977                 1.4926                17.0515

                     10                     11                     12
                      A                      A                      A
 Frequencies --    276.8511               394.8921               442.4057
 Red. masses --      3.0635                 2.3375                 4.5559
 Frc consts  --      0.1383                 0.2148                 0.5254
 IR Inten    --     12.5298                 0.4293               205.0477

                     13                     14                     15
                      A                      A                      A
 Frequencies --    471.6050               595.6617               629.4360
 Red. masses --      2.5261                 4.0404                 1.6027
 Frc consts  --      0.3310                 0.8446                 0.3741
 IR Inten    --     11.6009                10.3799                34.2178

                     16                     17                     18
                      A                      A                      A
 Frequencies --    649.9953               755.5875               922.5862
 Red. masses --      1.5273                 3.4453                 1.8026
 Frc consts  --      0.3802                 1.1589                 0.9040
 IR Inten    --     20.7868                 3.9659                 3.5877

                     19                     20                     21
                      A                      A                      A
 Frequencies --    949.1918               998.8966              1013.7143
 Red. masses --      1.5785                 1.3796                 1.2090
 Frc consts  --      0.8379                 0.8111                 0.7320
 IR Inten    --     22.6609               135.3554                21.9433

                     22                     23                     24
                      A                      A                      A
 Frequencies --   1028.1113              1032.0281              1062.2173
 Red. masses --      1.4794                 1.1891                 1.7914
 Frc consts  --      0.9213                 0.7462                 1.1909
 IR Inten    --     26.9208               141.4653                23.2219

                     25                     26                     27
                      A                      A                      A
 Frequencies --   1078.2294              1119.3793              1184.7351
 Red. masses --      3.3661                 1.6237                 1.3905
 Frc consts  --      2.3057                 1.1987                 1.1499
 IR Inten    --    144.9498                10.0669                41.5161

                     28                     29                     30
                      A                      A                      A
 Frequencies --   1207.1936              1227.5015              1341.6652
 Red. masses --      1.1377                 1.3828                 1.3267
 Frc consts  --      0.9769                 1.2276                 1.4070
 IR Inten    --    224.5552                49.2735                 0.5622

                     31                     32                     33
                      A                      A                      A
 Frequencies --   1371.3353              1383.3433              1413.2737
 Red. masses --      1.3630                 1.5235                 1.4170
 Frc consts  --      1.5102                 1.7177                 1.6675
 IR Inten    --      3.8721               206.2823                33.7240

                     34                     35                     36
                      A                      A                      A
 Frequencies --   1442.6193              1463.2497              1466.3866
 Red. masses --      3.6636                 1.1737                 1.1074
 Frc consts  --      4.4922                 1.4806                 1.4030
 IR Inten    --    225.1615                 5.8427                22.5223

                     37                     38                     39
                      A                      A                      A
 Frequencies --   1468.6675              1480.2849              1491.1751
 Red. masses --      1.0764                 1.0490                 1.0405
 Frc consts  --      1.3680                 1.3543                 1.3631
 IR Inten    --     10.3114                13.9804                14.1230

                     40                     41                     42
                      A                      A                      A
 Frequencies --   1496.0847              1506.1834              1534.4123
 Red. masses --      1.0955                 1.0321                 1.8724
 Frc consts  --      1.4446                 1.3795                 2.5974
 IR Inten    --     15.4836                13.4136               381.6738

                     43                     44                     45
                      A                      A                      A
 Frequencies --   1610.5771              1648.5204              3015.5113
 Red. masses --      7.0121                 1.0903                 1.0439
 Frc consts  --     10.7168                 1.7458                 5.5927
 IR Inten    --    949.4602                35.7260               100.1599

                     46                     47                     48
                      A                      A                      A
 Frequencies --   3055.5752              3066.9686              3070.2954
 Red. masses --      1.0374                 1.0334                 1.0912
 Frc consts  --      5.7065                 5.7271                 6.0607
 IR Inten    --     14.5416                57.9658                59.0235

                     49                     50                     51
                      A                      A                      A
 Frequencies --   3107.2148              3122.7826              3130.6542
 Red. masses --      1.1015                 1.1000                 1.0623
 Frc consts  --      6.2656                 6.3201                 6.1344
 IR Inten    --     43.6385                25.9376                59.0488

                     52                     53                     54
                      A                      A                      A
 Frequencies --   3145.4127              3153.8276              3160.3130
 Red. masses --      1.1050                 1.1026                 1.1058
 Frc consts  --      6.4413                 6.4617                 6.5070
 IR Inten    --     17.1665                33.7892                18.6080

                     55                     56                     57
                      A                      A                      A
 Frequencies --   3215.4833              3532.3507              3614.8120
 Red. masses --      1.1127                 1.0507                 1.0966
 Frc consts  --      6.7782                 7.7242                 8.4426
 IR Inten    --     14.0140                18.4119                41.2478

 - Thermochemistry -
 -------------------
 Temperature   298.150 Kelvin.  Pressure   1.00000 Atm.
 Atom     1 has atomic number  6 and mass  12.00000

 Molecular mass:   115.09971 amu.
 Principal axes and moments of inertia in atomic units:
                           1         2         3
     Eigenvalues --   595.029251613.966352003.61551
           X            0.99997  -0.00598  -0.00528
           Y            0.00592   0.99993  -0.01025
           Z            0.00534   0.01022   0.99993
 This molecule is an asymmetric top.
 Rotational symmetry number  1.
 Warning -- assumption of classical behavior for rotation
           may cause significant error
 Rotational temperatures (Kelvin)      0.14556     0.05367     0.04323
 Rotational constants (GHZ):           3.03303     1.11820     0.90074
    1 imaginary frequencies ignored.
 Zero-point vibrational energy     487820.0 (Joules/Mol)
                                  116.59177 (Kcal/Mol)
 Warning -- explicit consideration of  13 degrees of freedom as
           vibrations may cause significant error
 Vibrational temperatures:     72.07   101.67   125.78   145.48   205.67
          (Kelvin)            228.16   256.41   314.94   398.33   568.16
                              636.52   678.53   857.02   905.62   935.20
                             1087.12  1327.40  1365.68  1437.19  1458.51
                             1479.22  1484.86  1528.29  1551.33  1610.54
                             1704.57  1736.88  1766.10  1930.36  1973.05
                             1990.32  2033.39  2075.61  2105.29  2109.80
                             2113.08  2129.80  2145.47  2152.53  2167.06
                             2207.68  2317.26  2371.85  4338.65  4396.29
                             4412.68  4417.47  4470.59  4492.99  4504.31
                             4525.55  4537.65  4546.99  4626.36  5082.26
                             5200.91

 Zero-point correction=                           0.185801 (Hartree/Particle)
 Thermal correction to Energy=                    0.196424
 Thermal correction to Enthalpy=                  0.197368
 Thermal correction to Gibbs Free Energy=         0.149092
 Sum of electronic and zero-point Energies=           -366.238471
 Sum of electronic and thermal Energies=              -366.227848
 Sum of electronic and thermal Enthalpies=            -366.226904
 Sum of electronic and thermal Free Energies=         -366.275180

                     E (Thermal)             CV                S
                      KCal/Mol        Cal/Mol-Kelvin    Cal/Mol-Kelvin
 Total                  123.258             35.942            101.606
 Electronic               0.000              0.000              0.000
 Translational            0.889              2.981             40.137
 Rotational               0.889              2.981             29.044
 Vibrational            121.480             29.980             32.425
 Vibration     1          0.595              1.978              4.814
 Vibration     2          0.598              1.968              4.135
 Vibration     3          0.601              1.958              3.717
 Vibration     4          0.604              1.948              3.433
 Vibration     5          0.616              1.910              2.764
 Vibration     6          0.621              1.893              2.567
 Vibration     7          0.629              1.869              2.347
 Vibration     8          0.647              1.812              1.968
 Vibration     9          0.678              1.716              1.553
 Vibration    10          0.762              1.481              0.982
 Vibration    11          0.802              1.378              0.819
 Vibration    12          0.829              1.313              0.733
 Vibration    13          0.953              1.041              0.457

 Optimization completed.
    -- Stationary point found.
 Normal termination of Gaussian 16 at Tue Feb  9 06:16:04 2021.
