 Gaussian 16, Revision A.03,
 Gaussian 16:  ES64L-G16RevA.03 25-Dec-2016

 ----------------------------------------------------------------------
 # wB97XD def2tzvp, opt=(ts, noeigen, calcfc, maxcycles=70, maxstep=1),
  freq=noraman, scrf=(iefpcm, solvent=water)
 ----------------------------------------------------------------------

 ------------------------
 0_iteration/TS-268-0.out
 ------------------------
 Symbolic Z-matrix:
 Charge =  0 Multiplicity = 1

 SCF Done:  E(RwB97XD) =  -2975.96356145     A.U. after   15 cycles
 SCF Done:  E(RwB97XD) =  -2975.96351080     A.U. after   10 cycles
 SCF Done:  E(RwB97XD) =  -2975.96346340     A.U. after   10 cycles
 SCF Done:  E(RwB97XD) =  -2975.96341929     A.U. after   10 cycles
 SCF Done:  E(RwB97XD) =  -2975.96337851     A.U. after   10 cycles
 SCF Done:  E(RwB97XD) =  -2975.96334108     A.U. after   10 cycles
 SCF Done:  E(RwB97XD) =  -2975.96330704     A.U. after   10 cycles
 SCF Done:  E(RwB97XD) =  -2975.96327640     A.U. after   10 cycles
 SCF Done:  E(RwB97XD) =  -2975.96324920     A.U. after   10 cycles
 SCF Done:  E(RwB97XD) =  -2975.96322545     A.U. after   10 cycles
 SCF Done:  E(RwB97XD) =  -2975.96426027     A.U. after   10 cycles
 SCF Done:  E(RwB97XD) =  -2975.96429570     A.U. after   10 cycles
 SCF Done:  E(RwB97XD) =  -2975.96432614     A.U. after   10 cycles
 SCF Done:  E(RwB97XD) =  -2975.96434974     A.U. after   10 cycles
 SCF Done:  E(RwB97XD) =  -2975.96436734     A.U. after   10 cycles
 SCF Done:  E(RwB97XD) =  -2975.96438006     A.U. after   10 cycles
 SCF Done:  E(RwB97XD) =  -2975.96438726     A.U. after   10 cycles
 SCF Done:  E(RwB97XD) =  -2975.96438855     A.U. after    9 cycles
 SCF Done:  E(RwB97XD) =  -2975.96438856     A.U. after    6 cycles
 Optimization completed.
    -- Stationary point found.
 Normal termination of Gaussian 16 at Tue Feb  9 10:29:04 2021.

 ---------------------------------------------------------------------
 #N Geom=AllCheck Guess=TCheck SCRF=Check GenChk RwB97XD/def2TZVP Freq
 ---------------------------------------------------------------------

 Structure from the checkpoint file:  "/beegfs/scratch/user/q/tla25/Gau-70748.chk"
 ------------------------
 0_iteration/TS-268-0.out
 ------------------------
 Charge =  0 Multiplicity = 1

                         Standard orientation:
 ---------------------------------------------------------------------
 Center     Atomic      Atomic             Coordinates (Angstroms)
 Number     Number       Type             X           Y           Z
 ---------------------------------------------------------------------
      1          6           0       -0.032715   -0.013256    0.456736
      2          6           0        0.929787   -1.055770    0.227120
      3          8           0        0.698598   -2.244337    0.399787
      4          6           0       -1.309690   -0.307693    0.869059
      5          6           0       -3.904477   -0.977261   -0.220805
      6          1           0       -4.555201   -1.208875   -1.065419
      7          1           0       -3.902911   -1.823037    0.465579
      8          1           0       -4.300657   -0.107177    0.301250
      9          7           0       -2.533614   -0.699216   -0.635445
     10          1           0       -2.109775   -1.487724   -1.107920
     11          1           0       -2.476495    0.102699   -1.250629
     12          1           0       -1.947507    0.480910    1.244986
     13          1           0       -1.461834   -1.281734    1.316569
     14         35           0        0.367669    1.789524   -0.037214
     15          8           0        2.134484   -0.623425   -0.186725
     16          6           0        3.120151   -1.625299   -0.407818
     17          1           0        4.008998   -1.096300   -0.741684
     18          1           0        3.334241   -2.170515    0.511554
     19          1           0        2.795014   -2.329320   -1.173938
 ---------------------------------------------------------------------

 SCF Done:  E(RwB97XD) =  -2975.96438856     A.U. after    1 cycles

 The electronic state is 1-A.
 Alpha  occ. eigenvalues -- -483.12003 -62.66848 -56.45950 -56.45612 -56.45610
 Alpha  occ. eigenvalues --  -19.28750 -19.21756 -14.47181 -10.40469 -10.33115
 Alpha  occ. eigenvalues --  -10.32847 -10.31553 -10.30672  -8.80971  -6.63084
 Alpha  occ. eigenvalues --   -6.62002  -6.61996  -2.73480  -2.73160  -2.73155
 Alpha  occ. eigenvalues --   -2.72279  -2.72279  -1.20224  -1.10466  -1.02700
 Alpha  occ. eigenvalues --   -0.92548  -0.83507  -0.82633  -0.78319  -0.72117
 Alpha  occ. eigenvalues --   -0.64096  -0.62679  -0.58971  -0.57141  -0.56430
 Alpha  occ. eigenvalues --   -0.55509  -0.52923  -0.52498  -0.49470  -0.48483
 Alpha  occ. eigenvalues --   -0.47695  -0.45730  -0.43687  -0.43283  -0.39044
 Alpha  occ. eigenvalues --   -0.38154  -0.37844  -0.34905  -0.27489
 Alpha virt. eigenvalues --    0.05181   0.08459   0.10399   0.13451   0.14646
 Alpha virt. eigenvalues --    0.15932   0.16069   0.16912   0.17789   0.18836
 Alpha virt. eigenvalues --    0.19533   0.20907   0.21108   0.21703   0.22920

 Mulliken charges:
               1
     1  C   -0.195400
     2  C    0.426790
     3  O   -0.505040
     4  C   -0.186642
     5  C   -0.266153
     6  H    0.147273
     7  H    0.147210
     8  H    0.147818
     9  N   -0.371257
    10  H    0.279119
    11  H    0.277319
    12  H    0.176655
    13  H    0.168954
    14  Br  -0.153540
    15  O   -0.299978
    16  C   -0.191615
    17  H    0.140067
    18  H    0.129425
    19  H    0.128997
 Sum of Mulliken charges =  -0.00000

 Dipole moment (field-independent basis, Debye):
    X=             -6.5013    Y=             -1.0081    Z=             -2.3519  Tot=              6.9867
 Quadrupole moment (field-independent basis, Debye-Ang):
   XX=            -42.1446   YY=            -75.0365   ZZ=            -64.8104
   XY=              1.6830   XZ=              1.3603   YZ=              3.2216

  Exact polarizability: 175.582   3.859 139.314   0.409  -3.654 102.076
 Approx polarizability: 125.647   4.006 116.968  -0.456  -3.943  89.930

 ******    1 imaginary frequencies (negative Signs) ******

                      1                      2                      3
                      A                      A                      A
 Frequencies --   -326.9028                40.9890                60.0198
 Red. masses --      6.1745                 3.4122                 4.0348
 Frc consts  --      0.3888                 0.0034                 0.0086
 IR Inten    --    931.3721                 0.5780                 7.4365

                      4                      5                      6
                      A                      A                      A
 Frequencies --     78.1337               104.0353               139.3326
 Red. masses --      2.1497                 3.6173                 3.5553
 Frc consts  --      0.0077                 0.0231                 0.0407
 IR Inten    --      9.4289                 7.2630                15.9943

                      7                      8                      9
                      A                      A                      A
 Frequencies --    148.1488               169.9237               173.8100
 Red. masses --      3.1093                 1.3348                 1.2360
 Frc consts  --      0.0402                 0.0227                 0.0220
 IR Inten    --      5.5265                 1.5567                 2.9586

                     10                     11                     12
                      A                      A                      A
 Frequencies --    204.9058               306.3047               341.5041
 Red. masses --      3.5077                 3.7062                 2.6405
 Frc consts  --      0.0868                 0.2049                 0.1814
 IR Inten    --     23.5178                21.3552                 8.0199

                     13                     14                     15
                      A                      A                      A
 Frequencies --    396.0139               422.1088               579.8130
 Red. masses --     10.1438                 6.6898                 5.3749
 Frc consts  --      0.9373                 0.7023                 1.0646
 IR Inten    --     74.5789                85.6137                16.1006

                     16                     17                     18
                      A                      A                      A
 Frequencies --    596.2543               725.4374               785.3638
 Red. masses --      1.1242                 3.7584                10.3903
 Frc consts  --      0.2355                 1.1653                 3.7759
 IR Inten    --     25.9791                31.6373                59.7826

                     19                     20                     21
                      A                      A                      A
 Frequencies --    876.6422               980.7128               995.3015
 Red. masses --      2.4579                 1.2726                 1.1163
 Frc consts  --      1.1129                 0.7212                 0.6515
 IR Inten    --     10.1066                 3.5520               126.4641

                     22                     23                     24
                      A                      A                      A
 Frequencies --   1035.9552              1074.5177              1082.3977
 Red. masses --      1.6653                 4.5315                 2.7315
 Frc consts  --      1.0530                 3.0826                 1.8855
 IR Inten    --      9.8512               254.6084                68.3341

                     25                     26                     27
                      A                      A                      A
 Frequencies --   1163.9402              1165.9064              1182.7883
 Red. masses --      1.6683                 1.1484                 1.2823
 Frc consts  --      1.3317                 0.9197                 1.0569
 IR Inten    --    323.9816               202.0387                 3.2270

                     28                     29                     30
                      A                      A                      A
 Frequencies --   1204.5386              1220.4179              1296.5507
 Red. masses --      1.4413                 1.5693                 3.7211
 Frc consts  --      1.2321                 1.3771                 3.6855
 IR Inten    --     20.9129                89.5922               284.2550

                     31                     32                     33
                      A                      A                      A
 Frequencies --   1342.6762              1379.5811              1463.1496
 Red. masses --      1.3346                 1.9301                 1.1893
 Frc consts  --      1.4176                 2.1643                 1.5000
 IR Inten    --      2.0123               715.0050                21.2614

                     34                     35                     36
                      A                      A                      A
 Frequencies --   1480.9691              1482.9535              1491.6548
 Red. masses --      1.1888                 1.0630                 1.0426
 Frc consts  --      1.5362                 1.3773                 1.3668
 IR Inten    --     70.9394                20.0381                12.0492

                     37                     38                     39
                      A                      A                      A
 Frequencies --   1494.9872              1507.9571              1512.2715
 Red. masses --      1.0842                 1.0314                 2.2084
 Frc consts  --      1.4277                 1.3818                 2.9756
 IR Inten    --     22.4605                23.7704               357.7377

                     40                     41                     42
                      A                      A                      A
 Frequencies --   1649.8184              1691.7955              3060.8284
 Red. masses --      1.0903                10.1673                 1.0343
 Frc consts  --      1.7485                17.1456                 5.7090
 IR Inten    --     42.9107               526.3179                70.0811

                     43                     44                     45
                      A                      A                      A
 Frequencies --   3064.1056              3135.9352              3140.6501
 Red. masses --      1.0308                 1.1037                 1.1068
 Frc consts  --      5.7021                 6.3951                 6.4324
 IR Inten    --     52.9082                22.5580                36.3075

                     46                     47                     48
                      A                      A                      A
 Frequencies --   3156.0461              3162.6909              3174.7131
 Red. masses --      1.1055                 1.0595                 1.1055
 Frc consts  --      6.4879                 6.2440                 6.5646
 IR Inten    --     21.4595                19.5174                24.3181

                     49                     50                     51
                      A                      A                      A
 Frequencies --   3253.7744              3538.3971              3622.1239
 Red. masses --      1.1180                 1.0503                 1.0966
 Frc consts  --      6.9739                 7.7476                 8.4769
 IR Inten    --      0.7081                19.8886                40.1667

 - Thermochemistry -
 -------------------
 Temperature   298.150 Kelvin.  Pressure   1.00000 Atm.
 Atom     1 has atomic number  6 and mass  12.00000

 Molecular mass:   194.98949 amu.
 Principal axes and moments of inertia in atomic units:
                           1         2         3
     Eigenvalues --  1621.321022325.956833708.90792
           X            0.99965  -0.02639  -0.00268
           Y            0.02641   0.99960   0.01035
           Z            0.00240  -0.01042   0.99994
 This molecule is an asymmetric top.
 Rotational symmetry number  1.
 Warning -- assumption of classical behavior for rotation
           may cause significant error
 Rotational temperatures (Kelvin)      0.05342     0.03724     0.02335
 Rotational constants (GHZ):           1.11313     0.77591     0.48660
    1 imaginary frequencies ignored.
 Zero-point vibrational energy     402895.4 (Joules/Mol)
                                   96.29431 (Kcal/Mol)
 Warning -- explicit consideration of  15 degrees of freedom as
           vibrations may cause significant error
 Vibrational temperatures:     58.97    86.36   112.42   149.68   200.47
          (Kelvin)            213.15   244.48   250.07   294.81   440.70
                              491.35   569.78   607.32   834.22   857.88
                             1043.74  1129.96  1261.29  1411.03  1432.02
                             1490.51  1545.99  1557.33  1674.65  1677.48
                             1701.77  1733.06  1755.91  1865.45  1931.81
                             1984.91  2105.15  2130.78  2133.64  2146.16
                             2150.95  2169.61  2175.82  2373.72  2434.12
                             4403.85  4408.56  4511.91  4518.69  4540.85
                             4550.41  4567.70  4681.46  5090.96  5211.43

 Zero-point correction=                           0.153455 (Hartree/Particle)
 Thermal correction to Energy=                    0.164818
 Thermal correction to Enthalpy=                  0.165762
 Thermal correction to Gibbs Free Energy=         0.113985
 Sum of electronic and zero-point Energies=          -2975.810934
 Sum of electronic and thermal Energies=             -2975.799571
 Sum of electronic and thermal Enthalpies=           -2975.798627
 Sum of electronic and thermal Free Energies=        -2975.850404

                     E (Thermal)             CV                S
                      KCal/Mol        Cal/Mol-Kelvin    Cal/Mol-Kelvin
 Total                  103.425             37.294            108.974
 Electronic               0.000              0.000              0.000
 Translational            0.889              2.981             41.709
 Rotational               0.889              2.981             31.015
 Vibrational            101.647             31.332             36.250
 Vibration     1          0.594              1.981              5.211
 Vibration     2          0.597              1.973              4.457
 Vibration     3          0.599              1.964              3.937
 Vibration     4          0.605              1.946              3.377
 Vibration     5          0.615              1.914              2.813
 Vibration     6          0.618              1.905              2.696
 Vibration     7          0.625              1.880              2.436
 Vibration     8          0.627              1.875              2.394
 Vibration     9          0.640              1.833              2.089
 Vibration    10          0.697              1.662              1.382
 Vibration    11          0.721              1.593              1.205
 Vibration    12          0.763              1.479              0.977
 Vibration    13          0.784              1.422              0.885
 Vibration    14          0.936              1.075              0.486
 Vibration    15          0.954              1.040              0.456

 Optimization completed.
    -- Stationary point found.
 Normal termination of Gaussian 16 at Tue Feb  9 10:38:29 2021.
