 Gaussian 16, Revision A.03,
 Gaussian 16:  ES64L-G16RevA.03 25-Dec-2016

 ----------------------------------------------------------------------
 # wB97XD def2tzvp, opt=(ts, noeigen, calcfc, maxcycles=70, maxstep=1),
  freq=noraman, scrf=(iefpcm, solvent=water)
 ----------------------------------------------------------------------

 ------------------------
 0_iteration/TS-209-0.out
 ------------------------
 Symbolic Z-matrix:
 Charge =  0 Multiplicity = 1

 SCF Done:  E(RwB97XD) =  -518.835918414     A.U. after   15 cycles
 SCF Done:  E(RwB97XD) =  -518.835883262     A.U. after   11 cycles
 SCF Done:  E(RwB97XD) =  -518.835851658     A.U. after   11 cycles
 SCF Done:  E(RwB97XD) =  -518.835823652     A.U. after   11 cycles
 SCF Done:  E(RwB97XD) =  -518.835799289     A.U. after   11 cycles
 SCF Done:  E(RwB97XD) =  -518.835778623     A.U. after   10 cycles
 SCF Done:  E(RwB97XD) =  -518.835761766     A.U. after   10 cycles
 SCF Done:  E(RwB97XD) =  -518.835748926     A.U. after   10 cycles
 SCF Done:  E(RwB97XD) =  -518.835740643     A.U. after   10 cycles
 SCF Done:  E(RwB97XD) =  -518.835738694     A.U. after   10 cycles
 SCF Done:  E(RwB97XD) =  -518.837735875     A.U. after   10 cycles
 SCF Done:  E(RwB97XD) =  -518.837767061     A.U. after   10 cycles
 SCF Done:  E(RwB97XD) =  -518.837792483     A.U. after   10 cycles
 SCF Done:  E(RwB97XD) =  -518.837812487     A.U. after   10 cycles
 SCF Done:  E(RwB97XD) =  -518.837828389     A.U. after   10 cycles
 SCF Done:  E(RwB97XD) =  -518.837840863     A.U. after   10 cycles
 SCF Done:  E(RwB97XD) =  -518.837847558     A.U. after   11 cycles
 SCF Done:  E(RwB97XD) =  -518.837848940     A.U. after   11 cycles
 SCF Done:  E(RwB97XD) =  -518.837848953     A.U. after    8 cycles
 Optimization completed.
    -- Stationary point found.
 Normal termination of Gaussian 16 at Tue Feb  9 14:39:32 2021.

 ---------------------------------------------------------------------
 #N Geom=AllCheck Guess=TCheck SCRF=Check GenChk RwB97XD/def2TZVP Freq
 ---------------------------------------------------------------------

 Structure from the checkpoint file:  "/beegfs/scratch/user/q/tla25/Gau-20227.chk"
 ------------------------
 0_iteration/TS-209-0.out
 ------------------------
 Charge =  0 Multiplicity = 1

                         Standard orientation:
 ---------------------------------------------------------------------
 Center     Atomic      Atomic             Coordinates (Angstroms)
 Number     Number       Type             X           Y           Z
 ---------------------------------------------------------------------
      1          6           0       -1.739954   -0.650967   -0.650518
      2          6           0       -1.605309   -1.874925    0.029951
      3          8           0       -2.449289   -2.783213    0.067258
      4          6           0       -0.785170    0.378874   -0.680053
      5          6           0       -2.650698    2.231878    0.276544
      6          1           0       -2.695747    2.683793   -0.713150
      7          1           0       -3.303423    1.359486    0.297375
      8          1           0       -2.994016    2.953693    1.017284
      9          7           0       -1.285062    1.792818    0.539508
     10          1           0       -0.618643    2.551858    0.450823
     11          1           0       -1.199428    1.409501    1.473384
     12          1           0       -0.879637    1.050867   -1.527985
     13          6           0        0.640985    0.183462   -0.286323
     14          6           0        1.035182   -0.164606    1.004032
     15          6           0        2.374778   -0.350026    1.308287
     16          6           0        3.342803   -0.190116    0.327212
     17          6           0        2.962648    0.166992   -0.958077
     18          6           0        1.622911    0.360423   -1.258105
     19          1           0        0.294943   -0.293092    1.783898
     20          1           0        2.662211   -0.619068    2.316705
     21          1           0        4.388630   -0.335412    0.565788
     22          1           0        3.710549    0.302979   -1.728895
     23          1           0        1.333370    0.647144   -2.262221
     24          1           0       -2.656398   -0.500673   -1.211354
     25          1           0       -0.641725   -2.041036    0.546028
 ---------------------------------------------------------------------

 SCF Done:  E(RwB97XD) =  -518.837848953     A.U. after    1 cycles

 The electronic state is 1-A.
 Alpha  occ. eigenvalues --  -19.19732 -14.48287 -10.34473 -10.33480 -10.31631
 Alpha  occ. eigenvalues --  -10.30825 -10.29614 -10.29499 -10.29407 -10.29361
 Alpha  occ. eigenvalues --  -10.29266 -10.24901  -1.09663  -1.03804  -0.97447
 Alpha  occ. eigenvalues --   -0.90164  -0.85642  -0.83799  -0.78902  -0.75028
 Alpha  occ. eigenvalues --   -0.70934  -0.69060  -0.64121  -0.63289  -0.60140
 Alpha  occ. eigenvalues --   -0.57097  -0.56200  -0.55566  -0.54813  -0.52267
 Alpha  occ. eigenvalues --   -0.51820  -0.51047  -0.48134  -0.47860  -0.47285
 Alpha  occ. eigenvalues --   -0.46805  -0.45419  -0.43593  -0.42748  -0.41832
 Alpha  occ. eigenvalues --   -0.34397  -0.33985  -0.31146  -0.27658
 Alpha virt. eigenvalues --    0.02815   0.04843   0.06888   0.10235   0.12923
 Alpha virt. eigenvalues --    0.13501   0.14458   0.15016   0.16492   0.17008
 Alpha virt. eigenvalues --    0.17567   0.18170   0.19104   0.19267   0.20066

 Mulliken charges:
               1
     1  C   -0.375973
     2  C    0.141308
     3  O   -0.540480
     4  C   -0.020170
     5  C   -0.288782
     6  H    0.152570
     7  H    0.151359
     8  H    0.154207
     9  N   -0.320635
    10  H    0.286072
    11  H    0.274658
    12  H    0.163177
    13  C    0.251308
    14  C   -0.325216
    15  C   -0.136250
    16  C   -0.155183
    17  C   -0.135615
    18  C   -0.242511
    19  H    0.182000
    20  H    0.146224
    21  H    0.146575
    22  H    0.145607
    23  H    0.143975
    24  H    0.128037
    25  H    0.073737
 Sum of Mulliken charges =  -0.00000

 Dipole moment (field-independent basis, Debye):
    X=              3.9934    Y=             11.5304    Z=              1.6496  Tot=             12.3133
 Quadrupole moment (field-independent basis, Debye-Ang):
   XX=            -76.4669   YY=            -83.9098   ZZ=            -64.8379
   XY=            -25.6490   XZ=             -1.7912   YZ=             -0.5692

  Exact polarizability: 211.965  13.320 187.946   1.876  -9.670 164.360
 Approx polarizability: 162.771   9.623 146.957   0.508  -9.730 143.104

 ******    1 imaginary frequencies (negative Signs) ******

                      1                      2                      3
                      A                      A                      A
 Frequencies --   -356.1867                47.6049                54.9597
 Red. masses --      5.8771                 2.6940                 3.0812
 Frc consts  --      0.4393                 0.0036                 0.0055
 IR Inten    --    975.3359                 8.6147                 1.6637

                      4                      5                      6
                      A                      A                      A
 Frequencies --     84.8177                98.4127               135.3207
 Red. masses --      3.9002                 3.6782                 3.5040
 Frc consts  --      0.0165                 0.0210                 0.0378
 IR Inten    --      9.1513                10.3251                 1.1091

                      7                      8                      9
                      A                      A                      A
 Frequencies --    191.3151               231.0339               256.7360
 Red. masses --      1.4085                 1.7852                 3.5440
 Frc consts  --      0.0304                 0.0561                 0.1376
 IR Inten    --      0.4616                 5.8822                10.9776

                     10                     11                     12
                      A                      A                      A
 Frequencies --    263.9392               291.4903               365.8439
 Red. masses --      3.7167                 3.4910                 4.8586
 Frc consts  --      0.1526                 0.1748                 0.3831
 IR Inten    --     11.4854                16.0944                 6.5101

                     13                     14                     15
                      A                      A                      A
 Frequencies --    423.9631               445.7336               545.0958
 Red. masses --      2.9570                 3.4516                 2.5586
 Frc consts  --      0.3132                 0.4040                 0.4479
 IR Inten    --      2.4470                85.6779               100.8344

                     16                     17                     18
                      A                      A                      A
 Frequencies --    578.8557               631.0672               637.8509
 Red. masses --      4.9757                 2.1258                 4.9247
 Frc consts  --      0.9823                 0.4988                 1.1805
 IR Inten    --     54.2871                38.0580                 0.3581

                     19                     20                     21
                      A                      A                      A
 Frequencies --    729.8355               763.0616               792.6794
 Red. masses --      1.6299                 2.2333                 1.7898
 Frc consts  --      0.5115                 0.7661                 0.6626
 IR Inten    --     82.0570                32.8144                27.0300

                     22                     23                     24
                      A                      A                      A
 Frequencies --    798.4290               844.2911               882.0020
 Red. masses --      2.2625                 2.4238                 1.2518
 Frc consts  --      0.8498                 1.0179                 0.5738
 IR Inten    --     53.4673                32.6036                 0.1302

                     25                     26                     27
                      A                      A                      A
 Frequencies --    963.8492              1005.1206              1013.7303
 Red. masses --      1.4258                 1.0912                 1.3288
 Frc consts  --      0.7804                 0.6495                 0.8046
 IR Inten    --      2.3496                25.5551                18.3435

                     28                     29                     30
                      A                      A                      A
 Frequencies --   1024.0867              1026.6913              1033.9959
 Red. masses --      1.6786                 2.3096                 1.2983
 Frc consts  --      1.0372                 1.4344                 0.8178
 IR Inten    --     39.0462                22.9752                 6.3491

                     31                     32                     33
                      A                      A                      A
 Frequencies --   1041.0861              1061.8119              1080.1907
 Red. masses --      1.6081                 2.3826                 4.4605
 Frc consts  --      1.0269                 1.5827                 3.0665
 IR Inten    --      5.7754                16.3535                63.7709

                     34                     35                     36
                      A                      A                      A
 Frequencies --   1113.8133              1121.3780              1182.4946
 Red. masses --      1.8344                 1.6730                 1.1941
 Frc consts  --      1.3408                 1.2395                 0.9837
 IR Inten    --     34.0387                30.1028               310.4255

                     37                     38                     39
                      A                      A                      A
 Frequencies --   1185.5384              1211.9006              1215.1803
 Red. masses --      1.1447                 1.7403                 1.2370
 Frc consts  --      0.9479                 1.5060                 1.0763
 IR Inten    --     43.4084                89.7675                20.4084

                     40                     41                     42
                      A                      A                      A
 Frequencies --   1225.3995              1275.3370              1330.3432
 Red. masses --      1.3779                 1.5009                 4.3655
 Frc consts  --      1.2190                 1.4383                 4.5521
 IR Inten    --     21.3069                28.1223                37.9442

                     43                     44                     45
                      A                      A                      A
 Frequencies --   1345.0890              1367.7323              1391.0446
 Red. masses --      1.3507                 1.4326                 1.3620
 Frc consts  --      1.4399                 1.5790                 1.5528
 IR Inten    --      2.5497                27.7777               251.3633

                     46                     47                     48
                      A                      A                      A
 Frequencies --   1440.1393              1460.0601              1491.3726
 Red. masses --      1.9507                 1.1942                 2.1928
 Frc consts  --      2.3837                 1.4999                 2.8736
 IR Inten    --    150.1881                 2.3391                23.0835

                     49                     50                     51
                      A                      A                      A
 Frequencies --   1493.4394              1507.0029              1516.7038
 Red. masses --      1.0585                 1.0665                 2.5885
 Frc consts  --      1.3909                 1.4271                 3.5083
 IR Inten    --     15.0300                24.8301                66.8813

                     52                     53                     54
                      A                      A                      A
 Frequencies --   1550.6024              1639.8056              1650.4141
 Red. masses --      2.5234                 1.0982                 4.6087
 Frc consts  --      3.5747                 1.7399                 7.3963
 IR Inten    --     21.1966                94.6649              1345.1617

                     55                     56                     57
                      A                      A                      A
 Frequencies --   1654.1025              1678.0557              2945.4892
 Red. masses --      5.6342                 5.8594                 1.0802
 Frc consts  --      9.0825                 9.7211                 5.5217
 IR Inten    --      4.3795                 1.7380               147.4218

                     58                     59                     60
                      A                      A                      A
 Frequencies --   3066.6277              3145.9030              3148.8799
 Red. masses --      1.0325                 1.1044                 1.0893
 Frc consts  --      5.7208                 6.4397                 6.3639
 IR Inten    --     42.9574                 8.5133                26.5719

                     61                     62                     63
                      A                      A                      A
 Frequencies --   3158.8832              3177.5750              3192.2961
 Red. masses --      1.1056                 1.0893                 1.0874
 Frc consts  --      6.5000                 6.4800                 6.5292
 IR Inten    --     16.3303                32.3654                 7.3056

                     64                     65                     66
                      A                      A                      A
 Frequencies --   3196.4020              3205.0192              3213.8341
 Red. masses --      1.0878                 1.0911                 1.0950
 Frc consts  --      6.5485                 6.6035                 6.6634
 IR Inten    --      3.7202                11.7425                34.7534

                     67                     68                     69
                      A                      A                      A
 Frequencies --   3224.1601              3522.1316              3608.1252
 Red. masses --      1.0989                 1.0503                 1.0965
 Frc consts  --      6.7304                 7.6767                 8.4104
 IR Inten    --     13.8478                36.2838                37.1298

 - Thermochemistry -
 -------------------
 Temperature   298.150 Kelvin.  Pressure   1.00000 Atm.
 Atom     1 has atomic number  6 and mass  12.00000

 Molecular mass:   163.09971 amu.
 Principal axes and moments of inertia in atomic units:
                           1         2         3
     Eigenvalues --  1497.643592933.740683675.17073
           X            0.99832  -0.05794  -0.00007
           Y            0.05794   0.99830  -0.00699
           Z            0.00048   0.00697   0.99998
 This molecule is an asymmetric top.
 Rotational symmetry number  1.
 Warning -- assumption of classical behavior for rotation
           may cause significant error
 Rotational temperatures (Kelvin)      0.05783     0.02952     0.02357
 Rotational constants (GHZ):           1.20505     0.61517     0.49106
    1 imaginary frequencies ignored.
 Zero-point vibrational energy     557442.9 (Joules/Mol)
                                  133.23205 (Kcal/Mol)
 Warning -- explicit consideration of  15 degrees of freedom as
           vibrations may cause significant error
 Vibrational temperatures:     68.49    79.07   122.03   141.59   194.70
          (Kelvin)            275.26   332.41   369.39   379.75   419.39
                              526.37   609.99   641.31   784.27   832.84
                              907.96   917.73  1050.07  1097.88  1140.49
                             1148.76  1214.75  1269.00  1386.76  1446.14
                             1458.53  1473.43  1477.18  1487.69  1497.89
                             1527.71  1554.15  1602.53  1613.41  1701.35
                             1705.73  1743.65  1748.37  1763.08  1834.93
                             1914.07  1935.28  1967.86  2001.40  2072.04
                             2100.70  2145.75  2148.73  2168.24  2182.20
                             2230.97  2359.31  2374.58  2379.88  2414.35
                             4237.90  4412.19  4526.25  4530.54  4544.93
                             4571.82  4593.00  4598.91  4611.31  4623.99
                             4638.85  5067.56  5191.29

 Zero-point correction=                           0.212319 (Hartree/Particle)
 Thermal correction to Energy=                    0.223994
 Thermal correction to Enthalpy=                  0.224939
 Thermal correction to Gibbs Free Energy=         0.173597
 Sum of electronic and zero-point Energies=           -518.625530
 Sum of electronic and thermal Energies=              -518.613855
 Sum of electronic and thermal Enthalpies=            -518.612910
 Sum of electronic and thermal Free Energies=         -518.664252

                     E (Thermal)             CV                S
                      KCal/Mol        Cal/Mol-Kelvin    Cal/Mol-Kelvin
 Total                  140.559             43.000            108.057
 Electronic               0.000              0.000              0.000
 Translational            0.889              2.981             41.176
 Rotational               0.889              2.981             31.158
 Vibrational            138.781             37.038             35.723
 Vibration     1          0.595              1.978              4.914
 Vibration     2          0.596              1.976              4.630
 Vibration     3          0.601              1.960              3.776
 Vibration     4          0.604              1.950              3.486
 Vibration     5          0.613              1.918              2.869
 Vibration     6          0.634              1.852              2.215
 Vibration     7          0.653              1.794              1.871
 Vibration     8          0.666              1.751              1.684
 Vibration     9          0.670              1.739              1.636
 Vibration    10          0.687              1.690              1.465
 Vibration    11          0.739              1.543              1.097
 Vibration    12          0.786              1.418              0.879
 Vibration    13          0.805              1.370              0.809
 Vibration    14          0.900              1.150              0.554
 Vibration    15          0.935              1.077              0.487

 Optimization completed.
    -- Stationary point found.
 Normal termination of Gaussian 16 at Tue Feb  9 15:06:33 2021.
