 Gaussian 16, Revision A.03,
 Gaussian 16:  ES64L-G16RevA.03 25-Dec-2016

 ----------------------------------------------------------------------
 # wB97XD def2tzvp, opt=(ts, noeigen, calcfc, maxcycles=70, maxstep=8),
  freq=noraman, scrf=(iefpcm, solvent=water)
 ----------------------------------------------------------------------

 ------------------------
 1_iteration/TS-299-1.out
 ------------------------
 Symbolic Z-matrix:
 Charge =  0 Multiplicity = 1

 SCF Done:  E(RwB97XD) =  -421.798888095     A.U. after   14 cycles
 SCF Done:  E(RwB97XD) =  -421.799247390     A.U. after   12 cycles
 SCF Done:  E(RwB97XD) =  -421.799398163     A.U. after   12 cycles
 SCF Done:  E(RwB97XD) =  -421.799504813     A.U. after   12 cycles
 SCF Done:  E(RwB97XD) =  -421.799510055     A.U. after   12 cycles
 SCF Done:  E(RwB97XD) =  -421.799524395     A.U. after   11 cycles
 SCF Done:  E(RwB97XD) =  -421.799519655     A.U. after   10 cycles
 SCF Done:  E(RwB97XD) =  -421.799518752     A.U. after    8 cycles
 SCF Done:  E(RwB97XD) =  -421.799519174     A.U. after    8 cycles
 SCF Done:  E(RwB97XD) =  -421.799081348     A.U. after   12 cycles
 SCF Done:  E(RwB97XD) =  -421.799441322     A.U. after   12 cycles
 SCF Done:  E(RwB97XD) =  -421.799524736     A.U. after   12 cycles
 SCF Done:  E(RwB97XD) =  -421.799521016     A.U. after   10 cycles
 SCF Done:  E(RwB97XD) =  -421.799520478     A.U. after    8 cycles
 SCF Done:  E(RwB97XD) =  -421.799521668     A.U. after    8 cycles
 SCF Done:  E(RwB97XD) =  -421.799525885     A.U. after   10 cycles
 SCF Done:  E(RwB97XD) =  -421.799526045     A.U. after    7 cycles
 Optimization completed on the basis of negligible forces.
    -- Stationary point found.
 Normal termination of Gaussian 16 at Wed Feb 10 06:24:50 2021.

 ---------------------------------------------------------------------
 #N Geom=AllCheck Guess=TCheck SCRF=Check GenChk RwB97XD/def2TZVP Freq
 ---------------------------------------------------------------------

 Structure from the checkpoint file:  "/beegfs/scratch/user/q/tla25/Gau-104337.chk"
 ------------------------
 1_iteration/TS-299-1.out
 ------------------------
 Charge =  0 Multiplicity = 1

                         Standard orientation:
 ---------------------------------------------------------------------
 Center     Atomic      Atomic             Coordinates (Angstroms)
 Number     Number       Type             X           Y           Z
 ---------------------------------------------------------------------
      1          6           0       -0.502658    0.543223   -0.425273
      2          6           0       -1.479504   -0.322269    0.122795
      3          8           0       -2.600427    0.081655    0.511292
      4          6           0        0.802924    0.200258   -0.894612
      5          6           0        1.738286   -0.091806    1.631798
      6          1           0        2.338871    0.351226    2.423468
      7          1           0        0.679496    0.052956    1.847557
      8          1           0        1.957056   -1.154968    1.568905
      9          7           0        2.020990    0.543870    0.343607
     10          1           0        1.999258    1.553239    0.441466
     11          1           0        2.942911    0.295619   -0.001669
     12          1           0        1.174777    0.947119   -1.595042
     13          6           0        1.209034   -1.182030   -1.371995
     14          1           0        0.443502   -1.583546   -2.033964
     15          1           0        2.147258   -1.126836   -1.924272
     16          1           0        1.358957   -1.898210   -0.564189
     17          6           0       -0.841795    2.016263   -0.400365
     18          1           0       -0.783290    2.458770    0.603445
     19          1           0       -0.155544    2.583436   -1.036124
     20          1           0       -1.856323    2.205555   -0.758082
     21          7           0       -1.271190   -1.707267    0.199152
     22          1           0       -0.330581   -2.035859    0.326666
     23          1           0       -1.919259   -2.139801    0.838103
 ---------------------------------------------------------------------

 SCF Done:  E(RwB97XD) =  -421.799526045     A.U. after    1 cycles

 The electronic state is 1-A.
 Alpha  occ. eigenvalues --  -19.17352 -14.50437 -14.41669 -10.34883 -10.33593
 Alpha  occ. eigenvalues --  -10.32172 -10.28234 -10.25722 -10.23417  -1.09422
 Alpha  occ. eigenvalues --   -1.05820  -0.96606  -0.89377  -0.82767  -0.79901
 Alpha  occ. eigenvalues --   -0.73877  -0.70535  -0.64370  -0.61927  -0.59416
 Alpha  occ. eigenvalues --   -0.57369  -0.56053  -0.53784  -0.51510  -0.49629
 Alpha  occ. eigenvalues --   -0.49519  -0.48519  -0.47920  -0.45369  -0.44584
 Alpha  occ. eigenvalues --   -0.43133  -0.42844  -0.41881  -0.33858  -0.31440
 Alpha  occ. eigenvalues --   -0.24448
 Alpha virt. eigenvalues --    0.09140   0.10042   0.11946   0.13164   0.14611
 Alpha virt. eigenvalues --    0.15891   0.16482   0.17096   0.17656   0.19247
 Alpha virt. eigenvalues --    0.20168   0.20588   0.20837   0.22145   0.22678

 Mulliken charges:
               1
     1  C   -0.242684
     2  C    0.236549
     3  O   -0.594241
     4  C   -0.076512
     5  C   -0.337255
     6  H    0.167597
     7  H    0.168975
     8  H    0.162859
     9  N   -0.211227
    10  H    0.292604
    11  H    0.292646
    12  H    0.151155
    13  C   -0.388616
    14  H    0.153708
    15  H    0.150999
    16  H    0.120756
    17  C   -0.373202
    18  H    0.100813
    19  H    0.109565
    20  H    0.106945
    21  N   -0.462393
    22  H    0.229984
    23  H    0.240975
 Sum of Mulliken charges =  -0.00000

 Dipole moment (field-independent basis, Debye):
    X=             14.0900    Y=             -0.6190    Z=              1.2160  Tot=             14.1559
 Quadrupole moment (field-independent basis, Debye-Ang):
   XX=            -61.9195   YY=            -53.2340   ZZ=            -54.8530
   XY=              5.2354   XZ=              3.4753   YZ=             -2.2911

  Exact polarizability: 159.245   3.601 125.006  -6.689  -1.628 110.857
 Approx polarizability: 124.089   1.832 100.292  -5.925  -1.506  92.984

 ******    1 imaginary frequencies (negative Signs) ******

                      1                      2                      3
                      A                      A                      A
 Frequencies --   -336.0552                35.0806                61.3921
 Red. masses --      5.5150                 2.3471                 2.0909
 Frc consts  --      0.3670                 0.0017                 0.0046
 IR Inten    --    901.3529                 3.9508                 1.8256

                      4                      5                      6
                      A                      A                      A
 Frequencies --     91.9950               111.5035               172.2309
 Red. masses --      3.4153                 1.2373                 1.9340
 Frc consts  --      0.0170                 0.0091                 0.0338
 IR Inten    --      2.2095                 6.0587                 9.9018

                      7                      8                      9
                      A                      A                      A
 Frequencies --    202.7066               224.4864               277.2761
 Red. masses --      1.5172                 1.4132                 2.4352
 Frc consts  --      0.0367                 0.0420                 0.1103
 IR Inten    --      3.2174                 7.9424                12.2191

                     10                     11                     12
                      A                      A                      A
 Frequencies --    292.3544               327.9080               333.2172
 Red. masses --      1.8709                 2.2717                 2.9088
 Frc consts  --      0.0942                 0.1439                 0.1903
 IR Inten    --     10.3084                40.1064                20.5990

                     13                     14                     15
                      A                      A                      A
 Frequencies --    396.9631               416.0018               515.7464
 Red. masses --      1.3023                 2.4463                 2.8755
 Frc consts  --      0.1209                 0.2494                 0.4506
 IR Inten    --     44.9134                26.2076               117.6625

                     16                     17                     18
                      A                      A                      A
 Frequencies --    543.6950               556.0787               644.8035
 Red. masses --      2.5562                 1.7563                 3.0377
 Frc consts  --      0.4452                 0.3200                 0.7441
 IR Inten    --     46.5304               239.3604                11.6238

                     19                     20                     21
                      A                      A                      A
 Frequencies --    733.7960               760.4662               793.1198
 Red. masses --      2.0702                 1.9570                 5.1053
 Frc consts  --      0.6568                 0.6668                 1.8921
 IR Inten    --     10.2210                64.1209                83.7930

                     22                     23                     24
                      A                      A                      A
 Frequencies --    954.0454              1007.2169              1024.5093
 Red. masses --      1.6253                 1.5110                 1.2615
 Frc consts  --      0.8716                 0.9032                 0.7801
 IR Inten    --     43.0252                10.2705                 7.4931

                     25                     26                     27
                      A                      A                      A
 Frequencies --   1044.3173              1060.8688              1064.4847
 Red. masses --      1.9507                 1.4602                 1.6782
 Frc consts  --      1.2534                 0.9683                 1.1204
 IR Inten    --    154.9707                13.3652                17.5215

                     28                     29                     30
                      A                      A                      A
 Frequencies --   1076.8214              1098.4176              1132.5833
 Red. masses --      1.6662                 1.3904                 2.1174
 Frc consts  --      1.1383                 0.9884                 1.6003
 IR Inten    --     51.3494                69.7972                85.6993

                     31                     32                     33
                      A                      A                      A
 Frequencies --   1198.1618              1262.3115              1300.1646
 Red. masses --      2.3250                 1.2893                 1.3956
 Frc consts  --      1.9666                 1.2105                 1.3900
 IR Inten    --     23.8934               110.5629                59.6834

                     34                     35                     36
                      A                      A                      A
 Frequencies --   1315.0390              1356.9391              1408.9606
 Red. masses --      1.5861                 1.2674                 1.3195
 Frc consts  --      1.6161                 1.3749                 1.5434
 IR Inten    --     93.2449                 7.5734                 5.2511

                     37                     38                     39
                      A                      A                      A
 Frequencies --   1412.4446              1436.2825              1457.0045
 Red. masses --      1.2441                 2.8172                 1.3666
 Frc consts  --      1.4624                 3.4241                 1.7093
 IR Inten    --     42.4003               223.2368                55.0638

                     40                     41                     42
                      A                      A                      A
 Frequencies --   1463.1036              1471.5285              1491.8465
 Red. masses --      1.3549                 1.2448                 1.1643
 Frc consts  --      1.7089                 1.5882                 1.5267
 IR Inten    --     83.2721                54.7264                38.3831

                     43                     44                     45
                      A                      A                      A
 Frequencies --   1498.5329              1505.2418              1509.3027
 Red. masses --      1.0413                 1.1465                 1.0483
 Frc consts  --      1.3777                 1.5306                 1.4070
 IR Inten    --     27.2197                53.0330                 4.5020

                     46                     47                     48
                      A                      A                      A
 Frequencies --   1511.7080              1592.5221              1627.7605
 Red. masses --      1.0697                 4.8441                 1.2157
 Frc consts  --      1.4402                 7.2383                 1.8978
 IR Inten    --     29.4938              1171.3230               194.2904

                     49                     50                     51
                      A                      A                      A
 Frequencies --   1648.1189              2989.7309              3054.9999
 Red. masses --      1.0857                 1.0533                 1.0811
 Frc consts  --      1.7376                 5.5471                 5.9449
 IR Inten    --     56.3768               133.9748                73.1457

                     52                     53                     54
                      A                      A                      A
 Frequencies --   3069.7831              3076.5419              3096.5111
 Red. masses --      1.0374                 1.0336                 1.0986
 Frc consts  --      5.7601                 5.7640                 6.2065
 IR Inten    --     22.1854                28.3281                27.2259

                     55                     56                     57
                      A                      A                      A
 Frequencies --   3101.4105              3138.0438              3156.6285
 Red. masses --      1.0907                 1.1011                 1.1023
 Frc consts  --      6.1812                 6.3885                 6.4715
 IR Inten    --     48.9930                56.4679                15.2836

                     58                     59                     60
                      A                      A                      A
 Frequencies --   3160.4266              3177.6177              3512.8984
 Red. masses --      1.1041                 1.1064                 1.0518
 Frc consts  --      6.4978                 6.5819                 7.6477
 IR Inten    --      3.0119                13.4072                40.1474

                     61                     62                     63
                      A                      A                      A
 Frequencies --   3589.5938              3603.4888              3713.8160
 Red. masses --      1.0957                 1.0493                 1.0962
 Frc consts  --      8.3180                 8.0276                 8.9077
 IR Inten    --     52.6508                13.3945                31.2459

 - Thermochemistry -
 -------------------
 Temperature   298.150 Kelvin.  Pressure   1.00000 Atm.
 Atom     1 has atomic number  6 and mass  12.00000

 Molecular mass:   130.11061 amu.
 Principal axes and moments of inertia in atomic units:
                           1         2         3
     Eigenvalues --   911.337501520.364671714.34063
           X            0.99971  -0.02096   0.01156
           Y            0.02109   0.99972  -0.01081
           Z           -0.01133   0.01105   0.99987
 This molecule is an asymmetric top.
 Rotational symmetry number  1.
 Warning -- assumption of classical behavior for rotation
           may cause significant error
 Rotational temperatures (Kelvin)      0.09504     0.05697     0.05052
 Rotational constants (GHZ):           1.98032     1.18704     1.05273
    1 imaginary frequencies ignored.
 Zero-point vibrational energy     537497.4 (Joules/Mol)
                                  128.46497 (Kcal/Mol)
 Warning -- explicit consideration of  16 degrees of freedom as
           vibrations may cause significant error
 Vibrational temperatures:     50.47    88.33   132.36   160.43   247.80
          (Kelvin)            291.65   322.99   398.94   420.63   471.79
                              479.43   571.14   598.53   742.04   782.26
                              800.07   927.73  1055.77  1094.14  1141.12
                             1372.66  1449.16  1474.04  1502.54  1526.35
                             1531.56  1549.31  1580.38  1629.53  1723.89
                             1816.18  1870.65  1892.05  1952.33  2027.18
                             2032.19  2066.49  2096.30  2105.08  2117.20
                             2146.43  2156.05  2165.71  2171.55  2175.01
                             2291.28  2341.98  2371.28  4301.56  4395.46
                             4416.73  4426.46  4455.19  4462.24  4514.95
                             4541.68  4547.15  4571.88  5054.28  5164.62
                             5184.62  5343.35

 Zero-point correction=                           0.204722 (Hartree/Particle)
 Thermal correction to Energy=                    0.216041
 Thermal correction to Enthalpy=                  0.216985
 Thermal correction to Gibbs Free Energy=         0.167466
 Sum of electronic and zero-point Energies=           -421.594804
 Sum of electronic and thermal Energies=              -421.583485
 Sum of electronic and thermal Enthalpies=            -421.582541
 Sum of electronic and thermal Free Energies=         -421.632060

                     E (Thermal)             CV                S
                      KCal/Mol        Cal/Mol-Kelvin    Cal/Mol-Kelvin
 Total                  135.567             40.251            104.220
 Electronic               0.000              0.000              0.000
 Translational            0.889              2.981             40.503
 Rotational               0.889              2.981             29.253
 Vibrational            133.790             34.289             34.464
 Vibration     1          0.594              1.982              5.519
 Vibration     2          0.597              1.973              4.412
 Vibration     3          0.602              1.955              3.617
 Vibration     4          0.607              1.940              3.243
 Vibration     5          0.626              1.877              2.411
 Vibration     6          0.639              1.836              2.108
 Vibration     7          0.649              1.804              1.923
 Vibration     8          0.678              1.715              1.550
 Vibration     9          0.688              1.688              1.460
 Vibration    10          0.711              1.620              1.270
 Vibration    11          0.715              1.609              1.244
 Vibration    12          0.763              1.477              0.974
 Vibration    13          0.779              1.435              0.906
 Vibration    14          0.871              1.215              0.620
 Vibration    15          0.899              1.153              0.557
 Vibration    16          0.912              1.126              0.532

 Optimization completed on the basis of negligible forces.
    -- Stationary point found.
 Normal termination of Gaussian 16 at Wed Feb 10 06:38:08 2021.
