 Gaussian 16, Revision A.03,
 Gaussian 16:  ES64L-G16RevA.03 25-Dec-2016

 ----------------------------------------------------------------------
 # wB97XD def2tzvp, opt=(ts, noeigen, calcfc, maxcycles=70, maxstep=8),
  freq=noraman, scrf=(iefpcm, solvent=water)
 ----------------------------------------------------------------------

 ------------------------
 1_iteration/TS-286-1.out
 ------------------------
 Symbolic Z-matrix:
 Charge =  0 Multiplicity = 1

 SCF Done:  E(RwB97XD) =  -692.154600969     A.U. after   14 cycles
 SCF Done:  E(RwB97XD) =  -692.155514780     A.U. after   13 cycles
 SCF Done:  E(RwB97XD) =  -692.155921375     A.U. after   12 cycles
 SCF Done:  E(RwB97XD) =  -692.155804705     A.U. after   12 cycles
 SCF Done:  E(RwB97XD) =  -692.156017546     A.U. after   12 cycles
 SCF Done:  E(RwB97XD) =  -692.155940184     A.U. after   12 cycles
 SCF Done:  E(RwB97XD) =  -692.156030475     A.U. after   12 cycles
 SCF Done:  E(RwB97XD) =  -692.156023617     A.U. after   11 cycles
 SCF Done:  E(RwB97XD) =  -692.156033542     A.U. after   10 cycles
 SCF Done:  E(RwB97XD) =  -692.156033656     A.U. after    6 cycles
 SCF Done:  E(RwB97XD) =  -692.156033638     A.U. after    6 cycles
 Optimization completed.
    -- Stationary point found.
 Normal termination of Gaussian 16 at Mon Mar 29 02:08:58 2021.

 ---------------------------------------------------------------------
 #N Geom=AllCheck Guess=TCheck SCRF=Check GenChk RwB97XD/def2TZVP Freq
 ---------------------------------------------------------------------

 Structure from the checkpoint file:  "/beegfs/scratch/user/q/tla25/Gau-32648.chk"
 ------------------------
 1_iteration/TS-286-1.out
 ------------------------
 Charge =  0 Multiplicity = 1

                         Standard orientation:
 ---------------------------------------------------------------------
 Center     Atomic      Atomic             Coordinates (Angstroms)
 Number     Number       Type             X           Y           Z
 ---------------------------------------------------------------------
      1          6           0        0.361671   -0.029831    0.414371
      2          6           0        0.793301    1.274385   -0.084392
      3          8           0        1.870506    1.416177   -0.701844
      4          6           0        1.369453   -0.944980    0.770906
      5          6           0        3.309604   -2.414099   -0.936283
      6          1           0        3.559787   -2.682151   -1.964684
      7          1           0        4.174222   -1.933668   -0.483127
      8          1           0        3.082130   -3.323205   -0.380066
      9          7           0        2.166215   -1.509849   -0.873943
     10          1           0        2.366995   -0.574050   -1.223797
     11          1           0        1.370010   -1.873381   -1.382227
     12          1           0        1.006758   -1.925118    1.063418
     13          6           0        2.595626   -0.543559    1.546841
     14          1           0        2.292724   -0.343248    2.576710
     15          1           0        3.335354   -1.343218    1.575064
     16          1           0        3.053772    0.355894    1.141456
     17          6           0       -0.998402   -0.522835    0.156344
     18          6           0       -1.796622   -0.003875   -0.876790
     19          6           0       -3.068962   -0.488383   -1.132985
     20          6           0       -3.598020   -1.525821   -0.377091
     21          6           0       -2.829434   -2.057696    0.649763
     22          6           0       -1.564650   -1.559485    0.917159
     23          1           0       -1.405724    0.794723   -1.495949
     24          1           0       -3.647994   -0.057719   -1.941676
     25          1           0       -4.590389   -1.907927   -0.579892
     26          1           0       -3.225158   -2.858684    1.263346
     27          1           0       -1.010356   -1.971114    1.752290
     28          7           0       -0.004453    2.363521    0.113399
     29          6           0       -1.080835    2.418435    1.074708
     30          6           0        0.273513    3.603539   -0.574616
     31          1           0       -1.028870    1.565086    1.745154
     32          1           0       -0.989105    3.333866    1.665046
     33          1           0       -2.060063    2.420434    0.585569
     34          1           0        0.906056    3.410832   -1.436075
     35          1           0       -0.665632    4.051568   -0.907780
     36          1           0        0.781637    4.321203    0.078164
 ---------------------------------------------------------------------

 SCF Done:  E(RwB97XD) =  -692.156033638     A.U. after    1 cycles

 The electronic state is 1-A.
 Alpha  occ. eigenvalues --  -19.19513 -14.46597 -14.44975 -10.36714 -10.32774
 Alpha  occ. eigenvalues --  -10.31245 -10.30202 -10.30037 -10.29303 -10.28110
 Alpha  occ. eigenvalues --  -10.28081 -10.27477 -10.27454 -10.27357 -10.27115
 Alpha  occ. eigenvalues --  -10.24485  -1.12029  -1.02564  -1.02060  -0.95572
 Alpha  occ. eigenvalues --   -0.89874  -0.84756  -0.83884  -0.81429  -0.79687
 Alpha  occ. eigenvalues --   -0.78586  -0.76053  -0.70212  -0.68593  -0.66798
 Alpha  occ. eigenvalues --   -0.62529  -0.61423  -0.60730  -0.56956  -0.55938
 Alpha  occ. eigenvalues --   -0.55442  -0.55331  -0.54214  -0.53023  -0.52628
 Alpha  occ. eigenvalues --   -0.51804  -0.49675  -0.48802  -0.48532  -0.48142
 Alpha  occ. eigenvalues --   -0.47836  -0.47290  -0.46920  -0.45768  -0.44909
 Alpha  occ. eigenvalues --   -0.44380  -0.44188  -0.41907  -0.41167  -0.40253
 Alpha  occ. eigenvalues --   -0.34779  -0.32862  -0.32782  -0.31238  -0.24034
 Alpha virt. eigenvalues --    0.05613   0.06108   0.07789   0.10439   0.11930
 Alpha virt. eigenvalues --    0.13737   0.13881   0.14732   0.15202   0.15687
 Alpha virt. eigenvalues --    0.16586   0.17234   0.18059   0.18263   0.18679

 Mulliken charges:
               1
     1  C   -0.170858
     2  C    0.313593
     3  O   -0.588593
     4  C    0.021975
     5  C   -0.294802
     6  H    0.146734
     7  H    0.153871
     8  H    0.149671
     9  N   -0.316558
    10  H    0.263758
    11  H    0.271552
    12  H    0.129607
    13  C   -0.400946
    14  H    0.134158
    15  H    0.135281
    16  H    0.144595
    17  C    0.105341
    18  C   -0.266330
    19  C   -0.147038
    20  C   -0.181845
    21  C   -0.145252
    22  C   -0.273890
    23  H    0.147790
    24  H    0.132081
    25  H    0.134733
    26  H    0.132535
    27  H    0.137150
    28  N   -0.111900
    29  C   -0.297849
    30  C   -0.292187
    31  H    0.154812
    32  H    0.141323
    33  H    0.132908
    34  H    0.139674
    35  H    0.132670
    36  H    0.132233
 Sum of Mulliken charges =  -0.00000

 Dipole moment (field-independent basis, Debye):
    X=              1.9156    Y=             -3.1734    Z=             -0.1526  Tot=              3.7099
 Quadrupole moment (field-independent basis, Debye-Ang):
   XX=            -94.4505   YY=            -86.1757   ZZ=            -94.6516
   XY=            -15.4831   XZ=              0.4268   YZ=              2.2874

  Exact polarizability: 307.883  -0.310 255.664   4.083 -12.687 206.767
 Approx polarizability: 226.755   2.181 197.620   2.357 -13.089 177.340

 ******    1 imaginary frequencies (negative Signs) ******

                      1                      2                      3
                      A                      A                      A
 Frequencies --   -387.7176                41.6317                46.3256
 Red. masses --      6.2718                 3.7331                 3.4860
 Frc consts  --      0.5555                 0.0038                 0.0044
 IR Inten    --   1014.5204                12.5724                 2.4683

                      4                      5                      6
                      A                      A                      A
 Frequencies --     68.8138                78.1275                83.2410
 Red. masses --      3.1996                 2.7886                 3.2465
 Frc consts  --      0.0089                 0.0100                 0.0133
 IR Inten    --      7.7332                 1.6950                 2.7454

                      7                      8                      9
                      A                      A                      A
 Frequencies --    111.6209               126.1107               138.8734
 Red. masses --      1.3620                 1.8057                 2.8256
 Frc consts  --      0.0100                 0.0169                 0.0321
 IR Inten    --      0.0511                 6.4193                10.9420

                     10                     11                     12
                      A                      A                      A
 Frequencies --    168.1157               189.9027               192.0967
 Red. masses --      1.1061                 1.2992                 3.2275
 Frc consts  --      0.0184                 0.0276                 0.0702
 IR Inten    --      2.0821                 3.5981                 8.4539

                     13                     14                     15
                      A                      A                      A
 Frequencies --    217.8074               236.6672               245.8653
 Red. masses --      2.5028                 3.2780                 1.9346
 Frc consts  --      0.0700                 0.1082                 0.0689
 IR Inten    --      5.7195                16.6162                21.9999

                     16                     17                     18
                      A                      A                      A
 Frequencies --    261.1046               281.7270               324.6974
 Red. masses --      1.9614                 3.1118                 2.7168
 Frc consts  --      0.0788                 0.1455                 0.1688
 IR Inten    --      3.6206                59.9157                 7.3975

                     19                     20                     21
                      A                      A                      A
 Frequencies --    346.9163               402.9551               422.6180
 Red. masses --      3.2402                 3.5997                 2.9726
 Frc consts  --      0.2298                 0.3444                 0.3128
 IR Inten    --      2.6719                19.1655                 2.7243

                     22                     23                     24
                      A                      A                      A
 Frequencies --    431.8452               461.9959               493.5896
 Red. masses --      3.0047                 3.2738                 4.3015
 Frc consts  --      0.3301                 0.4117                 0.6174
 IR Inten    --      3.1865                45.7360                52.9969

                     25                     26                     27
                      A                      A                      A
 Frequencies --    535.2090               615.5411               637.4335
 Red. masses --      3.4497                 3.9473                 5.9139
 Frc consts  --      0.5822                 0.8812                 1.4158
 IR Inten    --     15.0101                17.7098                 3.8495

                     28                     29                     30
                      A                      A                      A
 Frequencies --    646.6933               696.4428               716.3456
 Red. masses --      3.4251                 1.4202                 4.7485
 Frc consts  --      0.8439                 0.4059                 1.4357
 IR Inten    --     36.6006                 9.9293                24.8489

                     31                     32                     33
                      A                      A                      A
 Frequencies --    726.0470               783.9500               804.4297
 Red. masses --      1.6779                 2.8095                 4.4831
 Frc consts  --      0.5211                 1.0173                 1.7093
 IR Inten    --     72.9116                 5.8441               119.7853

                     34                     35                     36
                      A                      A                      A
 Frequencies --    867.4541               914.7926               929.3159
 Red. masses --      1.2571                 2.2829                 1.5729
 Frc consts  --      0.5574                 1.1256                 0.8004
 IR Inten    --      2.1608                 2.3687                 5.4076

                     37                     38                     39
                      A                      A                      A
 Frequencies --    962.3834              1002.0696              1006.0732
 Red. masses --      2.5140                 1.3626                 1.4175
 Frc consts  --      1.3719                 0.8061                 0.8454
 IR Inten    --     53.7450                 1.1283                16.7168

                     40                     41                     42
                      A                      A                      A
 Frequencies --   1010.4818              1016.1963              1021.7991
 Red. masses --      1.2951                 3.3228                 1.9259
 Frc consts  --      0.7791                 2.0217                 1.1847
 IR Inten    --      1.0711                30.2509                 8.0073

                     43                     44                     45
                      A                      A                      A
 Frequencies --   1044.6984              1054.9561              1069.2954
 Red. masses --      1.3747                 1.7067                 1.8751
 Frc consts  --      0.8840                 1.1191                 1.2632
 IR Inten    --    108.9998               116.7028                34.2311

                     46                     47                     48
                      A                      A                      A
 Frequencies --   1085.5285              1087.7251              1114.6085
 Red. masses --      1.7825                 1.5210                 1.6015
 Frc consts  --      1.2376                 1.0603                 1.1722
 IR Inten    --    246.1120                73.1571                14.0506

                     49                     50                     51
                      A                      A                      A
 Frequencies --   1133.2368              1152.1893              1165.7959
 Red. masses --      1.2290                 2.1441                 1.4078
 Frc consts  --      0.9299                 1.6770                 1.1273
 IR Inten    --      0.5325                49.6009               172.1529

                     52                     53                     54
                      A                      A                      A
 Frequencies --   1172.7951              1180.7075              1189.4019
 Red. masses --      1.3966                 1.1360                 1.8260
 Frc consts  --      1.1318                 0.9330                 1.5220
 IR Inten    --     11.4368                20.3228                18.5737

                     55                     56                     57
                      A                      A                      A
 Frequencies --   1206.9826              1218.4740              1297.3356
 Red. masses --      1.3991                 1.1395                 2.8202
 Frc consts  --      1.2009                 0.9967                 2.7966
 IR Inten    --     48.7675                15.9881               127.5142

                     58                     59                     60
                      A                      A                      A
 Frequencies --   1304.2251              1314.6163              1342.6933
 Red. masses --      3.1773                 4.7210                 2.7691
 Frc consts  --      3.1843                 4.8071                 2.9413
 IR Inten    --    111.2364                51.8932               125.2295

                     61                     62                     63
                      A                      A                      A
 Frequencies --   1345.6150              1372.1796              1409.2741
 Red. masses --      1.4138                 1.4695                 1.3053
 Frc consts  --      1.5083                 1.6303                 1.5274
 IR Inten    --     41.8334                10.4473                39.7987

                     64                     65                     66
                      A                      A                      A
 Frequencies --   1426.7564              1440.1045              1450.5946
 Red. masses --      1.9590                 1.2768                 1.4186
 Frc consts  --      2.3495                 1.5601                 1.7587
 IR Inten    --    376.6491                99.5418                54.1344

                     67                     68                     69
                      A                      A                      A
 Frequencies --   1466.7592              1472.2104              1484.2880
 Red. masses --      1.3543                 1.2437                 1.1040
 Frc consts  --      1.7166                 1.5882                 1.4330
 IR Inten    --     65.8809                32.0301                11.5762

                     70                     71                     72
                      A                      A                      A
 Frequencies --   1488.2217              1490.1565              1493.1462
 Red. masses --      1.2376                 1.1651                 1.2567
 Frc consts  --      1.6150                 1.5243                 1.6507
 IR Inten    --     14.9362                35.9608                11.9128

                     73                     74                     75
                      A                      A                      A
 Frequencies --   1494.2243              1501.3726              1502.9160
 Red. masses --      1.1094                 1.0542                 1.1218
 Frc consts  --      1.4594                 1.4001                 1.4929
 IR Inten    --     20.3774                21.5292                64.3366

                     76                     77                     78
                      A                      A                      A
 Frequencies --   1515.5844              1535.6034              1537.8185
 Red. masses --      1.2292                 1.5719                 2.2086
 Frc consts  --      1.6635                 2.1840                 3.0774
 IR Inten    --     60.5240               272.0946               211.8025

                     79                     80                     81
                      A                      A                      A
 Frequencies --   1600.5029              1631.8127              1660.5601
 Red. masses --      5.5657                 5.4187                 1.1806
 Frc consts  --      8.4000                 8.5014                 1.9181
 IR Inten    --    957.3627                24.4030                66.8247

                     82                     83                     84
                      A                      A                      A
 Frequencies --   1665.0317              3025.8465              3030.8400
 Red. masses --      4.0535                 1.0415                 1.0418
 Frc consts  --      6.6210                 5.6181                 5.6385
 IR Inten    --     69.6191                68.2491               156.5734

                     85                     86                     87
                      A                      A                      A
 Frequencies --   3056.8708              3067.1288              3081.9244
 Red. masses --      1.0364                 1.0393                 1.1004
 Frc consts  --      5.7058                 5.7605                 6.1582
 IR Inten    --     79.8084                31.5461                97.5331

                     88                     89                     90
                      A                      A                      A
 Frequencies --   3089.8003              3129.8665              3132.2160
 Red. masses --      1.1001                 1.1018                 1.0993
 Frc consts  --      6.1878                 6.3591                 6.3541
 IR Inten    --     16.5612                30.0999                35.3104

                     91                     92                     93
                      A                      A                      A
 Frequencies --   3160.7510              3162.9383              3170.0141
 Red. masses --      1.1044                 1.0927                 1.0977
 Frc consts  --      6.5007                 6.4406                 6.4989
 IR Inten    --     23.2670                 2.9769                10.1729

                     94                     95                     96
                      A                      A                      A
 Frequencies --   3177.5908              3179.4513              3181.5818
 Red. masses --      1.0972                 1.0937                 1.0879
 Frc consts  --      6.5273                 6.5141                 6.4885
 IR Inten    --      9.3980                26.8203                16.0880

                     97                     98                     99
                      A                      A                      A
 Frequencies --   3185.4724              3198.0689              3201.1354
 Red. masses --      1.0876                 1.0909                 1.0942
 Frc consts  --      6.5023                 6.5739                 6.6064
 IR Inten    --      0.2391                16.3919                65.5244

                    100                    101                    102
                      A                      A                      A
 Frequencies --   3215.2880              3451.7110              3590.7821
 Red. masses --      1.0981                 1.0618                 1.0875
 Frc consts  --      6.6887                 7.4537                 8.2613
 IR Inten    --     24.8697               108.7040                54.3906

 - Thermochemistry -
 -------------------
 Temperature   298.150 Kelvin.  Pressure   1.00000 Atm.
 Atom     1 has atomic number  6 and mass  12.00000

 Molecular mass:   220.15756 amu.
 Principal axes and moments of inertia in atomic units:
                           1         2         3
     Eigenvalues --  3088.931884015.103785915.36351
           X            0.99539  -0.09593   0.00188
           Y            0.09593   0.99539   0.00090
           Z           -0.00196  -0.00071   1.00000
 This molecule is an asymmetric top.
 Rotational symmetry number  1.
 Warning -- assumption of classical behavior for rotation
           may cause significant error
 Rotational temperatures (Kelvin)      0.02804     0.02157     0.01464
 Rotational constants (GHZ):           0.58426     0.44949     0.30509
    1 imaginary frequencies ignored.
 Zero-point vibrational energy     824673.1 (Joules/Mol)
                                  197.10161 (Kcal/Mol)
 Warning -- explicit consideration of  25 degrees of freedom as
           vibrations may cause significant error
 Vibrational temperatures:     59.90    66.65    99.01   112.41   119.77
          (Kelvin)            160.60   181.45   199.81   241.88   273.23
                              276.38   313.38   340.51   353.75   375.67
                              405.34   467.17   499.14   579.76   608.05
                              621.33   664.71   710.17   770.05   885.63
                              917.12   930.45  1002.03  1030.66  1044.62
                             1127.93  1157.39  1248.07  1316.18  1337.08
                             1384.66  1441.75  1447.51  1453.86  1462.08
                             1470.14  1503.09  1517.85  1538.48  1561.83
                             1564.99  1603.67  1630.47  1657.74  1677.32
                             1687.39  1698.77  1711.28  1736.58  1753.11
                             1866.58  1876.49  1891.44  1931.84  1936.04
                             1974.26  2027.63  2052.78  2071.99  2087.08
                             2110.34  2118.18  2135.56  2141.22  2144.00
                             2148.30  2149.86  2160.14  2162.36  2180.59
                             2209.39  2212.58  2302.77  2347.81  2389.18
                             2395.61  4353.52  4360.70  4398.16  4412.91
                             4434.20  4445.53  4503.18  4506.56  4547.62
                             4550.76  4560.94  4571.84  4574.52  4577.59
                             4583.18  4601.31  4605.72  4626.08  4966.24
                             5166.33

 Zero-point correction=                           0.314101 (Hartree/Particle)
 Thermal correction to Energy=                    0.331310
 Thermal correction to Enthalpy=                  0.332254
 Thermal correction to Gibbs Free Energy=         0.268920
 Sum of electronic and zero-point Energies=           -691.841932
 Sum of electronic and thermal Energies=              -691.824724
 Sum of electronic and thermal Enthalpies=            -691.823779
 Sum of electronic and thermal Free Energies=         -691.887113

                     E (Thermal)             CV                S
                      KCal/Mol        Cal/Mol-Kelvin    Cal/Mol-Kelvin
 Total                  207.900             63.477            133.297
 Electronic               0.000              0.000              0.000
 Translational            0.889              2.981             42.070
 Rotational               0.889              2.981             32.662
 Vibrational            206.123             57.515             58.565
 Vibration     1          0.594              1.981              5.180
 Vibration     2          0.595              1.979              4.968
 Vibration     3          0.598              1.969              4.187
 Vibration     4          0.599              1.964              3.937
 Vibration     5          0.600              1.961              3.813
 Vibration     6          0.607              1.940              3.241
 Vibration     7          0.611              1.927              3.005
 Vibration     8          0.614              1.914              2.819
 Vibration     9          0.625              1.882              2.456
 Vibration    10          0.633              1.854              2.229
 Vibration    11          0.634              1.851              2.208
 Vibration    12          0.646              1.814              1.977
 Vibration    13          0.656              1.785              1.828
 Vibration    14          0.660              1.770              1.760
 Vibration    15          0.669              1.744              1.654
 Vibration    16          0.681              1.707              1.523
 Vibration    17          0.709              1.626              1.286
 Vibration    18          0.725              1.582              1.180
 Vibration    19          0.768              1.464              0.952
 Vibration    20          0.785              1.421              0.883
 Vibration    21          0.793              1.401              0.853
 Vibration    22          0.820              1.334              0.760
 Vibration    23          0.849              1.264              0.674
 Vibration    24          0.890              1.172              0.576
 Vibration    25          0.975              0.999              0.424

 Optimization completed.
    -- Stationary point found.
 Normal termination of Gaussian 16 at Mon Mar 29 03:33:41 2021.
