 Gaussian 16, Revision A.03,
 Gaussian 16:  ES64L-G16RevA.03 25-Dec-2016

 ----------------------------------------------------------------------
 # wB97XD def2tzvp, opt=(ts, noeigen, calcfc, maxcycles=70, maxstep=8),
  freq=noraman, scrf=(iefpcm, solvent=water)
 ----------------------------------------------------------------------

 ------------------------
 1_iteration/TS-202-1.out
 ------------------------
 Symbolic Z-matrix:
 Charge =  0 Multiplicity = 1

 SCF Done:  E(RwB97XD) =  -789.211969951     A.U. after   15 cycles
 SCF Done:  E(RwB97XD) =  -789.211970999     A.U. after   11 cycles
 SCF Done:  E(RwB97XD) =  -789.211971038     A.U. after    8 cycles
 Optimization completed.
    -- Stationary point found.
 Normal termination of Gaussian 16 at Mon Mar 29 13:33:10 2021.

 ---------------------------------------------------------------------
 #N Geom=AllCheck Guess=TCheck SCRF=Check GenChk RwB97XD/def2TZVP Freq
 ---------------------------------------------------------------------

 Structure from the checkpoint file:  "/beegfs/scratch/user/q/tla25/Gau-79979.chk"
 ------------------------
 1_iteration/TS-202-1.out
 ------------------------
 Charge =  0 Multiplicity = 1

                         Standard orientation:
 ---------------------------------------------------------------------
 Center     Atomic      Atomic             Coordinates (Angstroms)
 Number     Number       Type             X           Y           Z
 ---------------------------------------------------------------------
      1          6           0       -0.502136   -0.390779   -0.268112
      2          6           0       -0.288706   -1.642743   -0.936545
      3          8           0        0.644489   -2.405067   -0.648391
      4          6           0        0.508977    0.235487    0.476064
      5          6           0       -0.551131   -1.027638    2.824892
      6          1           0       -0.471538   -1.707560    3.674678
      7          1           0       -1.008443   -0.095302    3.152891
      8          1           0       -1.192351   -1.479902    2.068456
      9          7           0        0.740592   -0.743480    2.220609
     10          1           0        1.355902   -0.225086    2.834767
     11          1           0        1.209436   -1.592249    1.930120
     12          1           0        0.155493    1.140468    0.960103
     13          6           0        1.948068    0.400770    0.113728
     14          6           0        2.388221    1.719697   -0.025472
     15          6           0        3.694022    2.009140   -0.387027
     16          6           0        4.598835    0.979002   -0.597162
     17          6           0        4.181849   -0.334280   -0.439937
     18          6           0        2.871283   -0.624370   -0.088661
     19          1           0        1.692950    2.533473    0.146318
     20          1           0        4.005228    3.040471   -0.495742
     21          1           0        5.622592    1.198544   -0.872766
     22          1           0        4.883030   -1.145868   -0.590411
     23          1           0        2.552868   -1.649449    0.017386
     24          6           0       -1.849631    0.233907   -0.240928
     25          6           0       -2.009968    1.611992   -0.418169
     26          6           0       -3.259820    2.210302   -0.363592
     27          6           0       -4.394768    1.442032   -0.147415
     28          6           0       -4.260257    0.070779    0.021124
     29          6           0       -3.006827   -0.519285   -0.017369
     30          1           0       -1.138777    2.224769   -0.619145
     31          1           0       -3.347585    3.280750   -0.504756
     32          1           0       -5.372419    1.905711   -0.110909
     33          1           0       -5.135384   -0.542591    0.198294
     34          1           0       -2.922003   -1.587291    0.144369
     35          6           0       -1.220086   -2.077001   -2.053546
     36          1           0       -0.603687   -2.459989   -2.867731
     37          1           0       -1.853589   -2.897762   -1.710563
     38          1           0       -1.859332   -1.278308   -2.423734
 ---------------------------------------------------------------------

 SCF Done:  E(RwB97XD) =  -789.211971038     A.U. after    1 cycles

 The electronic state is 1-A.
 Alpha  occ. eigenvalues --  -19.20642 -14.46687 -10.35128 -10.33680 -10.31021
 Alpha  occ. eigenvalues --  -10.30381 -10.29645 -10.29139 -10.28993 -10.28937
 Alpha  occ. eigenvalues --  -10.28862 -10.28608 -10.28601 -10.28512 -10.28351
 Alpha  occ. eigenvalues --  -10.28262 -10.28241 -10.26884 -10.26226  -1.11246
 Alpha  occ. eigenvalues --   -1.02333  -0.96969  -0.96283  -0.90580  -0.86782
 Alpha  occ. eigenvalues --   -0.85032  -0.84635  -0.82567  -0.81229  -0.78033
 Alpha  occ. eigenvalues --   -0.74117  -0.70514  -0.70062  -0.68694  -0.67769
 Alpha  occ. eigenvalues --   -0.62444  -0.62154  -0.60964  -0.58255  -0.56200
 Alpha  occ. eigenvalues --   -0.55903  -0.54945  -0.54405  -0.54236  -0.52812
 Alpha  occ. eigenvalues --   -0.52331  -0.51829  -0.51079  -0.50657  -0.50109
 Alpha  occ. eigenvalues --   -0.49012  -0.47828  -0.47207  -0.47021  -0.46279
 Alpha  occ. eigenvalues --   -0.45205  -0.43855  -0.43537  -0.42307  -0.41948
 Alpha  occ. eigenvalues --   -0.41715  -0.40577  -0.34533  -0.33682  -0.33368
 Alpha  occ. eigenvalues --   -0.33305  -0.31710  -0.26418
 Alpha virt. eigenvalues --    0.02210   0.04959   0.05340   0.05659   0.06903
 Alpha virt. eigenvalues --    0.10687   0.12450   0.13064   0.14025   0.14454
 Alpha virt. eigenvalues --    0.15152   0.15694   0.16425   0.16791   0.17660

 Mulliken charges:
               1
     1  C   -0.158767
     2  C    0.301555
     3  O   -0.526106
     4  C   -0.121090
     5  C   -0.277478
     6  H    0.149209
     7  H    0.145773
     8  H    0.143604
     9  N   -0.357292
    10  H    0.276478
    11  H    0.270918
    12  H    0.192506
    13  C    0.284335
    14  C   -0.245307
    15  C   -0.147957
    16  C   -0.157157
    17  C   -0.139003
    18  C   -0.288165
    19  H    0.140282
    20  H    0.142069
    21  H    0.143254
    22  H    0.140844
    23  H    0.168901
    24  C    0.147203
    25  C   -0.258681
    26  C   -0.159075
    27  C   -0.155475
    28  C   -0.139233
    29  C   -0.263650
    30  H    0.163703
    31  H    0.136931
    32  H    0.140131
    33  H    0.137915
    34  H    0.158526
    35  C   -0.406089
    36  H    0.137750
    37  H    0.141032
    38  H    0.137602
 Sum of Mulliken charges =  -0.00000

 Dipole moment (field-independent basis, Debye):
    X=              0.3367    Y=              2.4863    Z=              5.4997  Tot=              6.0450
 Quadrupole moment (field-independent basis, Debye-Ang):
   XX=           -104.1030   YY=           -112.1228   ZZ=           -105.4493
   XY=              5.1776   XZ=              2.3106   YZ=             -5.8242

  Exact polarizability: 368.585  -4.968 309.410  -0.887   3.464 229.699
 Approx polarizability: 274.590  -5.033 261.202  -3.976  -0.011 187.844

 ******    1 imaginary frequencies (negative Signs) ******

                      1                      2                      3
                      A                      A                      A
 Frequencies --   -345.7450                23.6472                42.0344
 Red. masses --      5.5642                 3.9109                 3.3627
 Frc consts  --      0.3919                 0.0013                 0.0035
 IR Inten    --    762.0522                 1.0108                 1.0328

                      4                      5                      6
                      A                      A                      A
 Frequencies --     49.1725                56.8430                71.8457
 Red. masses --      3.1391                 3.2415                 3.8836
 Frc consts  --      0.0045                 0.0062                 0.0118
 IR Inten    --      7.5715                 2.8754                 3.6691

                      7                      8                      9
                      A                      A                      A
 Frequencies --     89.1829               101.4805               119.3782
 Red. masses --      3.5691                 3.2299                 3.1036
 Frc consts  --      0.0167                 0.0196                 0.0261
 IR Inten    --      5.1940                12.0871                11.5203

                     10                     11                     12
                      A                      A                      A
 Frequencies --    140.0181               155.0023               185.4238
 Red. masses --      1.0894                 3.3591                 1.4359
 Frc consts  --      0.0126                 0.0476                 0.0291
 IR Inten    --      0.3007                 3.9869                 7.0181

                     13                     14                     15
                      A                      A                      A
 Frequencies --    200.0095               223.7261               257.9969
 Red. masses --      3.8715                 3.9465                 3.5215
 Frc consts  --      0.0912                 0.1164                 0.1381
 IR Inten    --      5.3719                 7.0047                 7.3368

                     16                     17                     18
                      A                      A                      A
 Frequencies --    270.3787               290.4196               355.6485
 Red. masses --      4.2718                 3.9427                 4.6507
 Frc consts  --      0.1840                 0.1959                 0.3466
 IR Inten    --      5.8848                12.3451                44.3250

                     19                     20                     21
                      A                      A                      A
 Frequencies --    400.3578               424.0968               429.4296
 Red. masses --      4.5336                 2.9157                 2.9393
 Frc consts  --      0.4281                 0.3090                 0.3194
 IR Inten    --     15.1591                 0.6942                 0.5701

                     22                     23                     24
                      A                      A                      A
 Frequencies --    457.7961               495.2746               538.2122
 Red. masses --      3.8995                 2.7685                 2.6683
 Frc consts  --      0.4815                 0.4001                 0.4554
 IR Inten    --     15.7010                30.9861                20.2126

                     25                     26                     27
                      A                      A                      A
 Frequencies --    554.8845               599.1756               611.0545
 Red. masses --      3.1810                 1.9734                 4.8170
 Frc consts  --      0.5771                 0.4174                 1.0597
 IR Inten    --     84.1054                31.9441                49.3404

                     28                     29                     30
                      A                      A                      A
 Frequencies --    637.2895               638.8476               684.4448
 Red. masses --      6.0089                 6.2658                 3.5794
 Frc consts  --      1.4379                 1.5067                 0.9880
 IR Inten    --      4.1391                 3.2100                20.2038

                     31                     32                     33
                      A                      A                      A
 Frequencies --    696.7037               725.6714               730.4318
 Red. masses --      4.2166                 1.6059                 1.6536
 Frc consts  --      1.2059                 0.4983                 0.5198
 IR Inten    --     20.2721                86.1249               108.1600

                     34                     35                     36
                      A                      A                      A
 Frequencies --    742.0719               790.7715               803.5021
 Red. masses --      3.2486                 2.3340                 2.1504
 Frc consts  --      1.0540                 0.8599                 0.8180
 IR Inten    --     20.7950                21.4934                15.1126

                     37                     38                     39
                      A                      A                      A
 Frequencies --    853.3291               877.7620               879.0451
 Red. masses --      3.8592                 1.2570                 1.2466
 Frc consts  --      1.6557                 0.5706                 0.5676
 IR Inten    --      6.8094                 1.6376                 1.6421

                     40                     41                     42
                      A                      A                      A
 Frequencies --    950.2743               962.8119               964.6081
 Red. masses --      1.4521                 1.3813                 1.1766
 Frc consts  --      0.7726                 0.7544                 0.6450
 IR Inten    --      0.9794                33.4222               125.0153

                     43                     44                     45
                      A                      A                      A
 Frequencies --    995.7094              1009.6995              1011.7200
 Red. masses --      2.0282                 1.4828                 1.5461
 Frc consts  --      1.1847                 0.8907                 0.9324
 IR Inten    --     11.7959                 6.9802                17.8325

                     46                     47                     48
                      A                      A                      A
 Frequencies --   1012.7103              1016.6445              1023.0618
 Red. masses --      1.5501                 1.4719                 1.3019
 Frc consts  --      0.9366                 0.8963                 0.8029
 IR Inten    --     23.1457                12.9409                 0.4385

                     49                     50                     51
                      A                      A                      A
 Frequencies --   1024.0033              1026.2499              1032.1638
 Red. masses --      5.4249                 3.8284                 1.4099
 Frc consts  --      3.3515                 2.3756                 0.8850
 IR Inten    --      1.1375                 1.7818                 5.1447

                     52                     53                     54
                      A                      A                      A
 Frequencies --   1046.3301              1065.6999              1067.1331
 Red. masses --      1.8252                 2.1176                 2.0688
 Frc consts  --      1.1773                 1.4170                 1.3881
 IR Inten    --     30.1894                20.7423                 2.7279

                     55                     56                     57
                      A                      A                      A
 Frequencies --   1088.9870              1108.8001              1115.5593
 Red. masses --      4.1196                 1.4987                 1.6076
 Frc consts  --      2.8784                 1.0856                 1.1787
 IR Inten    --     39.2530                 5.9530                38.5999

                     58                     59                     60
                      A                      A                      A
 Frequencies --   1133.3625              1175.2441              1181.9546
 Red. masses --      1.2334                 3.0046                 1.1413
 Frc consts  --      0.9335                 2.4451                 0.9394
 IR Inten    --     53.0514                 6.4884                 1.9049

                     61                     62                     63
                      A                      A                      A
 Frequencies --   1184.2908              1194.3740              1214.6755
 Red. masses --      1.1443                 1.4173                 1.1268
 Frc consts  --      0.9456                 1.1912                 0.9795
 IR Inten    --      1.0757                13.6676                 0.9396

                     64                     65                     66
                      A                      A                      A
 Frequencies --   1215.9581              1245.1642              1285.8945
 Red. masses --      1.1285                 2.6297                 2.6255
 Frc consts  --      0.9830                 2.4022                 2.5579
 IR Inten    --      5.0121                98.5185                34.3066

                     67                     68                     69
                      A                      A                      A
 Frequencies --   1309.9470              1340.3170              1345.4451
 Red. masses --      4.5169                 4.3191                 1.3471
 Frc consts  --      4.5666                 4.5715                 1.4368
 IR Inten    --     16.2911                13.4417                 7.3409

                     70                     71                     72
                      A                      A                      A
 Frequencies --   1360.4074              1366.4182              1382.4317
 Red. masses --      1.5688                 1.4072                 1.3156
 Frc consts  --      1.7106                 1.5480                 1.4814
 IR Inten    --     44.3085                23.2774                13.9971

                     73                     74                     75
                      A                      A                      A
 Frequencies --   1405.5017              1452.3665              1465.0372
 Red. masses --      2.3212                 1.4434                 1.5816
 Frc consts  --      2.7017                 1.7939                 2.0001
 IR Inten    --    639.3380                57.4537                42.4166

                     76                     77                     78
                      A                      A                      A
 Frequencies --   1469.5559              1474.9106              1489.0979
 Red. masses --      1.0628                 1.2710                 1.0484
 Frc consts  --      1.3523                 1.6290                 1.3697
 IR Inten    --     32.3881                92.1977                10.8667

                     79                     80                     81
                      A                      A                      A
 Frequencies --   1491.7890              1504.0339              1507.5677
 Red. masses --      2.1666                 1.1213                 1.9572
 Frc consts  --      2.8409                 1.4945                 2.6209
 IR Inten    --     37.8165                66.2641                98.8954

                     82                     83                     84
                      A                      A                      A
 Frequencies --   1541.5789              1542.9109              1634.2757
 Red. masses --      2.2915                 2.3922                 3.5703
 Frc consts  --      3.2085                 3.3553                 5.6183
 IR Inten    --    100.5158                 4.7031               402.3576

                     85                     86                     87
                      A                      A                      A
 Frequencies --   1641.1177              1647.7446              1650.3742
 Red. masses --      1.5121                 4.3151                 4.6141
 Frc consts  --      2.3994                 6.9028                 7.4045
 IR Inten    --     52.0930               173.8975                49.7862

                     88                     89                     90
                      A                      A                      A
 Frequencies --   1671.3756              1674.8152              3059.6657
 Red. masses --      5.9978                 5.9074                 1.0370
 Frc consts  --      9.8716                 9.7629                 5.7195
 IR Inten    --      8.7475                 5.8328                21.8254

                     91                     92                     93
                      A                      A                      A
 Frequencies --   3060.5063              3129.5698              3135.0269
 Red. masses --      1.0343                 1.1000                 1.1031
 Frc consts  --      5.7078                 6.3477                 6.3875
 IR Inten    --     51.2248                17.7806                16.8071

                     94                     95                     96
                      A                      A                      A
 Frequencies --   3156.3600              3161.6153              3167.4335
 Red. masses --      1.1049                 1.1029                 1.0876
 Frc consts  --      6.4855                 6.4955                 6.4290
 IR Inten    --     21.9334                27.3550                12.8625

                     97                     98                     99
                      A                      A                      A
 Frequencies --   3184.5713              3187.2991              3188.1085
 Red. masses --      1.0861                 1.0876                 1.0873
 Frc consts  --      6.4894                 6.5099                 6.5114
 IR Inten    --     11.4735                12.5421                 2.1572

                    100                    101                    102
                      A                      A                      A
 Frequencies --   3196.3979              3198.9752              3204.7999
 Red. masses --      1.0880                 1.0909                 1.0948
 Frc consts  --      6.5497                 6.5776                 6.6252
 IR Inten    --      1.4594                10.2302                52.9029

                    103                    104                    105
                      A                      A                      A
 Frequencies --   3207.0681              3217.8189              3219.8659
 Red. masses --      1.0930                 1.0986                 1.0981
 Frc consts  --      6.6237                 6.7022                 6.7077
 IR Inten    --     33.6156                24.1566                24.3334

                    106                    107                    108
                      A                      A                      A
 Frequencies --   3255.2134              3536.4893              3624.4147
 Red. masses --      1.0925                 1.0497                 1.0969
 Frc consts  --      6.8210                 7.7352                 8.4894
 IR Inten    --     11.8694                35.8770                43.1554

 - Thermochemistry -
 -------------------
 Temperature   298.150 Kelvin.  Pressure   1.00000 Atm.
 Atom     1 has atomic number  6 and mass  12.00000

 Molecular mass:   253.14666 amu.
 Principal axes and moments of inertia in atomic units:
                           1         2         3
     Eigenvalues --  2856.795187640.388838287.28839
           X            0.99999   0.00513   0.00017
           Y           -0.00513   0.99991  -0.01244
           Z           -0.00024   0.01244   0.99992
 This molecule is an asymmetric top.
 Rotational symmetry number  1.
 Warning -- assumption of classical behavior for rotation
           may cause significant error
 Rotational temperatures (Kelvin)      0.03032     0.01134     0.01045
 Rotational constants (GHZ):           0.63174     0.23621     0.21777
    1 imaginary frequencies ignored.
 Zero-point vibrational energy     843461.0 (Joules/Mol)
                                  201.59201 (Kcal/Mol)
 Warning -- explicit consideration of  26 degrees of freedom as
           vibrations may cause significant error
 Vibrational temperatures:     34.02    60.48    70.75    81.78   103.37
          (Kelvin)            128.31   146.01   171.76   201.45   223.01
                              266.78   287.77   321.89   371.20   389.01
                              417.85   511.70   576.03   610.18   617.85
                              658.67   712.59   774.37   798.35   862.08
                              879.17   916.92   919.16   984.76  1002.40
                             1044.08  1050.93  1067.68  1137.74  1156.06
                             1227.75  1262.90  1264.75  1367.23  1385.27
                             1387.86  1432.60  1452.73  1455.64  1457.06
                             1462.72  1471.96  1473.31  1476.54  1485.05
                             1505.44  1533.30  1535.37  1566.81  1595.32
                             1605.04  1630.66  1690.91  1700.57  1703.93
                             1718.44  1747.65  1749.49  1791.51  1850.12
                             1884.72  1928.42  1935.80  1957.32  1965.97
                             1989.01  2022.20  2089.63  2107.86  2114.36
                             2122.07  2142.48  2146.35  2163.97  2169.05
                             2217.99  2219.90  2351.36  2361.20  2370.74
                             2374.52  2404.74  2409.69  4402.18  4403.39
                             4502.75  4510.60  4541.30  4548.86  4557.23
                             4581.89  4585.81  4586.98  4598.90  4602.61
                             4610.99  4614.26  4629.72  4632.67  4683.53
                             5088.22  5214.72

 Zero-point correction=                           0.321257 (Hartree/Particle)
 Thermal correction to Energy=                    0.339247
 Thermal correction to Enthalpy=                  0.340191
 Thermal correction to Gibbs Free Energy=         0.273524
 Sum of electronic and zero-point Energies=           -788.890714
 Sum of electronic and thermal Energies=              -788.872724
 Sum of electronic and thermal Enthalpies=            -788.871780
 Sum of electronic and thermal Free Energies=         -788.938447

                     E (Thermal)             CV                S
                      KCal/Mol        Cal/Mol-Kelvin    Cal/Mol-Kelvin
 Total                  212.880             67.816            140.312
 Electronic               0.000              0.000              0.000
 Translational            0.889              2.981             42.487
 Rotational               0.889              2.981             33.558
 Vibrational            211.103             61.854             64.267
 Vibration     1          0.593              1.985              6.302
 Vibration     2          0.595              1.980              5.161
 Vibration     3          0.595              1.978              4.850
 Vibration     4          0.596              1.975              4.564
 Vibration     5          0.598              1.967              4.102
 Vibration     6          0.602              1.957              3.678
 Vibration     7          0.604              1.948              3.426
 Vibration     8          0.609              1.933              3.110
 Vibration     9          0.615              1.913              2.804
 Vibration    10          0.620              1.897              2.610
 Vibration    11          0.631              1.860              2.273
 Vibration    12          0.638              1.840              2.133
 Vibration    13          0.649              1.805              1.929
 Vibration    14          0.667              1.749              1.675
 Vibration    15          0.674              1.728              1.594
 Vibration    16          0.686              1.692              1.472
 Vibration    17          0.731              1.564              1.141
 Vibration    18          0.766              1.469              0.961
 Vibration    19          0.786              1.418              0.878
 Vibration    20          0.791              1.406              0.861
 Vibration    21          0.816              1.344              0.773
 Vibration    22          0.851              1.260              0.670
 Vibration    23          0.893              1.166              0.569
 Vibration    24          0.910              1.129              0.534
 Vibration    25          0.957              1.034              0.451
 Vibration    26          0.970              1.008              0.431

 Optimization completed.
    -- Stationary point found.
 Normal termination of Gaussian 16 at Mon Mar 29 16:19:43 2021.
