 Gaussian 16, Revision A.03,
 Gaussian 16:  ES64L-G16RevA.03 25-Dec-2016

 ----------------------------------------------------------------------
 # wB97XD def2tzvp, opt=(ts, noeigen, calcfc, maxcycles=70, maxstep=5),
  freq=noraman, scrf=(iefpcm, solvent=water)
 ----------------------------------------------------------------------

 ------------------------
 2_iteration/TS-220-2.out
 ------------------------
 Symbolic Z-matrix:
 Charge =  0 Multiplicity = 1

 SCF Done:  E(RwB97XD) =  -672.709714467     A.U. after   14 cycles
 Optimization completed.
    -- Stationary point found.
 Normal termination of Gaussian 16 at Thu Feb 11 08:57:53 2021.

 ---------------------------------------------------------------------
 #N Geom=AllCheck Guess=TCheck SCRF=Check GenChk RwB97XD/def2TZVP Freq
 ---------------------------------------------------------------------

 Structure from the checkpoint file:  "/beegfs/scratch/user/q/tla25/Gau-64646.chk"
 ------------------------
 2_iteration/TS-220-2.out
 ------------------------
 Charge =  0 Multiplicity = 1

                         Standard orientation:
 ---------------------------------------------------------------------
 Center     Atomic      Atomic             Coordinates (Angstroms)
 Number     Number       Type             X           Y           Z
 ---------------------------------------------------------------------
      1          6           0        1.166040    0.395312    0.714639
      2          6           0        1.654321   -0.716417   -0.019321
      3          8           0        1.174522   -1.217028   -1.037611
      4          6           0       -0.086181    0.972741    0.420029
      5          6           0        1.131326    2.908572   -1.120361
      6          1           0        1.307995    3.377583   -2.087771
      7          1           0        0.940265    3.677262   -0.373701
      8          1           0        2.014647    2.341604   -0.827241
      9          7           0       -0.000623    1.990761   -1.163181
     10          1           0       -0.880323    2.469399   -1.319231
     11          1           0        0.118928    1.300021   -1.894951
     12          1           0       -0.288142    1.821340    1.068959
     13          6           0       -1.367150    0.219449    0.199829
     14          6           0       -1.671169   -0.555142   -0.917141
     15          6           0       -2.889088   -1.213863   -1.010981
     16          6           0       -3.824718   -1.116975    0.007969
     17          6           0       -3.537159   -0.343334    1.123119
     18          6           0       -2.325370    0.323477    1.209519
     19          1           0       -0.943239   -0.665661   -1.705881
     20          1           0       -3.104847   -1.810074   -1.889041
     21          1           0       -4.772278   -1.635176   -0.068531
     22          1           0       -4.259859   -0.250305    1.924109
     23          1           0       -2.115171    0.934298    2.080149
     24          6           0        2.064069    1.060564    1.735029
     25          1           0        1.599247    1.974813    2.109259
     26          1           0        2.257080    0.420484    2.601409
     27          1           0        3.041678    1.336595    1.327579
     28          8           0        2.818452   -1.216905    0.495199
     29          6           0        3.416903   -2.282045   -0.222061
     30          1           0        4.329684   -2.530023    0.315689
     31          1           0        2.763055   -3.154775   -0.257471
     32          1           0        3.660913   -1.985284   -1.243421
 ---------------------------------------------------------------------

 SCF Done:  E(RwB97XD) =  -672.709714467     A.U. after    1 cycles

 The electronic state is 1-A.
 Alpha  occ. eigenvalues --  -19.26953 -19.19953 -14.48395 -10.37881 -10.33529
 Alpha  occ. eigenvalues --  -10.32046 -10.31512 -10.30151 -10.28930 -10.28852
 Alpha  occ. eigenvalues --  -10.28803 -10.28744 -10.28510 -10.26446 -10.24887
 Alpha  occ. eigenvalues --   -1.18000  -1.08354  -1.03905  -0.96706  -0.90216
 Alpha  occ. eigenvalues --   -0.85766  -0.84922  -0.80661  -0.79017  -0.76988
 Alpha  occ. eigenvalues --   -0.71825  -0.70102  -0.68176  -0.63657  -0.62319
 Alpha  occ. eigenvalues --   -0.61232  -0.57069  -0.56445  -0.55694  -0.55417
 Alpha  occ. eigenvalues --   -0.54849  -0.53743  -0.52179  -0.51184  -0.50274
 Alpha  occ. eigenvalues --   -0.49011  -0.48167  -0.47597  -0.46619  -0.46024
 Alpha  occ. eigenvalues --   -0.45581  -0.45260  -0.43243  -0.42913  -0.41809
 Alpha  occ. eigenvalues --   -0.41177  -0.37054  -0.34324  -0.33565  -0.32733
 Alpha  occ. eigenvalues --   -0.25584
 Alpha virt. eigenvalues --    0.04237   0.05474   0.08183   0.10445   0.12824
 Alpha virt. eigenvalues --    0.13299   0.13582   0.15020   0.16186   0.16613
 Alpha virt. eigenvalues --    0.16761   0.17343   0.18363   0.18848   0.18965

 Mulliken charges:
               1
     1  C   -0.248510
     2  C    0.404487
     3  O   -0.547405
     4  C   -0.060724
     5  C   -0.290345
     6  H    0.156514
     7  H    0.151036
     8  H    0.155671
     9  N   -0.293938
    10  H    0.283643
    11  H    0.279507
    12  H    0.156338
    13  C    0.261208
    14  C   -0.274984
    15  C   -0.144198
    16  C   -0.160874
    17  C   -0.145009
    18  C   -0.248428
    19  H    0.157690
    20  H    0.140633
    21  H    0.142412
    22  H    0.141560
    23  H    0.139040
    24  C   -0.353242
    25  H    0.115065
    26  H    0.112673
    27  H    0.108587
    28  O   -0.315215
    29  C   -0.190800
    30  H    0.131504
    31  H    0.118221
    32  H    0.117883
 Sum of Mulliken charges =  -0.00000

 Dipole moment (field-independent basis, Debye):
    X=             -2.0356    Y=              6.5468    Z=             -2.1512  Tot=              7.1855
 Quadrupole moment (field-independent basis, Debye-Ang):
   XX=            -86.0237   YY=            -77.6196   ZZ=            -86.8378
   XY=              0.9107   XZ=             -3.1684   YZ=             -5.0764

  Exact polarizability: 250.742   0.921 208.209   1.589  14.451 204.293
 Approx polarizability: 189.851   2.811 166.381   0.235  14.555 176.176

 ******    1 imaginary frequencies (negative Signs) ******

                      1                      2                      3
                      A                      A                      A
 Frequencies --   -370.1780                30.0069                48.2332
 Red. masses --      5.9609                 3.6381                 2.5929
 Frc consts  --      0.4813                 0.0019                 0.0036
 IR Inten    --    927.5418                 0.5760                 0.4159

                      4                      5                      6
                      A                      A                      A
 Frequencies --     58.2344                74.4978               106.3283
 Red. masses --      4.6551                 2.7011                 4.1428
 Frc consts  --      0.0093                 0.0088                 0.0276
 IR Inten    --     13.8332                16.3192                12.4508

                      7                      8                      9
                      A                      A                      A
 Frequencies --    129.9763               137.3502               151.6917
 Red. masses --      2.4166                 3.6831                 2.6673
 Frc consts  --      0.0241                 0.0409                 0.0362
 IR Inten    --     12.7827                 6.0778                 4.8027

                     10                     11                     12
                      A                      A                      A
 Frequencies --    157.7938               180.3623               196.7354
 Red. masses --      1.1081                 1.2122                 1.5255
 Frc consts  --      0.0163                 0.0232                 0.0348
 IR Inten    --      0.7062                 0.8389                 1.5741

                     13                     14                     15
                      A                      A                      A
 Frequencies --    220.5019               261.8539               282.4522
 Red. masses --      2.1078                 3.8009                 3.7022
 Frc consts  --      0.0604                 0.1536                 0.1740
 IR Inten    --      3.3123                12.6187                14.0311

                     16                     17                     18
                      A                      A                      A
 Frequencies --    309.3010               345.6500               362.6094
 Red. masses --      3.6927                 4.1073                 4.3158
 Frc consts  --      0.2081                 0.2891                 0.3343
 IR Inten    --     20.8168                23.1891                14.9139

                     19                     20                     21
                      A                      A                      A
 Frequencies --    424.5086               441.4318               534.4602
 Red. masses --      3.0244                 3.5385                 2.6931
 Frc consts  --      0.3211                 0.4062                 0.4532
 IR Inten    --      7.5187                34.6531               104.2860

                     22                     23                     24
                      A                      A                      A
 Frequencies --    562.6337               598.1821               639.0449
 Red. masses --      4.0071                 3.0446                 5.7143
 Frc consts  --      0.7474                 0.6419                 1.3749
 IR Inten    --     13.8851                47.1885                 1.1063

                     25                     26                     27
                      A                      A                      A
 Frequencies --    652.0721               727.5102               733.1026
 Red. masses --      4.6743                 1.6042                 2.1414
 Frc consts  --      1.1710                 0.5002                 0.6781
 IR Inten    --     30.4834               101.1655                12.9711

                     28                     29                     30
                      A                      A                      A
 Frequencies --    786.6118               798.8686               824.5544
 Red. masses --      2.7725                 5.1392                 3.7621
 Frc consts  --      1.0108                 1.9324                 1.5070
 IR Inten    --     68.6227                41.4342                34.7069

                     31                     32                     33
                      A                      A                      A
 Frequencies --    869.5870               876.6503               959.4404
 Red. masses --      3.8694                 1.2498                 1.4530
 Frc consts  --      1.7239                 0.5659                 0.7881
 IR Inten    --     16.3552                 0.3722                 2.7551

                     34                     35                     36
                      A                      A                      A
 Frequencies --    998.7413              1011.1848              1025.6915
 Red. masses --      1.1440                 1.3655                 2.6426
 Frc consts  --      0.6723                 0.8226                 1.6380
 IR Inten    --     51.1984                 4.3219                52.2566

                     37                     38                     39
                      A                      A                      A
 Frequencies --   1027.1130              1027.9070              1035.7090
 Red. masses --      2.1341                 1.3281                 1.2240
 Frc consts  --      1.3265                 0.8268                 0.7736
 IR Inten    --     74.5871                 7.3931                76.8130

                     40                     41                     42
                      A                      A                      A
 Frequencies --   1059.7724              1067.5703              1070.6986
 Red. masses --      2.5986                 1.7732                 1.9139
 Frc consts  --      1.7196                 1.1907                 1.2927
 IR Inten    --     13.4741                22.7834                 3.1932

                     43                     44                     45
                      A                      A                      A
 Frequencies --   1088.2949              1121.3070              1161.4088
 Red. masses --      4.8033                 1.6777                 4.0552
 Frc consts  --      3.3518                 1.2429                 3.2228
 IR Inten    --     37.7617                13.8065               353.4114

                     46                     47                     48
                      A                      A                      A
 Frequencies --   1180.1510              1181.8583              1185.8867
 Red. masses --      1.2637                 1.2752                 1.1536
 Frc consts  --      1.0370                 1.0495                 0.9559
 IR Inten    --     64.9073                25.9488                44.7046

                     49                     50                     51
                      A                      A                      A
 Frequencies --   1214.1518              1215.8820              1223.5130
 Red. masses --      1.5345                 1.2910                 1.3551
 Frc consts  --      1.3328                 1.1245                 1.1952
 IR Inten    --    172.1211                44.2654                30.2753

                     52                     53                     54
                      A                      A                      A
 Frequencies --   1241.1339              1254.9526              1335.9974
 Red. masses --      2.2741                 2.2520                 4.8386
 Frc consts  --      2.0639                 2.0897                 5.0884
 IR Inten    --     40.5259               215.1276                 9.0654

                     55                     56                     57
                      A                      A                      A
 Frequencies --   1348.3145              1373.3208              1398.2920
 Red. masses --      1.3505                 1.4099                 2.0988
 Frc consts  --      1.4465                 1.5667                 2.4178
 IR Inten    --      4.1303                21.8608               391.5867

                     58                     59                     60
                      A                      A                      A
 Frequencies --   1423.2346              1447.9226              1465.2375
 Red. masses --      1.2914                 1.3148                 1.8289
 Frc consts  --      1.5412                 1.6241                 2.3134
 IR Inten    --    101.6508                42.3595               109.5166

                     61                     62                     63
                      A                      A                      A
 Frequencies --   1473.1363              1478.9685              1481.9804
 Red. masses --      1.1185                 1.1609                 1.0828
 Frc consts  --      1.4301                 1.4961                 1.4011
 IR Inten    --     24.1456                53.0447                26.4806

                     64                     65                     66
                      A                      A                      A
 Frequencies --   1494.1571              1498.4858              1501.6857
 Red. masses --      1.0428                 1.0543                 1.1416
 Frc consts  --      1.3716                 1.3948                 1.5167
 IR Inten    --     26.0258                13.7465                17.5553

                     67                     68                     69
                      A                      A                      A
 Frequencies --   1505.6491              1511.1251              1546.5212
 Red. masses --      1.5340                 1.3306                 2.3343
 Frc consts  --      2.0489                 1.7902                 3.2894
 IR Inten    --      5.9619               234.1886                32.1345

                     70                     71                     72
                      A                      A                      A
 Frequencies --   1643.3956              1651.8760              1671.7322
 Red. masses --      1.1056                 5.5783                 8.6249
 Frc consts  --      1.7593                 8.9682                14.2016
 IR Inten    --     97.5817                 9.2589               531.4303

                     73                     74                     75
                      A                      A                      A
 Frequencies --   1675.7805              3020.3726              3052.5066
 Red. masses --      5.8676                 1.0379                 1.0311
 Frc consts  --      9.7083                 5.5784                 5.6608
 IR Inten    --     16.6447               126.6112                76.0103

                     76                     77                     78
                      A                      A                      A
 Frequencies --   3063.8907              3069.0130              3108.6789
 Red. masses --      1.1014                 1.0326                 1.0989
 Frc consts  --      6.0919                 5.7302                 6.2567
 IR Inten    --     60.8217                49.0270                40.8934

                     79                     80                     81
                      A                      A                      A
 Frequencies --   3122.7679              3140.5567              3149.2161
 Red. masses --      1.1060                 1.0875                 1.1052
 Frc consts  --      6.3544                 6.3197                 6.4578
 IR Inten    --     50.2222                28.6076                 9.8091

                     82                     83                     84
                      A                      A                      A
 Frequencies --   3157.9782              3162.9298              3185.9224
 Red. masses --      1.1045                 1.1059                 1.0875
 Frc consts  --      6.4900                 6.5185                 6.5033
 IR Inten    --     34.8946                16.8298                 9.7879

                     85                     86                     87
                      A                      A                      A
 Frequencies --   3195.2894              3205.4436              3218.2722
 Red. masses --      1.0880                 1.0931                 1.0980
 Frc consts  --      6.5450                 6.6173                 6.7006
 IR Inten    --      1.2169                35.6379                25.6925

                     88                     89                     90
                      A                      A                      A
 Frequencies --   3255.0623              3525.3611              3609.7270
 Red. masses --      1.0917                 1.0503                 1.0966
 Frc consts  --      6.8148                 7.6908                 8.4184
 IR Inten    --      4.3542                33.6838                47.1125

 - Thermochemistry -
 -------------------
 Temperature   298.150 Kelvin.  Pressure   1.00000 Atm.
 Atom     1 has atomic number  6 and mass  12.00000

 Molecular mass:   207.12593 amu.
 Principal axes and moments of inertia in atomic units:
                           1         2         3
     Eigenvalues --  2183.643704533.111695311.06480
           X            0.99998   0.00694   0.00056
           Y           -0.00695   0.99995   0.00688
           Z           -0.00052  -0.00689   0.99998
 This molecule is an asymmetric top.
 Rotational symmetry number  1.
 Warning -- assumption of classical behavior for rotation
           may cause significant error
 Rotational temperatures (Kelvin)      0.03966     0.01911     0.01631
 Rotational constants (GHZ):           0.82648     0.39812     0.33981
    1 imaginary frequencies ignored.
 Zero-point vibrational energy     718028.4 (Joules/Mol)
                                  171.61290 (Kcal/Mol)
 Warning -- explicit consideration of  22 degrees of freedom as
           vibrations may cause significant error
 Vibrational temperatures:     43.17    69.40    83.79   107.19   152.98
          (Kelvin)            187.01   197.62   218.25   227.03   259.50
                              283.06   317.25   376.75   406.39   445.02
                              497.31   521.71   610.77   635.12   768.97
                              809.50   860.65   919.44   938.19  1046.72
                             1054.77  1131.76  1149.39  1186.35  1251.14
                             1261.30  1380.42  1436.97  1454.87  1475.74
                             1477.79  1478.93  1490.15  1524.78  1536.00
                             1540.50  1565.81  1613.31  1671.01  1697.97
                             1700.43  1706.23  1746.89  1749.38  1760.36
                             1785.71  1805.60  1922.20  1939.92  1975.90
                             2011.83  2047.72  2083.24  2108.15  2119.51
                             2127.91  2132.24  2149.76  2155.99  2160.59
                             2166.29  2174.17  2225.10  2364.48  2376.68
                             2405.25  2411.07  4345.64  4391.88  4408.26
                             4415.63  4472.70  4492.97  4518.56  4531.02
                             4543.63  4550.75  4583.83  4597.31  4611.92
                             4630.38  4683.31  5072.21  5193.59

 Zero-point correction=                           0.273483 (Hartree/Particle)
 Thermal correction to Energy=                    0.289258
 Thermal correction to Enthalpy=                  0.290202
 Thermal correction to Gibbs Free Energy=         0.229306
 Sum of electronic and zero-point Energies=           -672.436232
 Sum of electronic and thermal Energies=              -672.420457
 Sum of electronic and thermal Enthalpies=            -672.419513
 Sum of electronic and thermal Free Energies=         -672.480409

                     E (Thermal)             CV                S
                      KCal/Mol        Cal/Mol-Kelvin    Cal/Mol-Kelvin
 Total                  181.512             57.200            128.167
 Electronic               0.000              0.000              0.000
 Translational            0.889              2.981             41.888
 Rotational               0.889              2.981             32.330
 Vibrational            179.735             51.238             53.948
 Vibration     1          0.594              1.984              5.829
 Vibration     2          0.595              1.978              4.889
 Vibration     3          0.596              1.974              4.516
 Vibration     4          0.599              1.966              4.031
 Vibration     5          0.605              1.944              3.335
 Vibration     6          0.612              1.923              2.946
 Vibration     7          0.614              1.916              2.840
 Vibration     8          0.619              1.901              2.651
 Vibration     9          0.621              1.894              2.576
 Vibration    10          0.629              1.866              2.325
 Vibration    11          0.636              1.844              2.163
 Vibration    12          0.647              1.810              1.955
 Vibration    13          0.669              1.743              1.649
 Vibration    14          0.681              1.706              1.519
 Vibration    15          0.699              1.656              1.366
 Vibration    16          0.724              1.584              1.186
 Vibration    17          0.736              1.549              1.111
 Vibration    18          0.787              1.417              0.877
 Vibration    19          0.801              1.380              0.822
 Vibration    20          0.889              1.174              0.577
 Vibration    21          0.918              1.112              0.519
 Vibration    22          0.956              1.036              0.453

 Optimization completed.
    -- Stationary point found.
 Normal termination of Gaussian 16 at Thu Feb 11 09:59:23 2021.
