 Gaussian 16, Revision A.03,
 Gaussian 16:  ES64L-G16RevA.03 25-Dec-2016

 ----------------------------------------------------------------------
 # wB97XD def2tzvp, opt=(ts, noeigen, calcfc, maxcycles=70, maxstep=5),
  freq=noraman, scrf=(iefpcm, solvent=water)
 ----------------------------------------------------------------------

 ------------------------
 2_iteration/TS-229-2.out
 ------------------------
 Symbolic Z-matrix:
 Charge =  0 Multiplicity = 1

 SCF Done:  E(RwB97XD) =  -3187.14695023     A.U. after   15 cycles
 SCF Done:  E(RwB97XD) =  -3187.14696745     A.U. after   10 cycles
 SCF Done:  E(RwB97XD) =  -3187.14696859     A.U. after    9 cycles
 SCF Done:  E(RwB97XD) =  -3187.14696859     A.U. after    8 cycles
 SCF Done:  E(RwB97XD) =  -3187.14696863     A.U. after    6 cycles
 Optimization completed.
    -- Stationary point found.
 Normal termination of Gaussian 16 at Thu Feb 11 09:47:11 2021.

 ---------------------------------------------------------------------
 #N Geom=AllCheck Guess=TCheck SCRF=Check GenChk RwB97XD/def2TZVP Freq
 ---------------------------------------------------------------------

 Structure from the checkpoint file:  "/beegfs/scratch/user/q/tla25/Gau-6015.chk"
 ------------------------
 2_iteration/TS-229-2.out
 ------------------------
 Charge =  0 Multiplicity = 1

                         Standard orientation:
 ---------------------------------------------------------------------
 Center     Atomic      Atomic             Coordinates (Angstroms)
 Number     Number       Type             X           Y           Z
 ---------------------------------------------------------------------
      1          6           0        0.745335   -0.100641   -0.274568
      2          6           0        1.054898    1.159999    0.357913
      3          8           0        0.295763    1.638468    1.222654
      4          6           0       -0.433470   -0.804354   -0.025579
      5          6           0        0.691278   -1.803313    2.384457
      6          1           0        1.554822   -1.298638    1.950982
      7          1           0        0.761501   -1.747930    3.471528
      8          1           0        0.700376   -2.846810    2.074402
      9          7           0       -0.514493   -1.159089    1.885934
     10          1           0       -1.358601   -1.639882    2.169677
     11          1           0       -0.562559   -0.186296    2.178205
     12          1           0       -0.398544   -1.840112   -0.347992
     13          6           0       -1.811034   -0.239429   -0.197225
     14          6           0       -2.039612    1.052924   -0.658857
     15          6           0       -3.331521    1.511766   -0.863657
     16          6           0       -4.417980    0.683229   -0.621215
     17          6           0       -4.202277   -0.615369   -0.183537
     18          6           0       -2.909497   -1.070661    0.019806
     19          1           0       -1.200783    1.701474   -0.865879
     20          1           0       -3.489334    2.521519   -1.221368
     21          1           0       -5.425833    1.043306   -0.784481
     22          1           0       -5.039884   -1.278511   -0.008439
     23          1           0       -2.752993   -2.094677    0.340288
     24         35           0        2.191423   -1.100576   -1.066995
     25          7           0        2.195849    1.808834    0.024142
     26          6           0        2.578056    3.051962    0.648086
     27          1           0        2.769001    1.438339   -0.711238
     28          1           0        2.597405    2.952432    1.734446
     29          1           0        3.574732    3.320780    0.304287
     30          1           0        1.890238    3.862524    0.394903
 ---------------------------------------------------------------------

 SCF Done:  E(RwB97XD) =  -3187.14696863     A.U. after    1 cycles

 The electronic state is 1-A.
 Alpha  occ. eigenvalues -- -483.12096 -62.66929 -56.46025 -56.45707 -56.45689
 Alpha  occ. eigenvalues --  -19.20123 -14.47321 -14.44553 -10.37808 -10.34505
 Alpha  occ. eigenvalues --  -10.31247 -10.30673 -10.30519 -10.29970 -10.29362
 Alpha  occ. eigenvalues --  -10.29175 -10.29118 -10.29049 -10.28990  -8.81041
 Alpha  occ. eigenvalues --   -6.63127  -6.62110  -6.62054  -2.73525  -2.73240
 Alpha  occ. eigenvalues --   -2.73194  -2.72372  -2.72371  -1.12723  -1.03012
 Alpha  occ. eigenvalues --   -1.01271  -0.97142  -0.92199  -0.87511  -0.85318
 Alpha  occ. eigenvalues --   -0.81624  -0.80421  -0.78212  -0.72889  -0.70493
 Alpha  occ. eigenvalues --   -0.68534  -0.66018  -0.62690  -0.61951  -0.57871
 Alpha  occ. eigenvalues --   -0.56493  -0.55708  -0.54987  -0.54060  -0.53565
 Alpha  occ. eigenvalues --   -0.52730  -0.51346  -0.50702  -0.49282  -0.47709
 Alpha  occ. eigenvalues --   -0.47459  -0.47282  -0.46533  -0.46006  -0.43437
 Alpha  occ. eigenvalues --   -0.42882  -0.42147  -0.39099  -0.37598  -0.34665
 Alpha  occ. eigenvalues --   -0.33709  -0.33183  -0.32735  -0.26380
 Alpha virt. eigenvalues --    0.01991   0.05266   0.07014   0.09860   0.10776
 Alpha virt. eigenvalues --    0.12610   0.13621   0.14349   0.15136   0.15773
 Alpha virt. eigenvalues --    0.16365   0.16864   0.17483   0.17876   0.19113

 Mulliken charges:
               1
     1  C   -0.265314
     2  C    0.362428
     3  O   -0.574527
     4  C    0.075456
     5  C   -0.282247
     6  H    0.150637
     7  H    0.149281
     8  H    0.150287
     9  N   -0.336636
    10  H    0.273477
    11  H    0.275392
    12  H    0.169938
    13  C    0.132622
    14  C   -0.203015
    15  C   -0.126699
    16  C   -0.153699
    17  C   -0.134052
    18  C   -0.301964
    19  H    0.160346
    20  H    0.142405
    21  H    0.144952
    22  H    0.144063
    23  H    0.160121
    24  Br  -0.182780
    25  N   -0.328258
    26  C   -0.246877
    27  H    0.252241
    28  H    0.126893
    29  H    0.140449
    30  H    0.125079
 Sum of Mulliken charges =  -0.00000

 Dipole moment (field-independent basis, Debye):
    X=             -1.5136    Y=             -3.0389    Z=              2.7424  Tot=              4.3642
 Quadrupole moment (field-independent basis, Debye-Ang):
   XX=            -89.9256   YY=            -93.9048   ZZ=           -100.2367
   XY=              9.9788   XZ=             -0.5648   YZ=            -13.5042

  Exact polarizability: 288.193   9.247 245.224 -13.053 -17.366 191.071
 Approx polarizability: 217.923   4.399 200.862 -12.540 -11.566 163.122

 ******    1 imaginary frequencies (negative Signs) ******

                      1                      2                      3
                      A                      A                      A
 Frequencies --   -376.9451                40.3118                53.3056
 Red. masses --      5.6741                 4.0308                 3.6702
 Frc consts  --      0.4750                 0.0039                 0.0061
 IR Inten    --    735.5244                 0.7725                 6.5497

                      4                      5                      6
                      A                      A                      A
 Frequencies --     68.7432                73.7557                82.0813
 Red. masses --      5.1519                 1.4701                 2.9775
 Frc consts  --      0.0143                 0.0047                 0.0118
 IR Inten    --      3.6105                 5.0142                 3.5998

                      7                      8                      9
                      A                      A                      A
 Frequencies --    101.7909               121.8571               138.1976
 Red. masses --      2.9333                 2.1083                 2.9668
 Frc consts  --      0.0179                 0.0184                 0.0334
 IR Inten    --      4.1834                 0.3386                32.0439

                     10                     11                     12
                      A                      A                      A
 Frequencies --    154.9303               173.0309               199.2830
 Red. masses --      5.8794                 2.9747                 3.7314
 Frc consts  --      0.0831                 0.0525                 0.0873
 IR Inten    --     38.3903                 3.2737                 4.4135

                     13                     14                     15
                      A                      A                      A
 Frequencies --    212.4141               257.9379               278.3334
 Red. masses --      1.5437                 3.4912                 5.4327
 Frc consts  --      0.0410                 0.1369                 0.2480
 IR Inten    --     14.4670                 6.5840                10.6972

                     16                     17                     18
                      A                      A                      A
 Frequencies --    290.1777               319.6612               389.3183
 Red. masses --      4.2420                 4.6004                 1.3455
 Frc consts  --      0.2104                 0.2770                 0.1202
 IR Inten    --      5.0577                42.8260                62.1302

                     19                     20                     21
                      A                      A                      A
 Frequencies --    402.1782               428.3673               440.6408
 Red. masses --      6.0047                 2.9647                 2.8114
 Frc consts  --      0.5722                 0.3205                 0.3216
 IR Inten    --     25.6395                 0.2727                79.5187

                     22                     23                     24
                      A                      A                      A
 Frequencies --    532.1247               589.0796               621.2287
 Red. masses --      2.9616                 3.5734                 5.7196
 Frc consts  --      0.4941                 0.7306                 1.3005
 IR Inten    --     92.9681                31.1211                13.9101

                     25                     26                     27
                      A                      A                      A
 Frequencies --    638.6072               693.1153               730.6536
 Red. masses --      5.5968                 1.7841                 1.7390
 Frc consts  --      1.3448                 0.5050                 0.5470
 IR Inten    --      1.4130                80.7271                74.1951

                     28                     29                     30
                      A                      A                      A
 Frequencies --    776.7086               784.5749               816.6959
 Red. masses --      4.0020                 2.8564                 3.9055
 Frc consts  --      1.4225                 1.0360                 1.5348
 IR Inten    --     65.3086                15.3887                46.6846

                     31                     32                     33
                      A                      A                      A
 Frequencies --    849.2895               883.1916               967.0670
 Red. masses --      3.9332                 1.2439                 1.4655
 Frc consts  --      1.6715                 0.5716                 0.8075
 IR Inten    --      5.5347                 0.5783                10.8015

                     34                     35                     36
                      A                      A                      A
 Frequencies --    984.6108               995.6066              1019.0181
 Red. masses --      2.7082                 1.1197                 1.3365
 Frc consts  --      1.5469                 0.6539                 0.8177
 IR Inten    --     20.1882                96.6590                 3.6001

                     37                     38                     39
                      A                      A                      A
 Frequencies --   1027.3576              1031.9863              1054.5952
 Red. masses --      4.5216                 1.4029                 1.2396
 Frc consts  --      2.8118                 0.8803                 0.8123
 IR Inten    --      0.6964                 2.6515                47.3097

                     40                     41                     42
                      A                      A                      A
 Frequencies --   1065.4261              1088.2168              1104.4455
 Red. masses --      2.1907                 3.7782                 1.6614
 Frc consts  --      1.4652                 2.6361                 1.1940
 IR Inten    --      9.2418                92.3431                20.3364

                     43                     44                     45
                      A                      A                      A
 Frequencies --   1119.7451              1126.3176              1157.0165
 Red. masses --      1.7422                 1.7439                 1.2861
 Frc consts  --      1.2870                 1.3034                 1.0144
 IR Inten    --     44.3683                 1.4975                 2.2027

                     46                     47                     48
                      A                      A                      A
 Frequencies --   1184.1106              1186.3511              1207.3467
 Red. masses --      1.1471                 1.7120                 1.4077
 Frc consts  --      0.9476                 1.4196                 1.2090
 IR Inten    --      1.2242                31.6772                33.8584

                     49                     50                     51
                      A                      A                      A
 Frequencies --   1218.5097              1221.4887              1276.2907
 Red. masses --      1.2005                 2.5976                 1.7448
 Frc consts  --      1.0502                 2.2835                 1.6746
 IR Inten    --      3.5496                12.3032               102.5448

                     52                     53                     54
                      A                      A                      A
 Frequencies --   1323.7458              1353.3837              1359.3886
 Red. masses --      3.7241                 1.3116                 2.2643
 Frc consts  --      3.8448                 1.4154                 2.4653
 IR Inten    --    143.5714                 4.1254               278.8101

                     55                     56                     57
                      A                      A                      A
 Frequencies --   1372.2306              1445.2544              1455.5198
 Red. masses --      1.4602                 1.8854                 1.2262
 Frc consts  --      1.6201                 2.3203                 1.5306
 IR Inten    --    128.2531               176.6532                29.1761

                     58                     59                     60
                      A                      A                      A
 Frequencies --   1466.5124              1476.1148              1491.1162
 Red. masses --      1.5139                 1.0605                 1.0402
 Frc consts  --      1.9183                 1.3615                 1.3627
 IR Inten    --     44.7416                16.6969                16.6806

                     61                     62                     63
                      A                      A                      A
 Frequencies --   1503.3137              1506.3300              1507.6374
 Red. masses --      1.8988                 1.1476                 1.0846
 Frc consts  --      2.5282                 1.5341                 1.4525
 IR Inten    --    109.2182                11.0615                19.1628

                     64                     65                     66
                      A                      A                      A
 Frequencies --   1548.2164              1563.6905              1617.2821
 Red. masses --      2.3294                 2.0700                 2.9484
 Frc consts  --      3.2897                 2.9821                 4.5437
 IR Inten    --     18.7678               790.7761               427.7223

                     67                     68                     69
                      A                      A                      A
 Frequencies --   1647.6946              1655.4403              1676.0216
 Red. masses --      1.3990                 5.3909                 5.7751
 Frc consts  --      2.2378                 8.7043                 9.5581
 IR Inten    --     17.5377                 5.8974                 1.2046

                     70                     71                     72
                      A                      A                      A
 Frequencies --   3046.9707              3063.2735              3106.1253
 Red. masses --      1.0378                 1.0334                 1.1016
 Frc consts  --      5.6769                 5.7132                 6.2618
 IR Inten    --     85.4458                48.9145                43.7234

                     73                     74                     75
                      A                      A                      A
 Frequencies --   3137.9105              3158.9581              3159.7737
 Red. masses --      1.1039                 1.1016                 1.1054
 Frc consts  --      6.4039                 6.4766                 6.5023
 IR Inten    --     15.9161                23.8470                19.9074

                     76                     77                     78
                      A                      A                      A
 Frequencies --   3172.3136              3184.5796              3197.2969
 Red. masses --      1.0885                 1.0885                 1.0876
 Frc consts  --      6.4543                 6.5040                 6.5508
 IR Inten    --      3.9258                11.7380                 0.5105

                     79                     80                     81
                      A                      A                      A
 Frequencies --   3207.9923              3220.2225              3250.1006
 Red. masses --      1.0927                 1.0979                 1.0915
 Frc consts  --      6.6255                 6.7077                 6.7928
 IR Inten    --     27.6529                26.6418                 7.7841

                     82                     83                     84
                      A                      A                      A
 Frequencies --   3490.7913              3604.5749              3683.8534
 Red. masses --      1.0553                 1.0923                 1.0780
 Frc consts  --      7.5763                 8.3616                 8.6192
 IR Inten    --     40.9973                78.4903                83.5623

 - Thermochemistry -
 -------------------
 Temperature   298.150 Kelvin.  Pressure   1.00000 Atm.
 Atom     1 has atomic number  6 and mass  12.00000

 Molecular mass:   270.03677 amu.
 Principal axes and moments of inertia in atomic units:
                           1         2         3
     Eigenvalues --  2878.963856192.674456998.27663
           X            0.99833   0.05168   0.02585
           Y           -0.04847   0.99250  -0.11226
           Z           -0.03146   0.11082   0.99334
 This molecule is an asymmetric top.
 Rotational symmetry number  1.
 Warning -- assumption of classical behavior for rotation
           may cause significant error
 Rotational temperatures (Kelvin)      0.03009     0.01399     0.01238
 Rotational constants (GHZ):           0.62687     0.29143     0.25788
    1 imaginary frequencies ignored.
 Zero-point vibrational energy     650952.3 (Joules/Mol)
                                  155.58133 (Kcal/Mol)
 Warning -- explicit consideration of  22 degrees of freedom as
           vibrations may cause significant error
 Vibrational temperatures:     58.00    76.69    98.91   106.12   118.10
          (Kelvin)            146.45   175.33   198.84   222.91   248.95
                              286.72   305.62   371.12   400.46   417.50
                              459.92   560.14   578.64   616.32   633.98
                              765.61   847.55   893.81   918.81   997.24
                             1051.25  1117.51  1128.83  1175.04  1221.94
                             1270.72  1391.39  1416.64  1432.46  1466.14
                             1478.14  1484.80  1517.33  1532.91  1565.70
                             1589.05  1611.06  1620.52  1664.69  1703.67
                             1706.89  1737.10  1753.16  1757.45  1836.30
                             1904.57  1947.22  1955.86  1974.33  2079.40
                             2094.17  2109.98  2123.80  2145.38  2162.93
                             2167.27  2169.15  2227.54  2249.80  2326.91
                             2370.67  2381.81  2411.42  4383.91  4407.37
                             4469.02  4514.75  4545.04  4546.21  4564.25
                             4581.90  4600.20  4615.59  4633.18  4676.17
                             5022.47  5186.18  5300.24

 Zero-point correction=                           0.247935 (Hartree/Particle)
 Thermal correction to Energy=                    0.263990
 Thermal correction to Enthalpy=                  0.264934
 Thermal correction to Gibbs Free Energy=         0.202745
 Sum of electronic and zero-point Energies=          -3186.899034
 Sum of electronic and thermal Energies=             -3186.882979
 Sum of electronic and thermal Enthalpies=           -3186.882035
 Sum of electronic and thermal Free Energies=        -3186.944224

                     E (Thermal)             CV                S
                      KCal/Mol        Cal/Mol-Kelvin    Cal/Mol-Kelvin
 Total                  165.656             57.266            130.888
 Electronic               0.000              0.000              0.000
 Translational            0.889              2.981             42.679
 Rotational               0.889              2.981             33.189
 Vibrational            163.879             51.305             55.020
 Vibration     1          0.594              1.981              5.244
 Vibration     2          0.596              1.976              4.691
 Vibration     3          0.598              1.969              4.189
 Vibration     4          0.599              1.966              4.051
 Vibration     5          0.600              1.961              3.840
 Vibration     6          0.604              1.948              3.420
 Vibration     7          0.609              1.931              3.071
 Vibration     8          0.614              1.915              2.829
 Vibration     9          0.620              1.897              2.611
 Vibration    10          0.627              1.876              2.402
 Vibration    11          0.637              1.841              2.140
 Vibration    12          0.643              1.822              2.023
 Vibration    13          0.667              1.749              1.676
 Vibration    14          0.679              1.714              1.544
 Vibration    15          0.686              1.692              1.473
 Vibration    16          0.706              1.636              1.312
 Vibration    17          0.757              1.493              1.003
 Vibration    18          0.768              1.465              0.955
 Vibration    19          0.790              1.408              0.864
 Vibration    20          0.801              1.382              0.825
 Vibration    21          0.887              1.179              0.582
 Vibration    22          0.946              1.055              0.469

 Optimization completed.
    -- Stationary point found.
 Normal termination of Gaussian 16 at Thu Feb 11 10:48:00 2021.
