 Gaussian 16, Revision A.03,
 Gaussian 16:  ES64L-G16RevA.03 25-Dec-2016

 ----------------------------------------------------------------------
 # wB97XD def2tzvp, opt=(ts, noeigen, calcfc, maxcycles=70, maxstep=5),
  freq=noraman, scrf=(iefpcm, solvent=water)
 ----------------------------------------------------------------------

 ------------------------
 2_iteration/TS-255-2.out
 ------------------------
 Symbolic Z-matrix:
 Charge =  0 Multiplicity = 1

 SCF Done:  E(RwB97XD) =  -574.219252902     A.U. after   14 cycles
 SCF Done:  E(RwB97XD) =  -574.219252908     A.U. after    6 cycles
 Optimization completed.
    -- Stationary point found.
 Normal termination of Gaussian 16 at Thu Feb 11 01:42:12 2021.

 ---------------------------------------------------------------------
 #N Geom=AllCheck Guess=TCheck SCRF=Check GenChk RwB97XD/def2TZVP Freq
 ---------------------------------------------------------------------

 Structure from the checkpoint file:  "/beegfs/scratch/user/q/tla25/Gau-17627.chk"
 ------------------------
 2_iteration/TS-255-2.out
 ------------------------
 Charge =  0 Multiplicity = 1

                         Standard orientation:
 ---------------------------------------------------------------------
 Center     Atomic      Atomic             Coordinates (Angstroms)
 Number     Number       Type             X           Y           Z
 ---------------------------------------------------------------------
      1          6           0       -2.329252    1.174028   -0.449523
      2          6           0       -0.940518    1.291128   -0.130081
      3          8           0       -0.451017    2.311816    0.375339
      4          6           0       -2.978862    0.068665   -1.004389
      5          6           0       -2.653201   -1.457646    1.278263
      6          1           0       -2.192097   -0.529101    1.616781
      7          1           0       -3.108635   -1.965853    2.126992
      8          1           0       -1.888067   -2.097946    0.843442
      9          7           0       -3.641442   -1.126312    0.256053
     10          1           0       -3.985436   -1.952754   -0.220322
     11          1           0       -4.437962   -0.651486    0.665128
     12          1           0       -3.942025    0.250172   -1.468512
     13          1           0       -2.408145   -0.672244   -1.557803
     14          1           0       -2.921165    2.035474   -0.168419
     15          7           0       -0.128569    0.199291   -0.428664
     16          6           0        1.232290    0.002904   -0.213222
     17          6           0        1.762588   -1.241624   -0.577993
     18          6           0        3.104036   -1.523583   -0.398728
     19          6           0        3.956753   -0.574664    0.150740
     20          6           0        3.436088    0.657710    0.513619
     21          6           0        2.091878    0.956919    0.338789
     22          1           0       -0.592170   -0.591899   -0.838061
     23          1           0        1.109234   -1.993487   -1.006966
     24          1           0        3.484562   -2.494609   -0.691015
     25          1           0        5.007071   -0.793829    0.291934
     26          1           0        4.085109    1.411336    0.943542
     27          1           0        1.697126    1.917811    0.623994
 ---------------------------------------------------------------------

 SCF Done:  E(RwB97XD) =  -574.219252908     A.U. after    1 cycles

 The electronic state is 1-A.
 Alpha  occ. eigenvalues --  -19.19158 -14.48956 -14.45442 -10.37200 -10.33491
 Alpha  occ. eigenvalues --  -10.32907 -10.31767 -10.28809 -10.28628 -10.28474
 Alpha  occ. eigenvalues --  -10.27888 -10.27710 -10.24125  -1.11902  -1.04274
 Alpha  occ. eigenvalues --   -1.03017  -0.95026  -0.87419  -0.84752  -0.83400
 Alpha  occ. eigenvalues --   -0.79249  -0.74289  -0.71207  -0.69667  -0.64721
 Alpha  occ. eigenvalues --   -0.63728  -0.62257  -0.58475  -0.57538  -0.55963
 Alpha  occ. eigenvalues --   -0.54135  -0.53179  -0.52266  -0.51471  -0.50756
 Alpha  occ. eigenvalues --   -0.50308  -0.48285  -0.47762  -0.46045  -0.44814
 Alpha  occ. eigenvalues --   -0.44191  -0.43728  -0.42416  -0.38989  -0.33492
 Alpha  occ. eigenvalues --   -0.32838  -0.29901  -0.26132
 Alpha virt. eigenvalues --    0.05278   0.05626   0.08911   0.09958   0.12374
 Alpha virt. eigenvalues --    0.14154   0.14289   0.15474   0.16769   0.17716
 Alpha virt. eigenvalues --    0.18041   0.18093   0.18309   0.19022   0.19981

 Mulliken charges:
               1
     1  C   -0.444862
     2  C    0.381388
     3  O   -0.565530
     4  C   -0.220220
     5  C   -0.316033
     6  H    0.154786
     7  H    0.160372
     8  H    0.156229
     9  N   -0.269238
    10  H    0.286836
    11  H    0.282435
    12  H    0.166833
    13  H    0.169492
    14  H    0.113575
    15  N   -0.250756
    16  C    0.303135
    17  C   -0.316551
    18  C   -0.099006
    19  C   -0.208783
    20  C   -0.102202
    21  C   -0.314168
    22  H    0.221196
    23  H    0.138480
    24  H    0.140903
    25  H    0.138057
    26  H    0.138700
    27  H    0.154931
 Sum of Mulliken charges =  -0.00000

 Dipole moment (field-independent basis, Debye):
    X=             -8.5848    Y=            -10.3429    Z=             -0.3999  Tot=             13.4475
 Quadrupole moment (field-independent basis, Debye-Ang):
   XX=            -41.9201   YY=            -84.1599   ZZ=            -79.5640
   XY=             16.2281   XZ=             -0.8909   YZ=              1.1939

  Exact polarizability: 265.470   7.798 205.124  15.970  15.624 136.034
 Approx polarizability: 190.276   6.336 170.791  12.604  16.398 118.649

 ******    1 imaginary frequencies (negative Signs) ******

                      1                      2                      3
                      A                      A                      A
 Frequencies --   -366.7487                16.9535                28.8960
 Red. masses --      6.2968                 3.6313                 4.1680
 Frc consts  --      0.4990                 0.0006                 0.0021
 IR Inten    --   1092.6652                 2.3970                 4.3258

                      4                      5                      6
                      A                      A                      A
 Frequencies --     61.0415                78.7565               112.0958
 Red. masses --      2.3524                 4.6482                 4.1845
 Frc consts  --      0.0052                 0.0170                 0.0310
 IR Inten    --      6.3199                 6.1784                10.7647

                      7                      8                      9
                      A                      A                      A
 Frequencies --    153.5834               205.8739               231.3869
 Red. masses --      3.6495                 1.1022                 3.6566
 Frc consts  --      0.0507                 0.0275                 0.1153
 IR Inten    --      4.6470                 1.5032                13.5209

                     10                     11                     12
                      A                      A                      A
 Frequencies --    236.5727               312.1648               350.0104
 Red. masses --      4.2753                 3.3398                 6.3380
 Frc consts  --      0.1410                 0.1918                 0.4575
 IR Inten    --      1.7770                25.7145                 5.0036

                     13                     14                     15
                      A                      A                      A
 Frequencies --    418.3070               424.2434               487.9017
 Red. masses --      2.3363                 3.0133                 3.2127
 Frc consts  --      0.2409                 0.3195                 0.4506
 IR Inten    --     30.7312                 0.0070                 7.5433

                     16                     17                     18
                      A                      A                      A
 Frequencies --    526.0085               538.0909               570.4253
 Red. masses --      2.4165                 1.2660                 3.0313
 Frc consts  --      0.3939                 0.2160                 0.5811
 IR Inten    --     69.0893               113.9523                38.4850

                     19                     20                     21
                      A                      A                      A
 Frequencies --    636.1789               673.2170               676.9043
 Red. masses --      6.2185                 1.7072                 2.8127
 Frc consts  --      1.4828                 0.4559                 0.7593
 IR Inten    --      3.7025                30.4174                 7.0307

                     22                     23                     24
                      A                      A                      A
 Frequencies --    718.3459               720.3131               780.3582
 Red. masses --      1.8926                 1.5965                 1.8154
 Frc consts  --      0.5754                 0.4880                 0.6513
 IR Inten    --     56.1568                23.0007                76.7754

                     25                     26                     27
                      A                      A                      A
 Frequencies --    792.3175               859.7761               860.7345
 Red. masses --      5.4709                 1.2676                 3.7392
 Frc consts  --      2.0235                 0.5521                 1.6322
 IR Inten    --     92.4273                 0.0037                 3.7977

                     28                     29                     30
                      A                      A                      A
 Frequencies --    925.5306               927.6618               994.3041
 Red. masses --      1.5362                 2.3181                 2.0292
 Frc consts  --      0.7753                 1.1754                 1.1820
 IR Inten    --      6.3826                67.8185                17.3268

                     31                     32                     33
                      A                      A                      A
 Frequencies --    998.1085              1011.9876              1014.3692
 Red. masses --      1.3404                 1.2713                 1.2665
 Frc consts  --      0.7868                 0.7671                 0.7678
 IR Inten    --      0.0079                 0.9097                35.1709

                     34                     35                     36
                      A                      A                      A
 Frequencies --   1018.9322              1057.2336              1058.4689
 Red. masses --      4.3047                 1.9443                 1.9998
 Frc consts  --      2.6332                 1.2804                 1.3200
 IR Inten    --     24.2412                29.8973                48.5818

                     37                     38                     39
                      A                      A                      A
 Frequencies --   1067.7463              1117.3892              1175.1010
 Red. masses --      1.5810                 1.5128                 1.1696
 Frc consts  --      1.0620                 1.1129                 0.9515
 IR Inten    --    127.8949                12.1976                95.7812

                     40                     41                     42
                      A                      A                      A
 Frequencies --   1179.8341              1205.6929              1220.6039
 Red. masses --      1.1169                 1.1596                 1.3858
 Frc consts  --      0.9160                 0.9932                 1.2165
 IR Inten    --      8.6543                82.0325               496.4958

                     43                     44                     45
                      A                      A                      A
 Frequencies --   1236.2228              1268.1007              1275.5172
 Red. masses --      1.4574                 1.6584                 1.8172
 Frc consts  --      1.3123                 1.5713                 1.7419
 IR Inten    --     78.4276                56.8866               254.8690

                     46                     47                     48
                      A                      A                      A
 Frequencies --   1300.3727              1343.4601              1350.9173
 Red. masses --      2.7085                 2.5904                 1.3159
 Frc consts  --      2.6984                 2.7546                 1.4150
 IR Inten    --     41.9525               418.5565                 7.9134

                     49                     50                     51
                      A                      A                      A
 Frequencies --   1359.6382              1423.6847              1451.6732
 Red. masses --      1.9493                 1.9207                 1.1953
 Frc consts  --      2.1232                 2.2938                 1.4841
 IR Inten    --     14.9176               330.5473                24.1217

                     52                     53                     54
                      A                      A                      A
 Frequencies --   1473.2347              1492.8447              1504.9508
 Red. masses --      2.0436                 1.0444                 1.0411
 Frc consts  --      2.6133                 1.3713                 1.3893
 IR Inten    --    200.5682                24.8581                16.6336

                     55                     56                     57
                      A                      A                      A
 Frequencies --   1536.2977              1546.1158              1567.0250
 Red. masses --      1.6892                 2.4425                 1.9717
 Frc consts  --      2.3491                 3.4401                 2.8526
 IR Inten    --     89.2377               347.0833               290.1974

                     58                     59                     60
                      A                      A                      A
 Frequencies --   1648.3200              1650.5525              1669.3414
 Red. masses --      1.1897                 4.6418                 3.1451
 Frc consts  --      1.9044                 7.4507                 5.1639
 IR Inten    --    212.5231               382.2196               361.8386

                     61                     62                     63
                      A                      A                      A
 Frequencies --   1675.1134              3067.4615              3123.0867
 Red. masses --      5.8149                 1.0329                 1.0616
 Frc consts  --      9.6135                 5.7261                 6.1008
 IR Inten    --    481.3329                29.2403                47.0159

                     64                     65                     66
                      A                      A                      A
 Frequencies --   3147.7878              3164.1031              3181.6232
 Red. masses --      1.1046                 1.1062                 1.0882
 Frc consts  --      6.4484                 6.5252                 6.4900
 IR Inten    --      6.8549                18.2395                17.5125

                     67                     68                     69
                      A                      A                      A
 Frequencies --   3191.2335              3193.0300              3203.2877
 Red. masses --      1.1020                 1.0881                 1.0928
 Frc consts  --      6.6120                 6.5362                 6.6064
 IR Inten    --      5.0581                 4.8259                31.6237

                     70                     71                     72
                      A                      A                      A
 Frequencies --   3207.3996              3219.7858              3270.7814
 Red. masses --      1.0986                 1.0978                 1.0923
 Frc consts  --      6.6588                 6.7053                 6.8847
 IR Inten    --     31.7763                23.5107                 6.4750

                     73                     74                     75
                      A                      A                      A
 Frequencies --   3519.9836              3602.3965              3668.8378
 Red. masses --      1.0509                 1.0967                 1.0753
 Frc consts  --      7.6714                 8.3851                 8.5282
 IR Inten    --     39.6402                45.0288                27.9050

 - Thermochemistry -
 -------------------
 Temperature   298.150 Kelvin.  Pressure   1.00000 Atm.
 Atom     1 has atomic number  6 and mass  12.00000

 Molecular mass:   178.11061 amu.
 Principal axes and moments of inertia in atomic units:
                           1         2         3
     Eigenvalues --  1194.311054355.160655063.83777
           X            0.99992   0.01292  -0.00044
           Y           -0.01292   0.99992  -0.00009
           Z            0.00044   0.00009   1.00000
 This molecule is an asymmetric top.
 Rotational symmetry number  1.
 Warning -- assumption of classical behavior for rotation
           may cause significant error
 Rotational temperatures (Kelvin)      0.07252     0.01989     0.01710
 Rotational constants (GHZ):           1.51111     0.41439     0.35640
    1 imaginary frequencies ignored.
 Zero-point vibrational energy     603980.2 (Joules/Mol)
                                  144.35473 (Kcal/Mol)
 Warning -- explicit consideration of  17 degrees of freedom as
           vibrations may cause significant error
 Vibrational temperatures:     24.39    41.57    87.83   113.31   161.28
          (Kelvin)            220.97   296.21   332.91   340.38   449.14
                              503.59   601.85   610.39   701.98   756.81
                              774.19   820.71   915.32   968.61   973.91
                             1033.54  1036.37  1122.76  1139.97  1237.03
                             1238.40  1331.63  1334.70  1430.58  1436.06
                             1456.02  1459.45  1466.02  1521.12  1522.90
                             1536.25  1607.67  1690.71  1697.52  1734.72
                             1756.18  1778.65  1824.51  1835.18  1870.95
                             1932.94  1943.67  1956.22  2048.36  2088.63
                             2119.66  2147.87  2165.29  2210.39  2224.52
                             2254.60  2371.56  2374.78  2401.81  2410.11
                             4413.39  4493.43  4528.96  4552.44  4577.65
                             4591.47  4594.06  4608.82  4614.73  4632.55
                             4705.92  5064.47  5183.05  5278.64

 Zero-point correction=                           0.230044 (Hartree/Particle)
 Thermal correction to Energy=                    0.242799
 Thermal correction to Enthalpy=                  0.243744
 Thermal correction to Gibbs Free Energy=         0.188419
 Sum of electronic and zero-point Energies=           -573.989209
 Sum of electronic and thermal Energies=              -573.976454
 Sum of electronic and thermal Enthalpies=            -573.975509
 Sum of electronic and thermal Free Energies=         -574.030834

                     E (Thermal)             CV                S
                      KCal/Mol        Cal/Mol-Kelvin    Cal/Mol-Kelvin
 Total                  152.359             47.302            116.440
 Electronic               0.000              0.000              0.000
 Translational            0.889              2.981             41.439
 Rotational               0.889              2.981             31.644
 Vibrational            150.581             41.341             43.358
 Vibration     1          0.593              1.986              6.962
 Vibration     2          0.593              1.984              5.904
 Vibration     3          0.597              1.973              4.423
 Vibration     4          0.600              1.963              3.922
 Vibration     5          0.607              1.939              3.232
 Vibration     6          0.619              1.899              2.627
 Vibration     7          0.640              1.832              2.080
 Vibration     8          0.653              1.793              1.868
 Vibration     9          0.655              1.785              1.829
 Vibration    10          0.701              1.650              1.351
 Vibration    11          0.727              1.575              1.166
 Vibration    12          0.781              1.430              0.898
 Vibration    13          0.786              1.418              0.878
 Vibration    14          0.844              1.277              0.689
 Vibration    15          0.881              1.192              0.596
 Vibration    16          0.893              1.166              0.569
 Vibration    17          0.927              1.095              0.503

 Optimization completed.
    -- Stationary point found.
 Normal termination of Gaussian 16 at Thu Feb 11 02:16:57 2021.
