 Gaussian 16, Revision A.03,
 Gaussian 16:  ES64L-G16RevA.03 25-Dec-2016

 ----------------------------------------------------------------------
 # wB97XD def2tzvp, opt=(ts, noeigen, calcfc, maxcycles=70, maxstep=1),
  freq=noraman, scrf=(iefpcm, solvent=water)
 ----------------------------------------------------------------------

 ------------------------
 0_iteration/TS-266-0.out
 ------------------------
 Symbolic Z-matrix:
 Charge =  0 Multiplicity = 1

 SCF Done:  E(RwB97XD) =  -2900.72695948     A.U. after   14 cycles
 SCF Done:  E(RwB97XD) =  -2900.72682698     A.U. after   10 cycles
 SCF Done:  E(RwB97XD) =  -2900.72669819     A.U. after   10 cycles
 SCF Done:  E(RwB97XD) =  -2900.72657281     A.U. after   10 cycles
 SCF Done:  E(RwB97XD) =  -2900.72645099     A.U. after    9 cycles
 SCF Done:  E(RwB97XD) =  -2900.72633284     A.U. after   10 cycles
 SCF Done:  E(RwB97XD) =  -2900.72621846     A.U. after   10 cycles
 SCF Done:  E(RwB97XD) =  -2900.72610794     A.U. after   10 cycles
 SCF Done:  E(RwB97XD) =  -2900.72600135     A.U. after   10 cycles
 SCF Done:  E(RwB97XD) =  -2900.72589875     A.U. after   10 cycles
 SCF Done:  E(RwB97XD) =  -2900.72618334     A.U. after   10 cycles
 SCF Done:  E(RwB97XD) =  -2900.72622399     A.U. after   10 cycles
 SCF Done:  E(RwB97XD) =  -2900.72625095     A.U. after   10 cycles
 SCF Done:  E(RwB97XD) =  -2900.72626835     A.U. after   10 cycles
 SCF Done:  E(RwB97XD) =  -2900.72627896     A.U. after   10 cycles
 SCF Done:  E(RwB97XD) =  -2900.72628112     A.U. after    9 cycles
 SCF Done:  E(RwB97XD) =  -2900.72628116     A.U. after    8 cycles
 SCF Done:  E(RwB97XD) =  -2900.72627903     A.U. after    9 cycles
 SCF Done:  E(RwB97XD) =  -2900.72628122     A.U. after    9 cycles
 Optimization completed.
    -- Stationary point found.
 Normal termination of Gaussian 16 at Tue Feb  9 07:05:25 2021.

 ---------------------------------------------------------------------
 #N Geom=AllCheck Guess=TCheck SCRF=Check GenChk RwB97XD/def2TZVP Freq
 ---------------------------------------------------------------------

 Structure from the checkpoint file:  "/beegfs/scratch/user/q/tla25/Gau-42636.chk"
 ------------------------
 0_iteration/TS-266-0.out
 ------------------------
 Charge =  0 Multiplicity = 1

                         Standard orientation:
 ---------------------------------------------------------------------
 Center     Atomic      Atomic             Coordinates (Angstroms)
 Number     Number       Type             X           Y           Z
 ---------------------------------------------------------------------
      1          6           0       -0.166986    0.278006    0.399031
      2          6           0       -0.635036    1.600048    0.065312
      3          8           0        0.113453    2.573101    0.179151
      4          6           0        1.095046    0.057757    0.884719
      5          6           0        3.827217   -0.357871   -0.122445
      6          1           0        4.551108   -0.441750   -0.935385
      7          1           0        4.113886    0.475833    0.517642
      8          1           0        3.856164   -1.272471    0.468800
      9          7           0        2.467490   -0.143775   -0.602079
     10          1           0        2.377548    0.713664   -1.131532
     11          1           0        2.139761   -0.907807   -1.178849
     12          1           0        1.362549   -0.900594    1.307028
     13          1           0        1.616674    0.916754    1.286021
     14         35           0       -1.239996   -1.255288   -0.021926
     15          6           0       -2.051552    1.796784   -0.418024
     16          1           0       -2.185031    1.331113   -1.396907
     17          1           0       -2.770236    1.331224    0.257838
     18          1           0       -2.254735    2.862376   -0.497446
 ---------------------------------------------------------------------

 SCF Done:  E(RwB97XD) =  -2900.72628122     A.U. after    1 cycles

 The electronic state is 1-A.
 Alpha  occ. eigenvalues -- -483.12135 -62.66985 -56.46081 -56.45752 -56.45749
 Alpha  occ. eigenvalues --  -19.21503 -14.46487 -10.36459 -10.32873 -10.31324
 Alpha  occ. eigenvalues --  -10.30696 -10.27491  -8.81108  -6.63203  -6.62151
 Alpha  occ. eigenvalues --   -6.62139  -2.73602  -2.73293  -2.73283  -2.72432
 Alpha  occ. eigenvalues --   -2.72432  -1.12332  -1.02064  -0.92448  -0.83623
 Alpha  occ. eigenvalues --   -0.83162  -0.78018  -0.72017  -0.62177  -0.59950
 Alpha  occ. eigenvalues --   -0.56661  -0.55438  -0.53669  -0.52986  -0.51595
 Alpha  occ. eigenvalues --   -0.49791  -0.47408  -0.46750  -0.45015  -0.44604
 Alpha  occ. eigenvalues --   -0.41922  -0.38482  -0.37432  -0.32894  -0.27769
 Alpha virt. eigenvalues --    0.03438   0.08353   0.10344   0.13133   0.14220
 Alpha virt. eigenvalues --    0.15194   0.15982   0.17387   0.18699   0.19058
 Alpha virt. eigenvalues --    0.20304   0.21125   0.21625   0.22536   0.23440

 Mulliken charges:
               1
     1  C   -0.136836
     2  C    0.254333
     3  O   -0.498325
     4  C   -0.179541
     5  C   -0.260779
     6  H    0.143288
     7  H    0.144946
     8  H    0.145049
     9  N   -0.399095
    10  H    0.276755
    11  H    0.274746
    12  H    0.180134
    13  H    0.168648
    14  Br  -0.158365
    15  C   -0.369207
    16  H    0.143734
    17  H    0.142831
    18  H    0.127683
 Sum of Mulliken charges =  -0.00000

 Dipole moment (field-independent basis, Debye):
    X=              5.5558    Y=             -3.3544    Z=             -1.7980  Tot=              6.7344
 Quadrupole moment (field-independent basis, Debye-Ang):
   XX=            -44.2758   YY=            -74.3651   ZZ=            -59.5070
   XY=             -5.6675   XZ=             -1.7138   YZ=             -1.2686

  Exact polarizability: 168.889  -7.502 140.407   2.137   1.742  98.264
 Approx polarizability: 122.175   0.501 115.406   1.803   1.961  86.869

 ******    1 imaginary frequencies (negative Signs) ******

                      1                      2                      3
                      A                      A                      A
 Frequencies --   -323.0915                35.6997                68.8945
 Red. masses --      6.1004                 3.0330                 3.2974
 Frc consts  --      0.3752                 0.0023                 0.0092
 IR Inten    --    815.6171                 0.3538                 6.5880

                      4                      5                      6
                      A                      A                      A
 Frequencies --     77.3444               112.8158               142.6282
 Red. masses --      2.1465                 4.7544                 1.0368
 Frc consts  --      0.0076                 0.0357                 0.0124
 IR Inten    --     10.6683                21.4679                 0.5580

                      7                      8                      9
                      A                      A                      A
 Frequencies --    167.4072               171.7300               211.5083
 Red. masses --      1.3710                 2.7625                 4.3731
 Frc consts  --      0.0226                 0.0480                 0.1153
 IR Inten    --      7.4691                15.6987                 0.3104

                     10                     11                     12
                      A                      A                      A
 Frequencies --    349.5449               387.2284               389.1797
 Red. masses --      2.3963                 5.9461                 4.9426
 Frc consts  --      0.1725                 0.5253                 0.4411
 IR Inten    --      0.8818                 4.7447               136.1662

                     13                     14                     15
                      A                      A                      A
 Frequencies --    504.5059               567.9021               616.4029
 Red. masses --      3.7612                 1.1340                 2.8071
 Frc consts  --      0.5640                 0.2155                 0.6284
 IR Inten    --     11.8955                27.3611                41.3760

                     16                     17                     18
                      A                      A                      A
 Frequencies --    654.3266               828.3363               967.2480
 Red. masses --      3.9599                 2.1591                 1.2795
 Frc consts  --      0.9989                 0.8728                 0.7053
 IR Inten    --     40.5741                 3.8970                94.1173

                     19                     20                     21
                      A                      A                      A
 Frequencies --    970.5835               991.9157              1018.4919
 Red. masses --      1.1658                 1.5059                 1.2118
 Frc consts  --      0.6471                 0.8730                 0.7406
 IR Inten    --    100.0027                55.2063                13.3792

                     22                     23                     24
                      A                      A                      A
 Frequencies --   1046.1664              1075.5105              1141.0190
 Red. masses --      1.8533                 3.8217                 1.5722
 Frc consts  --      1.1951                 2.6046                 1.2060
 IR Inten    --     11.8156               180.7999               108.7128

                     25                     26                     27
                      A                      A                      A
 Frequencies --   1141.4711              1194.5953              1271.4859
 Red. masses --      1.1868                 1.4292                 2.8316
 Frc consts  --      0.9111                 1.2017                 2.6971
 IR Inten    --    152.2459                12.1307                11.2736

                     28                     29                     30
                      A                      A                      A
 Frequencies --   1341.0274              1369.5515              1403.3581
 Red. masses --      1.3416                 1.5212                 1.7513
 Frc consts  --      1.4215                 1.6811                 2.0321
 IR Inten    --      1.5626               276.3152               432.7864

                     31                     32                     33
                      A                      A                      A
 Frequencies --   1454.4379              1462.0134              1466.5759
 Red. masses --      1.0809                 1.1893                 1.0489
 Frc consts  --      1.3472                 1.4978                 1.3293
 IR Inten    --     57.1203                28.4333                14.7978

                     34                     35                     36
                      A                      A                      A
 Frequencies --   1490.7754              1502.0153              1508.4988
 Red. masses --      1.0539                 2.0474                 1.0338
 Frc consts  --      1.3799                 2.7215                 1.3860
 IR Inten    --     17.5136               440.4115                10.6595

                     37                     38                     39
                      A                      A                      A
 Frequencies --   1649.6672              1671.5142              3056.2734
 Red. masses --      1.0977                 8.2180                 1.0354
 Frc consts  --      1.7601                13.5281                 5.6982
 IR Inten    --     42.8154               342.7068                76.1025

                     40                     41                     42
                      A                      A                      A
 Frequencies --   3061.3707              3129.8560              3130.6281
 Red. masses --      1.0369                 1.1023                 1.0994
 Frc consts  --      5.7258                 6.3621                 6.3487
 IR Inten    --      4.1286                25.6279                 9.3055

                     43                     44                     45
                      A                      A                      A
 Frequencies --   3153.0723              3167.7246              3172.3348
 Red. masses --      1.1053                 1.1037                 1.0591
 Frc consts  --      6.4746                 6.5254                 6.2799
 IR Inten    --     23.8425                27.6517                18.4723

                     46                     47                     48
                      A                      A                      A
 Frequencies --   3265.7427              3544.7771              3629.5685
 Red. masses --      1.1182                 1.0500                 1.0966
 Frc consts  --      7.0264                 7.7739                 8.5116
 IR Inten    --      0.3645                18.4262                37.2263

 - Thermochemistry -
 -------------------
 Temperature   298.150 Kelvin.  Pressure   1.00000 Atm.
 Atom     1 has atomic number  6 and mass  12.00000

 Molecular mass:   178.99458 amu.
 Principal axes and moments of inertia in atomic units:
                           1         2         3
     Eigenvalues --  1225.193362027.832453046.24263
           X            0.99107  -0.13330   0.00336
           Y            0.13333   0.99102  -0.01047
           Z           -0.00194   0.01083   0.99994
 This molecule is an asymmetric top.
 Rotational symmetry number  1.
 Warning -- assumption of classical behavior for rotation
           may cause significant error
 Rotational temperatures (Kelvin)      0.07069     0.04271     0.02843
 Rotational constants (GHZ):           1.47303     0.88999     0.59245
    1 imaginary frequencies ignored.
 Zero-point vibrational energy     387199.6 (Joules/Mol)
                                   92.54294 (Kcal/Mol)
 Warning -- explicit consideration of  14 degrees of freedom as
           vibrations may cause significant error
 Vibrational temperatures:     51.36    99.12   111.28   162.32   205.21
          (Kelvin)            240.86   247.08   304.31   502.92   557.14
                              559.94   725.87   817.08   886.87   941.43
                             1191.79  1391.65  1396.45  1427.15  1465.38
                             1505.20  1547.42  1641.67  1642.32  1718.76
                             1829.38  1929.44  1970.48  2019.12  2092.61
                             2103.51  2110.08  2144.89  2161.06  2170.39
                             2373.50  2404.94  4397.30  4404.63  4503.16
                             4504.28  4536.57  4557.65  4564.28  4698.68
                             5100.14  5222.14

 Zero-point correction=                           0.147477 (Hartree/Particle)
 Thermal correction to Energy=                    0.157984
 Thermal correction to Enthalpy=                  0.158928
 Thermal correction to Gibbs Free Energy=         0.109246
 Sum of electronic and zero-point Energies=          -2900.578805
 Sum of electronic and thermal Energies=             -2900.568297
 Sum of electronic and thermal Enthalpies=           -2900.567353
 Sum of electronic and thermal Free Energies=        -2900.617035

                     E (Thermal)             CV                S
                      KCal/Mol        Cal/Mol-Kelvin    Cal/Mol-Kelvin
 Total                   99.136             34.721            104.565
 Electronic               0.000              0.000              0.000
 Translational            0.889              2.981             41.453
 Rotational               0.889              2.981             30.405
 Vibrational             97.359             28.760             32.707
 Vibration     1          0.594              1.982              5.484
 Vibration     2          0.598              1.969              4.185
 Vibration     3          0.599              1.964              3.957
 Vibration     4          0.607              1.939              3.220
 Vibration     5          0.616              1.911              2.768
 Vibration     6          0.624              1.883              2.464
 Vibration     7          0.626              1.877              2.416
 Vibration     8          0.643              1.823              2.031
 Vibration     9          0.727              1.576              1.168
 Vibration    10          0.756              1.497              1.011
 Vibration    11          0.757              1.493              1.003
 Vibration    12          0.860              1.240              0.647
 Vibration    13          0.924              1.101              0.508
 Vibration    14          0.976              0.997              0.422

 Optimization completed.
    -- Stationary point found.
 Normal termination of Gaussian 16 at Tue Feb  9 07:13:00 2021.
