 Gaussian 16, Revision A.03,
 Gaussian 16:  ES64L-G16RevA.03 25-Dec-2016

 ----------------------------------------------------------------------
 # wB97XD def2tzvp, opt=(ts, noeigen, calcfc, maxcycles=70, maxstep=8),
  freq=noraman, scrf=(iefpcm, solvent=water)
 ----------------------------------------------------------------------

 ------------------------
 1_iteration/TS-280-1.out
 ------------------------
 Symbolic Z-matrix:
 Charge =  0 Multiplicity = 1

 SCF Done:  E(RwB97XD) =  -978.453925406     A.U. after   15 cycles
 SCF Done:  E(RwB97XD) =  -978.454275023     A.U. after   12 cycles
 SCF Done:  E(RwB97XD) =  -978.454500745     A.U. after   12 cycles
 SCF Done:  E(RwB97XD) =  -978.454568934     A.U. after   12 cycles
 SCF Done:  E(RwB97XD) =  -978.454542721     A.U. after   12 cycles
 SCF Done:  E(RwB97XD) =  -978.454413458     A.U. after   12 cycles
 SCF Done:  E(RwB97XD) =  -978.454551684     A.U. after   11 cycles
 SCF Done:  E(RwB97XD) =  -978.454567790     A.U. after   12 cycles
 SCF Done:  E(RwB97XD) =  -978.454592421     A.U. after   11 cycles
 SCF Done:  E(RwB97XD) =  -978.454594313     A.U. after   10 cycles
 SCF Done:  E(RwB97XD) =  -978.454594451     A.U. after    8 cycles
 SCF Done:  E(RwB97XD) =  -978.454594510     A.U. after    7 cycles
 SCF Done:  E(RwB97XD) =  -978.454594531     A.U. after    7 cycles
 Optimization completed.
    -- Stationary point found.
 Normal termination of Gaussian 16 at Wed Feb 10 07:48:37 2021.

 ---------------------------------------------------------------------
 #N Geom=AllCheck Guess=TCheck SCRF=Check GenChk RwB97XD/def2TZVP Freq
 ---------------------------------------------------------------------

 Structure from the checkpoint file:  "/beegfs/scratch/user/q/tla25/Gau-39150.chk"
 ------------------------
 1_iteration/TS-280-1.out
 ------------------------
 Charge =  0 Multiplicity = 1

                         Standard orientation:
 ---------------------------------------------------------------------
 Center     Atomic      Atomic             Coordinates (Angstroms)
 Number     Number       Type             X           Y           Z
 ---------------------------------------------------------------------
      1          6           0        1.166220    0.545249   -0.520557
      2          6           0        0.192179   -0.485721   -0.740810
      3          8           0        0.503154   -1.539824   -1.304980
      4          6           0        2.427923    0.453434   -1.059276
      5          6           0        3.097444   -0.895612    1.403917
      6          1           0        3.577560   -1.721594    1.930105
      7          1           0        3.228749    0.020385    1.976121
      8          1           0        2.028307   -1.099220    1.324831
      9          7           0        3.639797   -0.709054    0.065644
     10          1           0        4.562398   -0.294381    0.081982
     11          1           0        3.699266   -1.586857   -0.434097
     12          1           0        3.088351    1.307249   -1.014124
     13          1           0        2.543760   -0.193826   -1.916845
     14         17           0        0.851471    1.849865    0.623505
     15          6           0       -1.232255   -0.306791   -0.302871
     16          6           0       -1.966808    0.825755   -0.640080
     17          6           0       -3.305015    0.921158   -0.290144
     18          6           0       -3.914199   -0.104721    0.419318
     19          6           0       -3.185197   -1.235039    0.762430
     20          6           0       -1.853826   -1.340471    0.390611
     21          1           0       -1.494374    1.630566   -1.188954
     22          1           0       -3.872960    1.799497   -0.569711
     23          1           0       -4.956447   -0.024683    0.701431
     24          1           0       -3.656351   -2.038101    1.315027
     25          1           0       -1.285885   -2.228211    0.639749
 ---------------------------------------------------------------------

 SCF Done:  E(RwB97XD) =  -978.454594531     A.U. after    1 cycles

 The electronic state is 1-A.
 Alpha  occ. eigenvalues -- -101.68745 -19.21835 -14.47030 -10.36707 -10.32901
 Alpha  occ. eigenvalues --  -10.31330 -10.31140 -10.29871 -10.29399 -10.29325
 Alpha  occ. eigenvalues --  -10.29263 -10.29153 -10.29134  -9.57286  -7.31911
 Alpha  occ. eigenvalues --   -7.31077  -7.31063  -1.12672  -1.02445  -0.97063
 Alpha  occ. eigenvalues --   -0.95934  -0.86504  -0.85351  -0.84904  -0.78290
 Alpha  occ. eigenvalues --   -0.75714  -0.70797  -0.69467  -0.63527  -0.62297
 Alpha  occ. eigenvalues --   -0.59425  -0.57428  -0.56302  -0.55178  -0.54098
 Alpha  occ. eigenvalues --   -0.53428  -0.52243  -0.51211  -0.50468  -0.48310
 Alpha  occ. eigenvalues --   -0.47291  -0.46700  -0.45983  -0.44273  -0.43256
 Alpha  occ. eigenvalues --   -0.42274  -0.40560  -0.39892  -0.34726  -0.33827
 Alpha  occ. eigenvalues --   -0.32544  -0.28062
 Alpha virt. eigenvalues --    0.01582   0.05168   0.06419   0.10679   0.11246
 Alpha virt. eigenvalues --    0.12941   0.14392   0.15023   0.15740   0.16252
 Alpha virt. eigenvalues --    0.17045   0.18233   0.18889   0.19511   0.20041

 Mulliken charges:
               1
     1  C   -0.147785
     2  C    0.258485
     3  O   -0.489033
     4  C   -0.180719
     5  C   -0.270408
     6  H    0.148776
     7  H    0.149090
     8  H    0.139491
     9  N   -0.370746
    10  H    0.278679
    11  H    0.276826
    12  H    0.176204
    13  H    0.177074
    14  Cl  -0.169865
    15  C    0.201299
    16  C   -0.264942
    17  C   -0.126968
    18  C   -0.144107
    19  C   -0.136430
    20  C   -0.240674
    21  H    0.157602
    22  H    0.144589
    23  H    0.146305
    24  H    0.144034
    25  H    0.143223
 Sum of Mulliken charges =   0.00000

 Dipole moment (field-independent basis, Debye):
    X=              6.4038    Y=             -0.2427    Z=              1.9190  Tot=              6.6895
 Quadrupole moment (field-independent basis, Debye-Ang):
   XX=            -43.6728   YY=            -86.4854   ZZ=            -86.6796
   XY=             -6.1404   XZ=             -1.7140   YZ=             -9.0962

  Exact polarizability: 259.908  -8.787 192.118  -9.987  -9.035 150.180
 Approx polarizability: 189.918  -7.199 167.407  -9.875  -5.641 131.934

 ******    1 imaginary frequencies (negative Signs) ******

                      1                      2                      3
                      A                      A                      A
 Frequencies --   -334.4745                36.5613                47.7042
 Red. masses --      6.0178                 4.6390                 3.9450
 Frc consts  --      0.3967                 0.0037                 0.0053
 IR Inten    --    892.7964                 8.5725                 1.6106

                      4                      5                      6
                      A                      A                      A
 Frequencies --     62.7942                72.5871               107.9872
 Red. masses --      2.2968                 3.9094                 5.6389
 Frc consts  --      0.0053                 0.0121                 0.0387
 IR Inten    --      2.6900                14.0877                 6.9515

                      7                      8                      9
                      A                      A                      A
 Frequencies --    131.3650               159.6120               196.6534
 Red. masses --      5.0118                 1.1636                 5.7201
 Frc consts  --      0.0510                 0.0175                 0.1303
 IR Inten    --     12.9534                 1.9279                 0.7446

                     10                     11                     12
                      A                      A                      A
 Frequencies --    227.8089               272.4131               317.6016
 Red. masses --      7.0135                 3.3772                 3.8856
 Frc consts  --      0.2145                 0.1477                 0.2309
 IR Inten    --     10.2049                 2.1856                 2.7370

                     13                     14                     15
                      A                      A                      A
 Frequencies --    369.5597               411.6541               419.8887
 Red. masses --      3.5730                 4.4541                 2.9554
 Frc consts  --      0.2875                 0.4447                 0.3070
 IR Inten    --      3.0121                36.3657                 4.4463

                     16                     17                     18
                      A                      A                      A
 Frequencies --    463.9831               521.7358               575.3831
 Red. masses --      5.5523                 4.8064                 1.9799
 Frc consts  --      0.7042                 0.7709                 0.3862
 IR Inten    --     34.4161                16.4415                 8.4048

                     19                     20                     21
                      A                      A                      A
 Frequencies --    607.9666               635.3206               696.3702
 Red. masses --      2.0132                 6.4195                 5.7450
 Frc consts  --      0.4384                 1.5267                 1.6414
 IR Inten    --     55.3828                 0.3235                16.3208

                     22                     23                     24
                      A                      A                      A
 Frequencies --    725.0118               750.0940               804.5476
 Red. masses --      1.6792                 3.4002                 2.5698
 Frc consts  --      0.5200                 1.1272                 0.9800
 IR Inten    --     77.6087                70.1869                 8.6138

                     25                     26                     27
                      A                      A                      A
 Frequencies --    822.3061               881.1060               960.2279
 Red. masses --      2.9345                 1.2479                 1.5505
 Frc consts  --      1.1691                 0.5708                 0.8423
 IR Inten    --     31.2486                 0.7359                36.1628

                     28                     29                     30
                      A                      A                      A
 Frequencies --    969.9445               989.2740              1014.1082
 Red. masses --      1.5373                 1.1208                 1.3762
 Frc consts  --      0.8521                 0.6463                 0.8338
 IR Inten    --     16.8902                99.6790                 1.2483

                     31                     32                     33
                      A                      A                      A
 Frequencies --   1014.7222              1026.2594              1031.6349
 Red. masses --      1.1863                 6.0622                 1.3127
 Frc consts  --      0.7197                 3.7618                 0.8231
 IR Inten    --     33.6650                 1.7957                 0.2782

                     34                     35                     36
                      A                      A                      A
 Frequencies --   1056.1102              1063.2787              1081.4598
 Red. masses --      2.2528                 2.6432                 1.5435
 Frc consts  --      1.4804                 1.7607                 1.0636
 IR Inten    --     47.6404                87.3178                37.4485

                     37                     38                     39
                      A                      A                      A
 Frequencies --   1113.7212              1158.2796              1183.8802
 Red. masses --      1.5344                 1.3846                 1.1373
 Frc consts  --      1.1213                 1.0945                 0.9391
 IR Inten    --      9.0521               143.0121                 0.2250

                     40                     41                     42
                      A                      A                      A
 Frequencies --   1198.3278              1201.7667              1207.7227
 Red. masses --      2.3582                 1.3851                 1.1537
 Frc consts  --      1.9952                 1.1787                 0.9915
 IR Inten    --     57.3196                19.2942                 1.9358

                     43                     44                     45
                      A                      A                      A
 Frequencies --   1290.4437              1326.7236              1345.7006
 Red. masses --      2.9050                 4.3386                 1.3329
 Frc consts  --      2.8502                 4.4995                 1.4222
 IR Inten    --     15.7955                11.0649                 2.0866

                     46                     47                     48
                      A                      A                      A
 Frequencies --   1359.3369              1391.0070              1459.6530
 Red. masses --      1.4622                 2.6150                 1.2004
 Frc consts  --      1.5918                 2.9811                 1.5069
 IR Inten    --     13.4042               842.8694                37.3280

                     49                     50                     51
                      A                      A                      A
 Frequencies --   1487.9214              1488.6747              1497.1863
 Red. masses --      1.4931                 1.3139                 2.0411
 Frc consts  --      1.9476                 1.7156                 2.6956
 IR Inten    --     73.5647                 9.1604               374.6729

                     52                     53                     54
                      A                      A                      A
 Frequencies --   1504.6234              1541.8427              1640.1537
 Red. masses --      1.0447                 2.3279                 6.5985
 Frc consts  --      1.3934                 3.2605                10.4583
 IR Inten    --      8.5804                 4.5191               248.4717

                     55                     56                     57
                      A                      A                      A
 Frequencies --   1649.3519              1658.7286              1674.7588
 Red. masses --      1.1273                 6.6739                 5.8521
 Frc consts  --      1.8068                10.8188                 9.6708
 IR Inten    --     42.2116               119.6862                 8.3181

                     58                     59                     60
                      A                      A                      A
 Frequencies --   3060.6764              3130.8837              3161.6408
 Red. masses --      1.0340                 1.1044                 1.1042
 Frc consts  --      5.7067                 6.3783                 6.5029
 IR Inten    --     34.4814                19.3452                17.5894

                     61                     62                     63
                      A                      A                      A
 Frequencies --   3183.5846              3194.8638              3201.4793
 Red. masses --      1.0590                 1.0857                 1.0881
 Frc consts  --      6.3236                 6.5295                 6.5709
 IR Inten    --     17.4319                 0.7631                 0.9356

                     64                     65                     66
                      A                      A                      A
 Frequencies --   3208.9707              3215.7196              3223.2482
 Red. masses --      1.0918                 1.0952                 1.0989
 Frc consts  --      6.6241                 6.6729                 6.7266
 IR Inten    --     14.2082                34.8380                15.6310

                     67                     68                     69
                      A                      A                      A
 Frequencies --   3277.7071              3547.2371              3630.5125
 Red. masses --      1.1183                 1.0502                 1.0963
 Frc consts  --      7.0786                 7.7860                 8.5137
 IR Inten    --      0.2605                42.4287                42.3225

 - Thermochemistry -
 -------------------
 Temperature   298.150 Kelvin.  Pressure   1.00000 Atm.
 Atom     1 has atomic number  6 and mass  12.00000

 Molecular mass:   197.06074 amu.
 Principal axes and moments of inertia in atomic units:
                           1         2         3
     Eigenvalues --  1394.551634353.625164867.26849
           X            0.99988  -0.01502   0.00237
           Y            0.01517   0.99562  -0.09223
           Z           -0.00098   0.09226   0.99573
 This molecule is an asymmetric top.
 Rotational symmetry number  1.
 Warning -- assumption of classical behavior for rotation
           may cause significant error
 Rotational temperatures (Kelvin)      0.06211     0.01989     0.01780
 Rotational constants (GHZ):           1.29414     0.41454     0.37079
    1 imaginary frequencies ignored.
 Zero-point vibrational energy     531987.5 (Joules/Mol)
                                  127.14806 (Kcal/Mol)
 Warning -- explicit consideration of  18 degrees of freedom as
           vibrations may cause significant error
 Vibrational temperatures:     52.60    68.64    90.35   104.44   155.37
          (Kelvin)            189.00   229.65   282.94   327.77   391.94
                              456.96   531.71   592.28   604.13   667.57
                              750.66   827.85   874.73   914.08  1001.92
                             1043.13  1079.22  1157.56  1183.12  1267.71
                             1381.55  1395.53  1423.34  1459.08  1459.96
                             1476.56  1484.29  1519.51  1529.82  1555.98
                             1602.40  1666.51  1703.34  1724.13  1729.07
                             1737.64  1856.66  1908.86  1936.16  1955.78
                             2001.35  2100.12  2140.79  2141.87  2154.12
                             2164.82  2218.37  2359.82  2373.05  2386.54
                             2409.60  4403.63  4504.64  4548.90  4580.47
                             4596.70  4606.21  4616.99  4626.70  4637.54
                             4715.89  5103.68  5223.50

 Zero-point correction=                           0.202623 (Hartree/Particle)
 Thermal correction to Energy=                    0.215639
 Thermal correction to Enthalpy=                  0.216583
 Thermal correction to Gibbs Free Energy=         0.161295
 Sum of electronic and zero-point Energies=           -978.251971
 Sum of electronic and thermal Energies=              -978.238956
 Sum of electronic and thermal Enthalpies=            -978.238012
 Sum of electronic and thermal Free Energies=         -978.293300

                     E (Thermal)             CV                S
                      KCal/Mol        Cal/Mol-Kelvin    Cal/Mol-Kelvin
 Total                  135.315             46.932            116.363
 Electronic               0.000              0.000              0.000
 Translational            0.889              2.981             41.740
 Rotational               0.889              2.981             31.758
 Vibrational            133.538             40.970             42.865
 Vibration     1          0.594              1.982              5.437
 Vibration     2          0.595              1.978              4.910
 Vibration     3          0.597              1.972              4.367
 Vibration     4          0.599              1.967              4.082
 Vibration     5          0.606              1.943              3.305
 Vibration     6          0.612              1.922              2.926
 Vibration     7          0.621              1.892              2.554
 Vibration     8          0.636              1.845              2.164
 Vibration     9          0.651              1.799              1.896
 Vibration    10          0.675              1.724              1.581
 Vibration    11          0.704              1.640              1.322
 Vibration    12          0.742              1.535              1.082
 Vibration    13          0.776              1.445              0.921
 Vibration    14          0.783              1.427              0.892
 Vibration    15          0.822              1.330              0.755
 Vibration    16          0.877              1.202              0.606
 Vibration    17          0.932              1.085              0.494
 Vibration    18          0.967              1.015              0.436

 Optimization completed.
    -- Stationary point found.
 Normal termination of Gaussian 16 at Wed Feb 10 08:22:51 2021.
