 Gaussian 16, Revision A.03,
 Gaussian 16:  ES64L-G16RevA.03 25-Dec-2016

 ----------------------------------------------------------------------
 # wB97XD def2tzvp, opt=(ts, noeigen, calcfc, maxcycles=70, maxstep=5),
  freq=noraman, scrf=(iefpcm, solvent=water)
 ----------------------------------------------------------------------

 ------------------------
 2_iteration/TS-215-2.out
 ------------------------
 Symbolic Z-matrix:
 Charge =  0 Multiplicity = 1

 SCF Done:  E(RwB97XD) =  -805.267749305     A.U. after   14 cycles
 SCF Done:  E(RwB97XD) =  -805.267749278     A.U. after    6 cycles
 Optimization completed.
    -- Stationary point found.
 Normal termination of Gaussian 16 at Thu Feb 11 10:23:02 2021.

 ---------------------------------------------------------------------
 #N Geom=AllCheck Guess=TCheck SCRF=Check GenChk RwB97XD/def2TZVP Freq
 ---------------------------------------------------------------------

 Structure from the checkpoint file:  "/beegfs/scratch/user/q/tla25/Gau-54640.chk"
 ------------------------
 2_iteration/TS-215-2.out
 ------------------------
 Charge =  0 Multiplicity = 1

                         Standard orientation:
 ---------------------------------------------------------------------
 Center     Atomic      Atomic             Coordinates (Angstroms)
 Number     Number       Type             X           Y           Z
 ---------------------------------------------------------------------
      1          6           0        1.299509   -1.703642    0.901894
      2          6           0       -0.127751   -1.687332    0.791964
      3          8           0       -0.833848   -2.591345    1.263916
      4          6           0        2.267907   -0.819117    0.388957
      5          6           0        3.431388   -2.683405   -1.199008
      6          1           0        3.650374   -3.086193   -2.186433
      7          1           0        4.349713   -2.630274   -0.617173
      8          1           0        2.720803   -3.334265   -0.690847
      9          7           0        2.844323   -1.347422   -1.290152
     10          1           0        3.504546   -0.682224   -1.679372
     11          1           0        2.024742   -1.368023   -1.886778
     12          1           0        3.245474   -0.980173    0.838159
     13          6           0        2.011589    0.659590    0.234565
     14          6           0        1.707925    1.308733   -0.958005
     15          6           0        1.442142    2.673698   -0.977660
     16          6           0        1.483154    3.411283    0.191957
     17          6           0        1.795861    2.775856    1.387442
     18          6           0        2.056068    1.417495    1.406048
     19          1           0        1.645818    0.767741   -1.892413
     20          1           0        1.198572    3.153441   -1.916862
     21          1           0        1.273856    4.472978    0.176095
     22          1           0        1.833862    3.341158    2.309891
     23          1           0        2.287497    0.925105    2.342701
     24          1           0        1.668994   -2.590662    1.399401
     25          7           0       -0.721540   -0.609150    0.145290
     26          6           0       -2.068750   -0.306302   -0.030706
     27          6           0       -3.114757   -1.215032    0.148787
     28          6           0       -4.424178   -0.815282   -0.080501
     29          6           0       -4.724867    0.473896   -0.492820
     30          6           0       -3.685443    1.377140   -0.676414
     31          6           0       -2.376579    0.995518   -0.446754
     32          1           0       -0.102328    0.140388   -0.111480
     33          1           0       -2.891144   -2.219465    0.468540
     34          1           0       -5.221735   -1.534088    0.065138
     35          1           0       -5.750335    0.771623   -0.668953
     36          1           0       -3.893846    2.390339   -0.997571
     37          1           0       -1.572859    1.710768   -0.587820
 ---------------------------------------------------------------------

 SCF Done:  E(RwB97XD) =  -805.267749278     A.U. after    1 cycles

 The electronic state is 1-A.
 Alpha  occ. eigenvalues --  -19.19011 -14.49522 -14.45001 -10.37134 -10.34567
 Alpha  occ. eigenvalues --  -10.33317 -10.31937 -10.31416 -10.30083 -10.29747
 Alpha  occ. eigenvalues --  -10.29687 -10.29623 -10.29471 -10.28773 -10.28613
 Alpha  occ. eigenvalues --  -10.28408 -10.27897 -10.27735 -10.24191  -1.11775
 Alpha  occ. eigenvalues --   -1.04973  -1.02818  -0.97768  -0.94931  -0.90021
 Alpha  occ. eigenvalues --   -0.85972  -0.84997  -0.84713  -0.82706  -0.79387
 Alpha  occ. eigenvalues --   -0.75186  -0.71621  -0.71161  -0.70598  -0.68126
 Alpha  occ. eigenvalues --   -0.64937  -0.63934  -0.62709  -0.61505  -0.57975
 Alpha  occ. eigenvalues --   -0.57528  -0.56480  -0.56074  -0.55003  -0.53068
 Alpha  occ. eigenvalues --   -0.52909  -0.52091  -0.51604  -0.51287  -0.51068
 Alpha  occ. eigenvalues --   -0.50567  -0.48925  -0.48380  -0.47262  -0.46178
 Alpha  occ. eigenvalues --   -0.46052  -0.44598  -0.44219  -0.42492  -0.42387
 Alpha  occ. eigenvalues --   -0.42361  -0.38762  -0.34669  -0.34090  -0.33529
 Alpha  occ. eigenvalues --   -0.32686  -0.29732  -0.26102
 Alpha virt. eigenvalues --    0.04141   0.04329   0.05175   0.05716   0.08707
 Alpha virt. eigenvalues --    0.10334   0.12467   0.13344   0.13571   0.14531
 Alpha virt. eigenvalues --    0.15104   0.15380   0.16731   0.17155   0.17820

 Mulliken charges:
               1
     1  C   -0.535701
     2  C    0.395446
     3  O   -0.567901
     4  C   -0.014229
     5  C   -0.293269
     6  H    0.158929
     7  H    0.155966
     8  H    0.152732
     9  N   -0.276962
    10  H    0.292584
    11  H    0.282989
    12  H    0.161521
    13  C    0.184679
    14  C   -0.219718
    15  C   -0.178704
    16  C   -0.119199
    17  C   -0.147598
    18  C   -0.217875
    19  H    0.147795
    20  H    0.147283
    21  H    0.148337
    22  H    0.146897
    23  H    0.144100
    24  H    0.124450
    25  N   -0.212299
    26  C    0.268231
    27  C   -0.310272
    28  C   -0.103814
    29  C   -0.197158
    30  C   -0.131617
    31  C   -0.285060
    32  H    0.168081
    33  H    0.147309
    34  H    0.138432
    35  H    0.137499
    36  H    0.137387
    37  H    0.170728
 Sum of Mulliken charges =  -0.00000

 Dipole moment (field-independent basis, Debye):
    X=             10.3265    Y=              4.4945    Z=             -7.2144  Tot=             13.3748
 Quadrupole moment (field-independent basis, Debye-Ang):
   XX=            -92.1607   YY=           -113.3495   ZZ=           -109.6636
   XY=            -15.7041   XZ=             -6.4993   YZ=             12.7824

  Exact polarizability: 331.870 -12.408 310.960  -1.305 -22.255 242.122
 Approx polarizability: 246.280  -4.956 251.062   0.962 -18.995 209.637

 ******    1 imaginary frequencies (negative Signs) ******

                      1                      2                      3
                      A                      A                      A
 Frequencies --   -357.1168                20.7170                25.6454
 Red. masses --      5.6019                 4.5369                 3.6975
 Frc consts  --      0.4209                 0.0011                 0.0014
 IR Inten    --   1108.9056                 1.7315                 1.3145

                      4                      5                      6
                      A                      A                      A
 Frequencies --     34.2548                57.2013                70.7856
 Red. masses --      3.7048                 4.8404                 5.3974
 Frc consts  --      0.0026                 0.0093                 0.0159
 IR Inten    --      3.9348                 0.8015                 7.4291

                      7                      8                      9
                      A                      A                      A
 Frequencies --     79.8053                96.3671               132.6937
 Red. masses --      4.3793                 3.6364                 2.2556
 Frc consts  --      0.0164                 0.0199                 0.0234
 IR Inten    --      2.7789                 4.6803                15.1811

                     10                     11                     12
                      A                      A                      A
 Frequencies --    168.6619               203.0823               223.7156
 Red. masses --      3.3866                 2.1259                 2.0561
 Frc consts  --      0.0568                 0.0517                 0.0606
 IR Inten    --      3.0039                 4.5321                11.8599

                     13                     14                     15
                      A                      A                      A
 Frequencies --    242.7457               280.6628               290.9312
 Red. masses --      3.9496                 3.4304                 5.6716
 Frc consts  --      0.1371                 0.1592                 0.2828
 IR Inten    --      1.9189                11.5301                 9.4603

                     16                     17                     18
                      A                      A                      A
 Frequencies --    317.3597               354.7546               417.9166
 Red. masses --      3.9746                 6.0422                 2.8558
 Frc consts  --      0.2359                 0.4480                 0.2939
 IR Inten    --     27.5146                 3.5269                 0.7562

                     19                     20                     21
                      A                      A                      A
 Frequencies --    425.1684               479.3351               484.5379
 Red. masses --      2.9929                 4.8512                 4.1722
 Frc consts  --      0.3188                 0.6567                 0.5771
 IR Inten    --      0.1394                21.3285                46.2010

                     22                     23                     24
                      A                      A                      A
 Frequencies --    522.6337               529.2171               569.6756
 Red. masses --      2.7914                 2.8014                 1.2083
 Frc consts  --      0.4492                 0.4623                 0.2310
 IR Inten    --     83.1620               117.2366               115.3079

                     25                     26                     27
                      A                      A                      A
 Frequencies --    584.4996               630.4802               638.7536
 Red. masses --      4.6079                 3.8012                 5.7615
 Frc consts  --      0.9275                 0.8902                 1.3850
 IR Inten    --     54.3170                 3.7541                16.4670

                     28                     29                     30
                      A                      A                      A
 Frequencies --    639.6558               686.1182               706.0851
 Red. masses --      4.4440                 1.3412                 3.2521
 Frc consts  --      1.0713                 0.3720                 0.9553
 IR Inten    --      1.7131                12.0570                14.2882

                     31                     32                     33
                      A                      A                      A
 Frequencies --    719.0702               728.5452               766.7551
 Red. masses --      1.8805                 1.5810                 2.1695
 Frc consts  --      0.5729                 0.4944                 0.7515
 IR Inten    --     57.4831                90.1215                54.3017

                     34                     35                     36
                      A                      A                      A
 Frequencies --    779.7252               786.0340               805.9425
 Red. masses --      2.1048                 3.0027                 3.3964
 Frc consts  --      0.7540                 1.0931                 1.2998
 IR Inten    --     44.4155                92.3876                76.0154

                     37                     38                     39
                      A                      A                      A
 Frequencies --    839.9207               861.2495               877.6579
 Red. masses --      3.1829                 1.2595                 1.2528
 Frc consts  --      1.3230                 0.5504                 0.5686
 IR Inten    --      5.4382                 0.5067                 0.1363

                     40                     41                     42
                      A                      A                      A
 Frequencies --    899.7994               927.5726               961.0455
 Red. masses --      3.9101                 1.5113                 1.6468
 Frc consts  --      1.8652                 0.7661                 0.8961
 IR Inten    --     20.4909                14.3412                 0.4999

                     43                     44                     45
                      A                      A                      A
 Frequencies --    975.3479               998.4957              1011.5545
 Red. masses --      3.9503                 1.3411                 1.2776
 Frc consts  --      2.2141                 0.7878                 0.7702
 IR Inten    --     30.5587                 0.0855                 0.7335

                     46                     47                     48
                      A                      A                      A
 Frequencies --   1014.2271              1018.9330              1024.2519
 Red. masses --      1.3225                 5.8141                 1.4117
 Frc consts  --      0.8015                 3.5565                 0.8726
 IR Inten    --      5.1066                15.8507                21.2162

                     49                     50                     51
                      A                      A                      A
 Frequencies --   1026.0247              1035.2389              1048.2249
 Red. masses --      3.0597                 1.3133                 1.2009
 Frc consts  --      1.8978                 0.8293                 0.7774
 IR Inten    --      1.1939                 1.6667                44.0879

                     52                     53                     54
                      A                      A                      A
 Frequencies --   1061.3755              1065.9942              1079.7028
 Red. masses --      2.0797                 2.0346                 4.9312
 Frc consts  --      1.3803                 1.3622                 3.3870
 IR Inten    --     23.1944                10.1273                58.5868

                     55                     56                     57
                      A                      A                      A
 Frequencies --   1116.7396              1123.3944              1151.1735
 Red. masses --      1.5220                 1.5750                 1.9245
 Frc consts  --      1.1183                 1.1711                 1.5026
 IR Inten    --      6.5577                26.6117                83.3155

                     58                     59                     60
                      A                      A                      A
 Frequencies --   1180.0378              1185.5870              1205.7847
 Red. masses --      1.1178                 1.1528                 1.1489
 Frc consts  --      0.9171                 0.9547                 0.9842
 IR Inten    --      6.5323                 0.6500                53.8381

                     61                     62                     63
                      A                      A                      A
 Frequencies --   1214.3564              1219.8456              1228.7551
 Red. masses --      1.2475                 1.1400                 1.6944
 Frc consts  --      1.0839                 0.9994                 1.5073
 IR Inten    --    113.0783                58.7767               474.8764

                     64                     65                     66
                      A                      A                      A
 Frequencies --   1247.5787              1279.2703              1311.0862
 Red. masses --      1.4382                 2.3673                 1.9586
 Frc consts  --      1.3189                 2.2826                 1.9837
 IR Inten    --     63.3393               184.0865               109.4672

                     67                     68                     69
                      A                      A                      A
 Frequencies --   1331.2683              1346.6073              1354.5629
 Red. masses --      4.1483                 2.8364                 1.3335
 Frc consts  --      4.3316                 3.0304                 1.4416
 IR Inten    --     12.5942               474.1416                 0.6541

                     70                     71                     72
                      A                      A                      A
 Frequencies --   1360.6116              1369.9000              1412.1953
 Red. masses --      1.8092                 1.3758                 1.7406
 Frc consts  --      1.9733                 1.5212                 2.0453
 IR Inten    --      5.7509                 9.3655               144.6262

                     73                     74                     75
                      A                      A                      A
 Frequencies --   1445.6611              1461.8976              1474.9180
 Red. masses --      2.0881                 1.5887                 2.1071
 Frc consts  --      2.5712                 2.0005                 2.7007
 IR Inten    --    273.5795               125.0172               199.8944

                     76                     77                     78
                      A                      A                      A
 Frequencies --   1491.1901              1495.8245              1507.1439
 Red. masses --      2.1693                 1.0495                 1.0402
 Frc consts  --      2.8420                 1.3835                 1.3921
 IR Inten    --     12.2056                18.6478                 9.0818

                     79                     80                     81
                      A                      A                      A
 Frequencies --   1544.2048              1547.5892              1562.6551
 Red. masses --      2.4529                 2.3768                 2.1715
 Frc consts  --      3.4462                 3.3539                 3.1242
 IR Inten    --    314.3119                 6.6713               307.1107

                     82                     83                     84
                      A                      A                      A
 Frequencies --   1643.1195              1646.4674              1654.2721
 Red. masses --      1.3666                 5.9796                 2.8660
 Frc consts  --      2.1738                 9.5506                 4.6210
 IR Inten    --    125.1259               711.8893                 0.4797

                     85                     86                     87
                      A                      A                      A
 Frequencies --   1665.4957              1674.4299              1677.1368
 Red. masses --      3.2120                 6.0367                 5.7478
 Frc consts  --      5.2495                 9.9720                 9.5255
 IR Inten    --    379.4205               295.3239                10.9194

                     88                     89                     90
                      A                      A                      A
 Frequencies --   3073.8641              3126.7472              3158.3208
 Red. masses --      1.0323                 1.0875                 1.1054
 Frc consts  --      5.7469                 6.2640                 6.4966
 IR Inten    --     44.1469                22.4612                 5.0023

                     91                     92                     93
                      A                      A                      A
 Frequencies --   3167.2336              3177.2793              3192.8474
 Red. masses --      1.1064                 1.0890                 1.0877
 Frc consts  --      6.5393                 6.4771                 6.5331
 IR Inten    --     14.3937                10.2544                 5.0139

                     94                     95                     96
                      A                      A                      A
 Frequencies --   3196.9441              3202.1849              3202.5504
 Red. masses --      1.0869                 1.0880                 1.0925
 Frc consts  --      6.5453                 6.5729                 6.6017
 IR Inten    --      2.6860                30.5464                24.9888

                     97                     98                     99
                      A                      A                      A
 Frequencies --   3203.5389              3212.1275              3219.2453
 Red. masses --      1.0880                 1.0923                 1.0977
 Frc consts  --      6.5787                 6.6401                 6.7024
 IR Inten    --      0.7556                15.7962                26.2953

                    100                    101                    102
                      A                      A                      A
 Frequencies --   3220.5797              3228.3204              3265.1851
 Red. masses --      1.0942                 1.0982                 1.0927
 Frc consts  --      6.6865                 6.7435                 6.8636
 IR Inten    --     33.7844                 8.7019                 3.9126

                    103                    104                    105
                      A                      A                      A
 Frequencies --   3510.4703              3598.3140              3631.5633
 Red. masses --      1.0501                 1.0967                 1.0760
 Frc consts  --      7.6245                 8.3665                 8.3609
 IR Inten    --     28.4377                41.6972               271.2061

 - Thermochemistry -
 -------------------
 Temperature   298.150 Kelvin.  Pressure   1.00000 Atm.
 Atom     1 has atomic number  6 and mass  12.00000

 Molecular mass:   254.14191 amu.
 Principal axes and moments of inertia in atomic units:
                           1         2         3
     Eigenvalues --  3685.156516623.143288866.24069
           X            0.99944  -0.03307  -0.00431
           Y            0.03313   0.99937   0.01292
           Z            0.00388  -0.01306   0.99991
 This molecule is an asymmetric top.
 Rotational symmetry number  1.
 Warning -- assumption of classical behavior for rotation
           may cause significant error
 Rotational temperatures (Kelvin)      0.02350     0.01308     0.00977
 Rotational constants (GHZ):           0.48973     0.27249     0.20355
    1 imaginary frequencies ignored.
 Zero-point vibrational energy     819108.4 (Joules/Mol)
                                  195.77160 (Kcal/Mol)
 Warning -- explicit consideration of  24 degrees of freedom as
           vibrations may cause significant error
 Vibrational temperatures:     29.81    36.90    49.29    82.30   101.84
          (Kelvin)            114.82   138.65   190.92   242.67   292.19
                              321.88   349.26   403.81   418.59   456.61
                              510.41   601.29   611.72   689.66   697.14
                              751.95   761.43   819.64   840.96   907.12
                              919.02   920.32   987.17  1015.90  1034.58
                             1048.21  1103.19  1121.85  1130.93  1159.57
                             1208.46  1239.15  1262.75  1294.61  1334.57
                             1382.73  1403.31  1436.61  1455.40  1459.25
                             1466.02  1473.67  1476.22  1489.48  1508.16
                             1527.08  1533.73  1553.45  1606.74  1616.31
                             1656.28  1697.81  1705.80  1734.86  1747.19
                             1755.09  1767.90  1794.99  1840.58  1886.36
                             1915.40  1937.47  1948.91  1957.62  1970.98
                             2031.83  2079.98  2103.34  2122.08  2145.49
                             2152.16  2168.44  2221.77  2226.64  2248.31
                             2364.08  2368.90  2380.13  2396.28  2409.13
                             2413.03  4422.60  4498.69  4544.12  4556.94
                             4571.40  4593.80  4599.69  4607.23  4607.76
                             4609.18  4621.54  4631.78  4633.70  4644.83
                             4697.87  5050.78  5177.17  5225.01

 Zero-point correction=                           0.311982 (Hartree/Particle)
 Thermal correction to Energy=                    0.329135
 Thermal correction to Enthalpy=                  0.330079
 Thermal correction to Gibbs Free Energy=         0.264282
 Sum of electronic and zero-point Energies=           -804.955767
 Sum of electronic and thermal Energies=              -804.938615
 Sum of electronic and thermal Enthalpies=            -804.937671
 Sum of electronic and thermal Free Energies=         -805.003467

                     E (Thermal)             CV                S
                      KCal/Mol        Cal/Mol-Kelvin    Cal/Mol-Kelvin
 Total                  206.535             65.705            138.480
 Electronic               0.000              0.000              0.000
 Translational            0.889              2.981             42.498
 Rotational               0.889              2.981             33.736
 Vibrational            204.758             59.744             62.246
 Vibration     1          0.593              1.986              6.564
 Vibration     2          0.593              1.985              6.141
 Vibration     3          0.594              1.983              5.566
 Vibration     4          0.596              1.975              4.551
 Vibration     5          0.598              1.968              4.131
 Vibration     6          0.600              1.963              3.896
 Vibration     7          0.603              1.952              3.526
 Vibration     8          0.613              1.921              2.907
 Vibration     9          0.625              1.881              2.450
 Vibration    10          0.639              1.836              2.105
 Vibration    11          0.649              1.805              1.929
 Vibration    12          0.659              1.775              1.783
 Vibration    13          0.680              1.709              1.530
 Vibration    14          0.687              1.691              1.469
 Vibration    15          0.704              1.640              1.324
 Vibration    16          0.731              1.565              1.145
 Vibration    17          0.781              1.431              0.899
 Vibration    18          0.787              1.415              0.875
 Vibration    19          0.836              1.296              0.712
 Vibration    20          0.841              1.284              0.698
 Vibration    21          0.878              1.200              0.604
 Vibration    22          0.884              1.185              0.589
 Vibration    23          0.926              1.097              0.505
 Vibration    24          0.941              1.065              0.477

 Optimization completed.
    -- Stationary point found.
 Normal termination of Gaussian 16 at Thu Feb 11 12:25:17 2021.
