 Gaussian 16, Revision A.03,
 Gaussian 16:  ES64L-G16RevA.03 25-Dec-2016

 ----------------------------------------------------------------------
 # wB97XD def2tzvp, opt=(ts, noeigen, calcfc, maxcycles=70, maxstep=5),
  freq=noraman, scrf=(iefpcm, solvent=water)
 ----------------------------------------------------------------------

 ------------------------
 2_iteration/TS-205-2.out
 ------------------------
 Symbolic Z-matrix:
 Charge =  0 Multiplicity = 1

 SCF Done:  E(RwB97XD) =  -844.587480394     A.U. after   15 cycles
 Optimization completed.
    -- Stationary point found.
 Normal termination of Gaussian 16 at Wed Mar 31 08:44:55 2021.

 ---------------------------------------------------------------------
 #N Geom=AllCheck Guess=TCheck SCRF=Check GenChk RwB97XD/def2TZVP Freq
 ---------------------------------------------------------------------

 Structure from the checkpoint file:  "/beegfs/scratch/user/q/tla25/Gau-37223.chk"
 ------------------------
 2_iteration/TS-205-2.out
 ------------------------
 Charge =  0 Multiplicity = 1

                         Standard orientation:
 ---------------------------------------------------------------------
 Center     Atomic      Atomic             Coordinates (Angstroms)
 Number     Number       Type             X           Y           Z
 ---------------------------------------------------------------------
      1          6           0        0.476712    0.148160   -0.028181
      2          6           0        0.277151    1.571760    0.187419
      3          8           0       -0.593879    2.017350    0.962799
      4          6           0       -0.577418   -0.723030    0.300929
      5          6           0        0.364062   -0.911020    2.942699
      6          1           0        0.333502   -0.544280    3.969599
      7          1           0        0.495392   -1.992060    2.950579
      8          1           0        1.212552   -0.455860    2.431179
      9          7           0       -0.843698   -0.572470    2.207089
     10          1           0       -1.662988   -1.051470    2.558149
     11          1           0       -1.008458    0.433970    2.187749
     12          1           0       -0.291178   -1.771150    0.299959
     13          6           0       -1.998518   -0.563550   -0.147671
     14          6           0       -2.385208    0.428880   -1.043301
     15          6           0       -3.694498    0.510130   -1.492401
     16          6           0       -4.640948   -0.410011   -1.065101
     17          6           0       -4.263228   -1.421850   -0.193911
     18          6           0       -2.953998   -1.497250    0.253349
     19          1           0       -1.652008    1.136860   -1.404261
     20          1           0       -3.974058    1.292890   -2.186521
     21          1           0       -5.662228   -0.347391   -1.418961
     22          1           0       -4.986498   -2.158641    0.132079
     23          1           0       -2.667388   -2.306040    0.916509
     24          6           0        1.802912   -0.417599   -0.333041
     25          6           0        1.924612   -1.585819   -1.100451
     26          6           0        3.156542   -2.168089   -1.355721
     27          6           0        4.322722   -1.588139   -0.877261
     28          6           0        4.230922   -0.421099   -0.130081
     29          6           0        2.997482    0.146861    0.143079
     30          1           0        1.033122   -2.037680   -1.519541
     31          1           0        3.205052   -3.072779   -1.950141
     32          1           0        5.286602   -2.034809   -1.085411
     33          1           0        5.128402    0.043591    0.260829
     34          1           0        2.955762    1.038451    0.756769
     35          7           0        1.070561    2.444610   -0.482951
     36          6           0        1.048441    3.864550   -0.231771
     37          1           0        1.741331    2.080400   -1.134031
     38          1           0        1.208271    4.080570    0.826729
     39          1           0        1.844681    4.332481   -0.807231
     40          1           0        0.096681    4.311860   -0.526941
 ---------------------------------------------------------------------

 SCF Done:  E(RwB97XD) =  -844.587480394     A.U. after    1 cycles

 The electronic state is 1-A.
 Alpha  occ. eigenvalues --  -19.19836 -14.46774 -14.44235 -10.36968 -10.33463
 Alpha  occ. eigenvalues --  -10.30974 -10.30531 -10.30130 -10.29682 -10.29133
 Alpha  occ. eigenvalues --  -10.29042 -10.28983 -10.28924 -10.28855 -10.28372
 Alpha  occ. eigenvalues --  -10.28368 -10.27877 -10.27832 -10.27802 -10.25244
 Alpha  occ. eigenvalues --   -1.12240  -1.02584  -1.00851  -0.96912  -0.95865
 Alpha  occ. eigenvalues --   -0.90185  -0.86333  -0.85137  -0.84263  -0.81670
 Alpha  occ. eigenvalues --   -0.79951  -0.77936  -0.73378  -0.70585  -0.69786
 Alpha  occ. eigenvalues --   -0.68557  -0.67737  -0.65500  -0.62325  -0.62151
 Alpha  occ. eigenvalues --   -0.60412  -0.57494  -0.56282  -0.55571  -0.54876
 Alpha  occ. eigenvalues --   -0.54390  -0.53581  -0.53355  -0.52479  -0.51948
 Alpha  occ. eigenvalues --   -0.51063  -0.50459  -0.49977  -0.49283  -0.47721
 Alpha  occ. eigenvalues --   -0.47137  -0.46861  -0.46605  -0.45958  -0.45350
 Alpha  occ. eigenvalues --   -0.43619  -0.42629  -0.42247  -0.41842  -0.41304
 Alpha  occ. eigenvalues --   -0.35342  -0.33996  -0.33562  -0.33366  -0.32728
 Alpha  occ. eigenvalues --   -0.32394  -0.24638
 Alpha virt. eigenvalues --    0.02414   0.05372   0.05657   0.06090   0.08899
 Alpha virt. eigenvalues --    0.10516   0.12210   0.13521   0.13986   0.14291
 Alpha virt. eigenvalues --    0.15065   0.15506   0.16079   0.16809   0.17152

 Mulliken charges:
               1
     1  C   -0.155146
     2  C    0.334313
     3  O   -0.581015
     4  C    0.036970
     5  C   -0.278138
     6  H    0.146589
     7  H    0.144240
     8  H    0.146483
     9  N   -0.310174
    10  H    0.266407
    11  H    0.267817
    12  H    0.166876
    13  C    0.164376
    14  C   -0.201988
    15  C   -0.143803
    16  C   -0.151815
    17  C   -0.136836
    18  C   -0.304956
    19  H    0.153515
    20  H    0.141293
    21  H    0.143972
    22  H    0.142541
    23  H    0.158551
    24  C    0.084107
    25  C   -0.282673
    26  C   -0.155532
    27  C   -0.165650
    28  C   -0.145280
    29  C   -0.283224
    30  H    0.147797
    31  H    0.134966
    32  H    0.137637
    33  H    0.135236
    34  H    0.158075
    35  N   -0.314635
    36  C   -0.251878
    37  H    0.263482
    38  H    0.124685
    39  H    0.139080
    40  H    0.123733
 Sum of Mulliken charges =  -0.00000

 Dipole moment (field-independent basis, Debye):
    X=             -0.3152    Y=             -2.5673    Z=              2.2604  Tot=              3.4351
 Quadrupole moment (field-independent basis, Debye-Ang):
   XX=           -110.1196   YY=           -112.8854   ZZ=           -110.0277
   XY=             11.8325   XZ=             -0.8794   YZ=            -10.7240

  Exact polarizability: 392.523   3.467 303.191 -11.289  -7.324 259.606
 Approx polarizability: 289.154   4.492 246.815  -6.229  -4.807 218.014

 ******    1 imaginary frequencies (negative Signs) ******

                      1                      2                      3
                      A                      A                      A
 Frequencies --   -401.7915                36.6696                38.1004
 Red. masses --      5.6401                 3.9328                 3.9309
 Frc consts  --      0.5365                 0.0031                 0.0034
 IR Inten    --    882.7150                 0.3209                 2.0567

                      4                      5                      6
                      A                      A                      A
 Frequencies --     52.1039                62.4038                68.3284
 Red. masses --      3.9391                 1.7807                 3.5896
 Frc consts  --      0.0063                 0.0041                 0.0099
 IR Inten    --      9.2494                 0.3262                 1.8798

                      7                      8                      9
                      A                      A                      A
 Frequencies --     75.8604                87.9914               108.7983
 Red. masses --      3.2821                 1.9975                 2.4202
 Frc consts  --      0.0111                 0.0091                 0.0169
 IR Inten    --      1.7208                 0.6509                 2.8085

                     10                     11                     12
                      A                      A                      A
 Frequencies --    137.2002               148.1609               157.9204
 Red. masses --      3.5060                 4.5323                 2.2644
 Frc consts  --      0.0389                 0.0586                 0.0333
 IR Inten    --     22.3833                22.0139                12.7220

                     13                     14                     15
                      A                      A                      A
 Frequencies --    190.5543               213.2673               221.2379
 Red. masses --      1.6940                 4.1688                 2.5373
 Frc consts  --      0.0362                 0.1117                 0.0732
 IR Inten    --      2.7434                 4.6926                18.0687

                     16                     17                     18
                      A                      A                      A
 Frequencies --    263.0560               281.1517               287.0215
 Red. masses --      3.9800                 4.8143                 3.5646
 Frc consts  --      0.1623                 0.2242                 0.1730
 IR Inten    --     19.9955                 5.5185                 3.2216

                     19                     20                     21
                      A                      A                      A
 Frequencies --    324.1979               345.3267               412.1578
 Red. masses --      4.2035                 4.0772                 6.3510
 Frc consts  --      0.2603                 0.2865                 0.6357
 IR Inten    --     28.1129                48.7946                18.7814

                     22                     23                     24
                      A                      A                      A
 Frequencies --    422.3477               423.4617               452.5015
 Red. masses --      2.6912                 2.7657                 1.8884
 Frc consts  --      0.2828                 0.2922                 0.2278
 IR Inten    --      7.4627                 9.0621                29.8232

                     25                     26                     27
                      A                      A                      A
 Frequencies --    489.8817               522.9273               557.0451
 Red. masses --      1.9604                 3.1816                 3.3756
 Frc consts  --      0.2772                 0.5126                 0.6171
 IR Inten    --     90.7818                51.9108                74.7937

                     28                     29                     30
                      A                      A                      A
 Frequencies --    611.4903               622.3225               639.1685
 Red. masses --      3.1710                 5.2833                 6.0225
 Frc consts  --      0.6986                 1.2056                 1.4496
 IR Inten    --     22.1992                 7.5986                 2.9879

                     31                     32                     33
                      A                      A                      A
 Frequencies --    644.3668               676.7909               720.2164
 Red. masses --      5.4296                 4.5367                 1.6177
 Frc consts  --      1.3283                 1.2243                 0.4944
 IR Inten    --      1.1856                37.9364                83.8195

                     34                     35                     36
                      A                      A                      A
 Frequencies --    728.2734               732.4930               779.2973
 Red. masses --      1.7679                 1.7592                 2.0511
 Frc consts  --      0.5524                 0.5561                 0.7339
 IR Inten    --     40.6764               126.6434                61.6158

                     37                     38                     39
                      A                      A                      A
 Frequencies --    787.8544               808.2209               850.0587
 Red. masses --      2.9358                 3.7325                 3.5863
 Frc consts  --      1.0737                 1.4365                 1.5268
 IR Inten    --      7.6104                63.8846                23.2453

                     40                     41                     42
                      A                      A                      A
 Frequencies --    861.8287               875.1327               877.5788
 Red. masses --      3.2423                 1.3265                 1.2480
 Frc consts  --      1.4189                 0.5986                 0.5663
 IR Inten    --     14.5288                 5.7380                 2.4229

                     43                     44                     45
                      A                      A                      A
 Frequencies --    939.5872               961.9641               993.5870
 Red. masses --      1.4740                 1.4527                 1.1335
 Frc consts  --      0.7667                 0.7920                 0.6593
 IR Inten    --      2.9829                 8.2577                91.4462

                     46                     47                     48
                      A                      A                      A
 Frequencies --   1002.0606              1007.2198              1015.6452
 Red. masses --      3.3340                 1.4016                 1.2978
 Frc consts  --      1.9725                 0.8378                 0.7887
 IR Inten    --      6.6282                 1.2283                 0.4949

                     49                     50                     51
                      A                      A                      A
 Frequencies --   1016.3887              1019.2447              1026.9962
 Red. masses --      1.3591                 4.7582                 4.9786
 Frc consts  --      0.8272                 2.9124                 3.0938
 IR Inten    --      6.4801                 9.0377                 0.4911

                     52                     53                     54
                      A                      A                      A
 Frequencies --   1029.9218              1058.7480              1064.6037
 Red. masses --      1.3539                 1.6463                 2.0777
 Frc consts  --      0.8461                 1.0873                 1.3874
 IR Inten    --      2.5395                39.5697                23.0078

                     55                     56                     57
                      A                      A                      A
 Frequencies --   1070.2615              1093.6556              1100.6433
 Red. masses --      1.6304                 3.8191                 2.7154
 Frc consts  --      1.1003                 2.6913                 1.9381
 IR Inten    --     11.5738                58.9762                26.2363

                     58                     59                     60
                      A                      A                      A
 Frequencies --   1112.3252              1120.4323              1136.7167
 Red. masses --      1.5814                 1.6089                 1.2215
 Frc consts  --      1.1528                 1.1900                 0.9299
 IR Inten    --      9.5803                19.6173                71.1819

                     61                     62                     63
                      A                      A                      A
 Frequencies --   1157.3389              1180.8729              1183.9485
 Red. masses --      1.2918                 1.1217                 1.1337
 Frc consts  --      1.0194                 0.9216                 0.9363
 IR Inten    --      0.7664                 2.1187                 0.2178

                     64                     65                     66
                      A                      A                      A
 Frequencies --   1188.1750              1203.9984              1214.8342
 Red. masses --      1.7302                 1.3788                 1.1948
 Frc consts  --      1.4392                 1.1776                 1.0389
 IR Inten    --     34.3010                38.1565                 5.0380

                     67                     68                     69
                      A                      A                      A
 Frequencies --   1215.6984              1221.4072              1274.0598
 Red. masses --      1.2062                 2.2540                 1.8115
 Frc consts  --      1.0504                 1.9812                 1.7325
 IR Inten    --     14.9683                14.7739               131.0848

                     70                     71                     72
                      A                      A                      A
 Frequencies --   1287.3380              1304.3489              1334.3350
 Red. masses --      2.9097                 4.1206                 4.8957
 Frc consts  --      2.8410                 4.1305                 5.1357
 IR Inten    --    116.8720                88.8244                62.8790

                     73                     74                     75
                      A                      A                      A
 Frequencies --   1350.6293              1353.0934              1364.7865
 Red. masses --      1.7510                 1.6987                 1.4158
 Frc consts  --      1.8820                 1.8325                 1.5537
 IR Inten    --     97.3337                90.4671                30.4678

                     76                     77                     78
                      A                      A                      A
 Frequencies --   1377.1153              1446.6071              1456.5481
 Red. masses --      1.5906                 1.5649                 1.2543
 Frc consts  --      1.7772                 1.9294                 1.5678
 IR Inten    --    158.0815               132.9542                34.1731

                     79                     80                     81
                      A                      A                      A
 Frequencies --   1464.0494              1475.6723              1489.0773
 Red. masses --      1.7113                 1.0459                 2.2599
 Frc consts  --      2.1612                 1.3419                 2.9523
 IR Inten    --     97.7656                13.0655                 0.3599

                     82                     83                     84
                      A                      A                      A
 Frequencies --   1490.8628              1502.8732              1505.2350
 Red. masses --      1.0434                 1.8513                 1.1685
 Frc consts  --      1.3664                 2.4636                 1.5598
 IR Inten    --     11.5596                87.5289                15.4813

                     85                     86                     87
                      A                      A                      A
 Frequencies --   1507.1818              1537.9757              1546.7060
 Red. masses --      1.1158                 2.2464                 2.3740
 Frc consts  --      1.4933                 3.1307                 3.3462
 IR Inten    --     20.5160               181.5691                 8.8056

                     88                     89                     90
                      A                      A                      A
 Frequencies --   1553.7141              1614.9667              1634.4388
 Red. masses --      2.0366                 3.5454                 4.9484
 Frc consts  --      2.8967                 5.4481                 7.7885
 IR Inten    --    681.5060               818.2659                53.5720

                     91                     92                     93
                      A                      A                      A
 Frequencies --   1652.7942              1655.2091              1666.9520
 Red. masses --      3.0012                 1.6113                 5.5132
 Frc consts  --      4.8305                 2.6009                 9.0262
 IR Inten    --      5.9171                41.0927                39.3802

                     94                     95                     96
                      A                      A                      A
 Frequencies --   1675.9498              3046.3524              3060.4058
 Red. masses --      5.8351                 1.0358                 1.0333
 Frc consts  --      9.6566                 5.6634                 5.7018
 IR Inten    --      1.4565                94.0947                60.7269

                     97                     98                     99
                      A                      A                      A
 Frequencies --   3101.0461              3135.5422              3154.5848
 Red. masses --      1.1042                 1.1039                 1.1044
 Frc consts  --      6.2561                 6.3944                 6.4755
 IR Inten    --     48.2555                15.0359                24.0923

                    100                    101                    102
                      A                      A                      A
 Frequencies --   3155.6941              3157.3931              3183.0245
 Red. masses --      1.1013                 1.0885                 1.0856
 Frc consts  --      6.4615                 6.3936                 6.4805
 IR Inten    --     25.7169                 7.2428                16.5967

                    103                    104                    105
                      A                      A                      A
 Frequencies --   3184.2353              3188.5649              3196.2561
 Red. masses --      1.0882                 1.0872                 1.0873
 Frc consts  --      6.5007                 6.5125                 6.5443
 IR Inten    --     11.7170                 1.6328                 0.1499

                    106                    107                    108
                      A                      A                      A
 Frequencies --   3199.1151              3205.8302              3206.5209
 Red. masses --      1.0919                 1.0934                 1.0921
 Frc consts  --      6.5843                 6.6206                 6.6155
 IR Inten    --     24.7175                43.8866                24.2055

                    109                    110                    111
                      A                      A                      A
 Frequencies --   3216.9674              3218.3672              3226.0900
 Red. masses --      1.0984                 1.0957                 1.0958
 Frc consts  --      6.6971                 6.6868                 6.7197
 IR Inten    --     24.1993                29.2559                11.5934

                    112                    113                    114
                      A                      A                      A
 Frequencies --   3433.1523              3596.0097              3685.7970
 Red. masses --      1.0618                 1.0871                 1.0780
 Frc consts  --      7.3737                 8.2822                 8.6287
 IR Inten    --    121.0570                76.5831                69.2979

 - Thermochemistry -
 -------------------
 Temperature   298.150 Kelvin.  Pressure   1.00000 Atm.
 Atom     1 has atomic number  6 and mass  12.00000

 Molecular mass:   268.15756 amu.
 Principal axes and moments of inertia in atomic units:
                           1         2         3
     Eigenvalues --  3641.387417835.854988926.41524
           X            0.99997   0.00810   0.00158
           Y           -0.00805   0.99940  -0.03365
           Z           -0.00185   0.03364   0.99943
 This molecule is an asymmetric top.
 Rotational symmetry number  1.
 Warning -- assumption of classical behavior for rotation
           may cause significant error
 Rotational temperatures (Kelvin)      0.02379     0.01105     0.00970
 Rotational constants (GHZ):           0.49562     0.23032     0.20218
    1 imaginary frequencies ignored.
 Zero-point vibrational energy     891244.9 (Joules/Mol)
                                  213.01264 (Kcal/Mol)
 Warning -- explicit consideration of  27 degrees of freedom as
           vibrations may cause significant error
 Vibrational temperatures:     52.76    54.82    74.97    89.79    98.31
          (Kelvin)            109.15   126.60   156.54   197.40   213.17
                              227.21   274.17   306.84   318.31   378.48
                              404.51   412.96   466.45   496.85   593.00
                              607.66   609.27   651.05   704.83   752.38
                              801.46   879.80   895.38   919.62   927.10
                              973.75  1036.23  1047.82  1053.89  1121.23
                             1133.55  1162.85  1223.04  1239.98  1259.12
                             1262.64  1351.86  1384.05  1429.55  1441.74
                             1449.16  1461.29  1462.36  1466.47  1477.62
                             1481.83  1523.30  1531.73  1539.87  1573.53
                             1583.58  1600.39  1612.05  1635.48  1665.15
                             1699.01  1703.44  1709.52  1732.29  1747.88
                             1749.12  1757.33  1833.09  1852.19  1876.67
                             1919.81  1943.25  1946.80  1963.62  1981.36
                             2081.34  2095.65  2106.44  2123.16  2142.45
                             2145.02  2162.30  2165.70  2168.50  2212.80
                             2225.37  2235.45  2323.58  2351.59  2378.00
                             2381.48  2398.37  2411.32  4383.02  4403.24
                             4461.71  4511.35  4538.74  4540.34  4542.78
                             4579.66  4581.40  4587.63  4598.70  4602.81
                             4612.47  4613.47  4628.50  4630.51  4641.62
                             4939.54  5173.86  5303.04

 Zero-point correction=                           0.339457 (Hartree/Particle)
 Thermal correction to Energy=                    0.358521
 Thermal correction to Enthalpy=                  0.359465
 Thermal correction to Gibbs Free Energy=         0.290766
 Sum of electronic and zero-point Energies=           -844.248023
 Sum of electronic and thermal Energies=              -844.228959
 Sum of electronic and thermal Enthalpies=            -844.228015
 Sum of electronic and thermal Free Energies=         -844.296714

                     E (Thermal)             CV                S
                      KCal/Mol        Cal/Mol-Kelvin    Cal/Mol-Kelvin
 Total                  224.976             71.746            144.590
 Electronic               0.000              0.000              0.000
 Translational            0.889              2.981             42.658
 Rotational               0.889              2.981             33.898
 Vibrational            223.198             65.784             68.033
 Vibration     1          0.594              1.982              5.431
 Vibration     2          0.594              1.982              5.355
 Vibration     3          0.596              1.977              4.736
 Vibration     4          0.597              1.972              4.380
 Vibration     5          0.598              1.969              4.201
 Vibration     6          0.599              1.965              3.995
 Vibration     7          0.601              1.958              3.704
 Vibration     8          0.606              1.942              3.290
 Vibration     9          0.614              1.916              2.843
 Vibration    10          0.618              1.905              2.696
 Vibration    11          0.621              1.894              2.575
 Vibration    12          0.634              1.853              2.222
 Vibration    13          0.644              1.821              2.016
 Vibration    14          0.648              1.809              1.949
 Vibration    15          0.670              1.741              1.641
 Vibration    16          0.681              1.709              1.527
 Vibration    17          0.684              1.698              1.491
 Vibration    18          0.709              1.627              1.289
 Vibration    19          0.724              1.585              1.187
 Vibration    20          0.776              1.444              0.919
 Vibration    21          0.785              1.422              0.884
 Vibration    22          0.786              1.419              0.880
 Vibration    23          0.811              1.355              0.788
 Vibration    24          0.846              1.272              0.684
 Vibration    25          0.878              1.199              0.603
 Vibration    26          0.913              1.124              0.530
 Vibration    27          0.971              1.008              0.430

 Optimization completed.
    -- Stationary point found.
 Normal termination of Gaussian 16 at Wed Mar 31 11:14:12 2021.
