 Gaussian 16, Revision A.03,
 Gaussian 16:  ES64L-G16RevA.03 25-Dec-2016

 ----------------------------------------------------------------------
 # wB97XD def2tzvp, opt=(ts, noeigen, calcfc, maxcycles=70, maxstep=8),
  freq=noraman, scrf=(iefpcm, solvent=water)
 ----------------------------------------------------------------------

 ------------------------
 1_iteration/TS-284-1.out
 ------------------------
 Symbolic Z-matrix:
 Charge =  0 Multiplicity = 1

 SCF Done:  E(RwB97XD) =  -672.718289875     A.U. after   14 cycles
 SCF Done:  E(RwB97XD) =  -672.718291551     A.U. after   10 cycles
 SCF Done:  E(RwB97XD) =  -672.718291587     A.U. after    7 cycles
 Optimization completed.
    -- Stationary point found.
 Normal termination of Gaussian 16 at Wed Feb 10 09:37:43 2021.

 ---------------------------------------------------------------------
 #N Geom=AllCheck Guess=TCheck SCRF=Check GenChk RwB97XD/def2TZVP Freq
 ---------------------------------------------------------------------

 Structure from the checkpoint file:  "/beegfs/scratch/user/q/tla25/Gau-101433.chk"
 ------------------------
 1_iteration/TS-284-1.out
 ------------------------
 Charge =  0 Multiplicity = 1

                         Standard orientation:
 ---------------------------------------------------------------------
 Center     Atomic      Atomic             Coordinates (Angstroms)
 Number     Number       Type             X           Y           Z
 ---------------------------------------------------------------------
      1          6           0        0.391245    0.167231    0.394608
      2          6           0        0.853021    1.494727    0.120552
      3          8           0        2.016092    1.853583   -0.042713
      4          6           0        1.312348   -0.858959    0.671061
      5          6           0        2.710651   -2.786554   -1.062713
      6          1           0        2.838425   -3.159939   -2.079924
      7          1           0        3.690487   -2.573969   -0.640923
      8          1           0        2.228206   -3.556033   -0.460849
      9          7           0        1.894853   -1.574576   -1.024814
     10          1           0        2.361536   -0.785440   -1.456621
     11          1           0        1.011165   -1.704972   -1.502099
     12          1           0        0.841785   -1.791427    0.968196
     13          6           0        2.644502   -0.660645    1.341493
     14          1           0        2.467197   -0.278147    2.348905
     15          1           0        3.176690   -1.606503    1.435929
     16          1           0        3.262820    0.060779    0.816048
     17          6           0       -1.031906   -0.211704    0.218783
     18          6           0       -1.774742    0.177354   -0.902486
     19          6           0       -3.089068   -0.225587   -1.076812
     20          6           0       -3.704676   -1.045020   -0.139365
     21          6           0       -2.986273   -1.448011    0.976644
     22          6           0       -1.674989   -1.030518    1.153363
     23          1           0       -1.308666    0.804386   -1.652072
     24          1           0       -3.633404    0.092917   -1.957938
     25          1           0       -4.730314   -1.363466   -0.277352
     26          1           0       -3.451698   -2.080847    1.722854
     27          1           0       -1.139223   -1.336279    2.044874
     28          8           0       -0.149712    2.414213    0.067157
     29          6           0        0.227887    3.743048   -0.250947
     30          1           0       -0.695018    4.318567   -0.269772
     31          1           0        0.903410    4.154139    0.500373
     32          1           0        0.713583    3.793728   -1.226581
 ---------------------------------------------------------------------

 SCF Done:  E(RwB97XD) =  -672.718291587     A.U. after    1 cycles

 The electronic state is 1-A.
 Alpha  occ. eigenvalues --  -19.27294 -19.20454 -14.47605 -10.38744 -10.33447
 Alpha  occ. eigenvalues --  -10.32220 -10.31609 -10.29330 -10.28304 -10.28267
 Alpha  occ. eigenvalues --  -10.28000 -10.27869 -10.27775 -10.27247 -10.25298
 Alpha  occ. eigenvalues --   -1.18610  -1.08921  -1.03144  -0.95955  -0.90466
 Alpha  occ. eigenvalues --   -0.85094  -0.84167  -0.82107  -0.78992  -0.77284
 Alpha  occ. eigenvalues --   -0.70654  -0.68870  -0.68247  -0.63399  -0.62259
 Alpha  occ. eigenvalues --   -0.61151  -0.57526  -0.56228  -0.55761  -0.55030
 Alpha  occ. eigenvalues --   -0.54200  -0.53233  -0.52980  -0.51964  -0.49966
 Alpha  occ. eigenvalues --   -0.49119  -0.48929  -0.48061  -0.47010  -0.46333
 Alpha  occ. eigenvalues --   -0.45531  -0.44667  -0.43242  -0.41760  -0.41494
 Alpha  occ. eigenvalues --   -0.40811  -0.37331  -0.35102  -0.33235  -0.32865
 Alpha  occ. eigenvalues --   -0.25628
 Alpha virt. eigenvalues --    0.05611   0.06016   0.06756   0.10171   0.12709
 Alpha virt. eigenvalues --    0.13689   0.13895   0.15071   0.15344   0.16500
 Alpha virt. eigenvalues --    0.17561   0.17713   0.18165   0.18458   0.18879

 Mulliken charges:
               1
     1  C   -0.173144
     2  C    0.398687
     3  O   -0.525347
     4  C   -0.070439
     5  C   -0.289988
     6  H    0.151011
     7  H    0.156747
     8  H    0.150449
     9  N   -0.330982
    10  H    0.278047
    11  H    0.278911
    12  H    0.148585
    13  C   -0.351419
    14  H    0.136297
    15  H    0.137675
    16  H    0.145213
    17  C    0.178441
    18  C   -0.262961
    19  C   -0.137709
    20  C   -0.166817
    21  C   -0.146166
    22  C   -0.268607
    23  H    0.133413
    24  H    0.135216
    25  H    0.138202
    26  H    0.135582
    27  H    0.145484
    28  O   -0.308517
    29  C   -0.191938
    30  H    0.133575
    31  H    0.121504
    32  H    0.120993
 Sum of Mulliken charges =  -0.00000

 Dipole moment (field-independent basis, Debye):
    X=              2.4695    Y=             -6.0183    Z=             -2.9077  Tot=              7.1255
 Quadrupole moment (field-independent basis, Debye-Ang):
   XX=            -88.0397   YY=            -80.7829   ZZ=            -83.5454
   XY=            -13.5176   XZ=             -2.6230   YZ=             -0.2830

  Exact polarizability: 258.726   3.122 226.657   4.353 -13.496 191.849
 Approx polarizability: 197.815   6.269 174.447   2.967 -13.426 164.051

 ******    1 imaginary frequencies (negative Signs) ******

                      1                      2                      3
                      A                      A                      A
 Frequencies --   -357.9665                23.8048                43.0204
 Red. masses --      6.1831                 3.5715                 3.2798
 Frc consts  --      0.4668                 0.0012                 0.0036
 IR Inten    --    935.9299                 5.9101                 4.9820

                      4                      5                      6
                      A                      A                      A
 Frequencies --     51.0682                65.0475                72.2033
 Red. masses --      2.2108                 3.8157                 3.5205
 Frc consts  --      0.0034                 0.0095                 0.0108
 IR Inten    --      3.5655                 4.6546                 2.0704

                      7                      8                      9
                      A                      A                      A
 Frequencies --     91.4531               141.1153               141.5450
 Red. masses --      3.4879                 1.2165                 2.3869
 Frc consts  --      0.0172                 0.0143                 0.0282
 IR Inten    --      3.6023                 1.6819                 7.8978

                     10                     11                     12
                      A                      A                      A
 Frequencies --    174.4118               176.5638               202.2271
 Red. masses --      1.5026                 1.8546                 2.8047
 Frc consts  --      0.0269                 0.0341                 0.0676
 IR Inten    --      4.2464                 5.7155                 2.4778

                     13                     14                     15
                      A                      A                      A
 Frequencies --    228.3600               255.9917               289.7593
 Red. masses --      1.7422                 2.3999                 3.8005
 Frc consts  --      0.0535                 0.0927                 0.1880
 IR Inten    --     20.4265                 1.8275                53.7149

                     16                     17                     18
                      A                      A                      A
 Frequencies --    314.5959               348.4506               390.6489
 Red. masses --      3.4698                 3.4489                 3.7582
 Frc consts  --      0.2023                 0.2467                 0.3379
 IR Inten    --     26.3102                11.6621                12.5160

                     19                     20                     21
                      A                      A                      A
 Frequencies --    424.6503               425.4942               497.9693
 Red. masses --      3.2603                 4.0663                 4.5710
 Frc consts  --      0.3464                 0.4337                 0.6678
 IR Inten    --      3.8233                 1.0854               102.0401

                     22                     23                     24
                      A                      A                      A
 Frequencies --    532.4691               607.9952               638.1239
 Red. masses --      3.5639                 2.9501                 6.1431
 Frc consts  --      0.5953                 0.6425                 1.4738
 IR Inten    --      7.4324                25.7092                 0.7970

                     25                     26                     27
                      A                      A                      A
 Frequencies --    654.1436               679.4530               725.5439
 Red. masses --      1.5893                 3.8727                 1.5739
 Frc consts  --      0.4007                 1.0534                 0.4882
 IR Inten    --     23.3151                 6.8954                87.6253

                     28                     29                     30
                      A                      A                      A
 Frequencies --    788.9988               792.9937               813.2238
 Red. masses --      2.6059                 5.6290                 4.6421
 Frc consts  --      0.9558                 2.0856                 1.8088
 IR Inten    --      1.1202                15.8749               111.4243

                     31                     32                     33
                      A                      A                      A
 Frequencies --    871.6580               939.3389               953.9468
 Red. masses --      1.2512                 1.5634                 1.6720
 Frc consts  --      0.5601                 0.8128                 0.8965
 IR Inten    --      1.8182                 2.8586                29.3869

                     34                     35                     36
                      A                      A                      A
 Frequencies --    970.9298               998.2708              1005.4026
 Red. masses --      3.7666                 1.2373                 1.3649
 Frc consts  --      2.0920                 0.7265                 0.8129
 IR Inten    --     88.1940                12.2181                 1.2406

                     37                     38                     39
                      A                      A                      A
 Frequencies --   1016.8223              1022.8420              1036.8606
 Red. masses --      1.3041                 5.3988                 1.2485
 Frc consts  --      0.7944                 3.3278                 0.7908
 IR Inten    --      0.4630                 5.5708               101.6193

                     40                     41                     42
                      A                      A                      A
 Frequencies --   1041.8421              1066.9369              1071.5044
 Red. masses --      1.5947                 1.9364                 3.6521
 Frc consts  --      1.0199                 1.2988                 2.4705
 IR Inten    --     11.7216                 8.4033               192.4511

                     43                     44                     45
                      A                      A                      A
 Frequencies --   1092.9055              1110.1206              1150.0493
 Red. masses --      2.8598                 1.5764                 2.7891
 Frc consts  --      2.0126                 1.1446                 2.1735
 IR Inten    --    150.8723                14.5075                94.6275

                     46                     47                     48
                      A                      A                      A
 Frequencies --   1178.0009              1182.4145              1186.1913
 Red. masses --      1.1417                 1.2805                 1.2002
 Frc consts  --      0.9335                 1.0548                 0.9949
 IR Inten    --     35.6971                 0.9790               192.9426

                     49                     50                     51
                      A                      A                      A
 Frequencies --   1210.7886              1211.5279              1219.3722
 Red. masses --      1.2339                 1.4168                 1.4697
 Frc consts  --      1.0658                 1.2252                 1.2875
 IR Inten    --      3.0492                13.3121                43.3071

                     52                     53                     54
                      A                      A                      A
 Frequencies --   1230.2616              1304.7051              1308.8991
 Red. masses --      3.0076                 3.3205                 2.6136
 Frc consts  --      2.6820                 3.3303                 2.6382
 IR Inten    --    452.2317                49.1183                32.8040

                     55                     56                     57
                      A                      A                      A
 Frequencies --   1345.1419              1355.9507              1388.2198
 Red. masses --      1.3097                 1.7331                 2.3295
 Frc consts  --      1.3963                 1.8775                 2.6450
 IR Inten    --      1.4439                86.4195               441.3218

                     58                     59                     60
                      A                      A                      A
 Frequencies --   1401.9015              1453.7804              1470.8407
 Red. masses --      1.2709                 1.3057                 1.2373
 Frc consts  --      1.4716                 1.6259                 1.5771
 IR Inten    --     42.9106                67.9957                66.5624

                     61                     62                     63
                      A                      A                      A
 Frequencies --   1478.6475              1479.7985              1482.1387
 Red. masses --      1.2267                 1.2280                 1.0615
 Frc consts  --      1.5803                 1.5843                 1.3739
 IR Inten    --     29.2350                48.6157                12.4114

                     64                     65                     66
                      A                      A                      A
 Frequencies --   1489.2309              1493.9729              1497.5069
 Red. masses --      1.5694                 1.1223                 1.0843
 Frc consts  --      2.0507                 1.4759                 1.4326
 IR Inten    --     19.6814                40.8317                17.3794

                     67                     68                     69
                      A                      A                      A
 Frequencies --   1504.4596              1513.4870              1541.1785
 Red. masses --      1.4883                 1.0933                 2.3567
 Frc consts  --      1.9848                 1.4755                 3.2981
 IR Inten    --     98.1683                36.9763                88.1063

                     70                     71                     72
                      A                      A                      A
 Frequencies --   1638.7122              1647.1065              1662.9328
 Red. masses --      5.5957                 1.0940                 6.3038
 Frc consts  --      8.8534                 1.7486                10.2707
 IR Inten    --     29.8502                52.9438               435.1788

                     73                     74                     75
                      A                      A                      A
 Frequencies --   1684.8719              3055.5209              3063.1233
 Red. masses --      8.3169                 1.0311                 1.0354
 Frc consts  --     13.9106                 5.6719                 5.7241
 IR Inten    --    546.5263                78.2002                56.9464

                     76                     77                     78
                      A                      A                      A
 Frequencies --   3067.1374              3127.1867              3132.5777
 Red. masses --      1.0400                 1.1062                 1.0995
 Frc consts  --      5.7641                 6.3735                 6.3567
 IR Inten    --     29.0709                45.9473                36.8561

                     79                     80                     81
                      A                      A                      A
 Frequencies --   3137.9705              3157.3356              3162.3292
 Red. masses --      1.1033                 1.0897                 1.1047
 Frc consts  --      6.4012                 6.4005                 6.5088
 IR Inten    --     21.2622                15.1807                30.6503

                     82                     83                     84
                      A                      A                      A
 Frequencies --   3166.5003              3181.7031              3184.1853
 Red. masses --      1.1045                 1.0868                 1.0994
 Frc consts  --      6.5252                 6.4822                 6.5676
 IR Inten    --     18.5442                13.8701                 7.6973

                     85                     86                     87
                      A                      A                      A
 Frequencies --   3187.9053              3198.4341              3206.9589
 Red. masses --      1.0873                 1.0920                 1.0937
 Frc consts  --      6.5106                 6.5818                 6.6271
 IR Inten    --      0.5064                29.0289                49.2046

                     88                     89                     90
                      A                      A                      A
 Frequencies --   3216.3582              3529.5935              3610.9163
 Red. masses --      1.0984                 1.0511                 1.0963
 Frc consts  --      6.6949                 7.7150                 8.4223
 IR Inten    --     19.0591                15.8196                45.5003

 - Thermochemistry -
 -------------------
 Temperature   298.150 Kelvin.  Pressure   1.00000 Atm.
 Atom     1 has atomic number  6 and mass  12.00000

 Molecular mass:   207.12593 amu.
 Principal axes and moments of inertia in atomic units:
                           1         2         3
     Eigenvalues --  2782.027703748.166105498.65842
           X            0.99726  -0.07391   0.00220
           Y            0.07392   0.99725  -0.00456
           Z           -0.00186   0.00471   0.99999
 This molecule is an asymmetric top.
 Rotational symmetry number  1.
 Warning -- assumption of classical behavior for rotation
           may cause significant error
 Rotational temperatures (Kelvin)      0.03113     0.02311     0.01575
 Rotational constants (GHZ):           0.64871     0.48150     0.32821
    1 imaginary frequencies ignored.
 Zero-point vibrational energy     717092.7 (Joules/Mol)
                                  171.38926 (Kcal/Mol)
 Warning -- explicit consideration of  22 degrees of freedom as
           vibrations may cause significant error
 Vibrational temperatures:     34.25    61.90    73.48    93.59   103.88
          (Kelvin)            131.58   203.03   203.65   250.94   254.04
                              290.96   328.56   368.32   416.90   452.63
                              501.34   562.06   610.98   612.19   716.47
                              766.10   874.77   918.12   941.17   977.58
                             1043.90  1135.19  1140.94  1170.05  1254.12
                             1351.50  1372.52  1396.95  1436.29  1446.55
                             1462.98  1471.64  1491.81  1498.98  1535.08
                             1541.66  1572.45  1597.22  1654.66  1694.88
                             1701.23  1706.66  1742.05  1743.12  1754.40
                             1770.07  1877.18  1883.21  1935.36  1950.91
                             1997.34  2017.02  2091.67  2116.21  2127.44
                             2129.10  2132.47  2142.67  2149.49  2154.58
                             2164.58  2177.57  2217.41  2357.74  2369.82
                             2392.59  2424.15  4396.21  4407.15  4412.93
                             4499.32  4507.08  4514.84  4542.70  4549.89
                             4555.89  4577.76  4581.33  4586.68  4601.83
                             4614.10  4627.62  5078.30  5195.30

 Zero-point correction=                           0.273126 (Hartree/Particle)
 Thermal correction to Energy=                    0.289111
 Thermal correction to Enthalpy=                  0.290056
 Thermal correction to Gibbs Free Energy=         0.227893
 Sum of electronic and zero-point Energies=           -672.445165
 Sum of electronic and thermal Energies=              -672.429180
 Sum of electronic and thermal Enthalpies=            -672.428236
 Sum of electronic and thermal Free Energies=         -672.490398

                     E (Thermal)             CV                S
                      KCal/Mol        Cal/Mol-Kelvin    Cal/Mol-Kelvin
 Total                  181.420             57.501            130.832
 Electronic               0.000              0.000              0.000
 Translational            0.889              2.981             41.888
 Rotational               0.889              2.981             32.417
 Vibrational            179.643             51.539             56.526
 Vibration     1          0.593              1.985              6.288
 Vibration     2          0.595              1.980              5.115
 Vibration     3          0.595              1.977              4.776
 Vibration     4          0.597              1.971              4.298
 Vibration     5          0.598              1.967              4.092
 Vibration     6          0.602              1.955              3.629
 Vibration     7          0.615              1.912              2.789
 Vibration     8          0.615              1.912              2.783
 Vibration     9          0.627              1.874              2.387
 Vibration    10          0.628              1.871              2.364
 Vibration    11          0.639              1.837              2.113
 Vibration    12          0.651              1.798              1.892
 Vibration    13          0.666              1.753              1.689
 Vibration    14          0.686              1.693              1.475
 Vibration    15          0.702              1.646              1.338
 Vibration    16          0.726              1.578              1.173
 Vibration    17          0.758              1.490              0.998
 Vibration    18          0.787              1.417              0.876
 Vibration    19          0.787              1.415              0.874
 Vibration    20          0.853              1.255              0.663
 Vibration    21          0.887              1.178              0.582
 Vibration    22          0.967              1.015              0.436

 Optimization completed.
    -- Stationary point found.
 Normal termination of Gaussian 16 at Wed Feb 10 10:39:14 2021.
