 Gaussian 16, Revision A.03,
 Gaussian 16:  ES64L-G16RevA.03 25-Dec-2016

 ----------------------------------------------------------------------
 # wB97XD def2tzvp, opt=(ts, noeigen, calcfc, maxcycles=70, maxstep=1),
  freq=noraman, scrf=(iefpcm, solvent=water)
 ----------------------------------------------------------------------

 ------------------------
 0_iteration/TS-256-0.out
 ------------------------
 Symbolic Z-matrix:
 Charge =  0 Multiplicity = 1

 SCF Done:  E(RwB97XD) =  -518.844772303     A.U. after   15 cycles
 SCF Done:  E(RwB97XD) =  -518.844642146     A.U. after   10 cycles
 SCF Done:  E(RwB97XD) =  -518.844521095     A.U. after   10 cycles
 SCF Done:  E(RwB97XD) =  -518.844417692     A.U. after   10 cycles
 SCF Done:  E(RwB97XD) =  -518.844306828     A.U. after   10 cycles
 SCF Done:  E(RwB97XD) =  -518.844203933     A.U. after   10 cycles
 SCF Done:  E(RwB97XD) =  -518.844106314     A.U. after   10 cycles
 SCF Done:  E(RwB97XD) =  -518.844044107     A.U. after   11 cycles
 SCF Done:  E(RwB97XD) =  -518.843947752     A.U. after   10 cycles
 SCF Done:  E(RwB97XD) =  -518.843854465     A.U. after   10 cycles
 SCF Done:  E(RwB97XD) =  -518.845095908     A.U. after    8 cycles
 SCF Done:  E(RwB97XD) =  -518.845170374     A.U. after    8 cycles
 SCF Done:  E(RwB97XD) =  -518.845234607     A.U. after    8 cycles
 SCF Done:  E(RwB97XD) =  -518.845288146     A.U. after    9 cycles
 SCF Done:  E(RwB97XD) =  -518.845330605     A.U. after    9 cycles
 SCF Done:  E(RwB97XD) =  -518.845361855     A.U. after    9 cycles
 SCF Done:  E(RwB97XD) =  -518.845381650     A.U. after   10 cycles
 SCF Done:  E(RwB97XD) =  -518.845389924     A.U. after   10 cycles
 SCF Done:  E(RwB97XD) =  -518.845390137     A.U. after    8 cycles
 Optimization completed.
    -- Stationary point found.
 Normal termination of Gaussian 16 at Wed Feb 10 03:02:06 2021.

 ---------------------------------------------------------------------
 #N Geom=AllCheck Guess=TCheck SCRF=Check GenChk RwB97XD/def2TZVP Freq
 ---------------------------------------------------------------------

 Structure from the checkpoint file:  "/beegfs/scratch/user/q/tla25/Gau-1326.chk"
 ------------------------
 0_iteration/TS-256-0.out
 ------------------------
 Charge =  0 Multiplicity = 1

                         Standard orientation:
 ---------------------------------------------------------------------
 Center     Atomic      Atomic             Coordinates (Angstroms)
 Number     Number       Type             X           Y           Z
 ---------------------------------------------------------------------
      1          6           0       -1.066620    0.940095    0.207612
      2          6           0       -0.217483   -0.174399    0.485536
      3          8           0       -0.628663   -1.240607    0.965795
      4          6           0       -2.394662    0.905518    0.571701
      5          6           0       -4.910735   -0.306527   -0.395060
      6          1           0       -4.936672   -0.828086    0.561346
      7          1           0       -5.392208    0.662988   -0.271668
      8          1           0       -5.474450   -0.888773   -1.126960
      9          7           0       -3.522144   -0.102406   -0.786381
     10          1           0       -3.016536   -0.973608   -0.881030
     11          1           0       -3.437003    0.410641   -1.654057
     12          1           0       -2.999118    1.799099    0.485261
     13          1           0       -2.704020    0.208574    1.340722
     14          1           0       -0.690511    1.770637   -0.373014
     15          6           0        1.250592   -0.056643    0.162882
     16          6           0        1.981181   -1.220481   -0.065828
     17          6           0        3.334263   -1.162496   -0.357795
     18          6           0        3.981565    0.064965   -0.410635
     19          6           0        3.266684    1.230224   -0.172976
     20          6           0        1.909149    1.169855    0.106034
     21          1           0        1.470418   -2.173208   -0.013186
     22          1           0        3.886693   -2.075273   -0.543122
     23          1           0        5.040172    0.112618   -0.633305
     24          1           0        3.767667    2.189704   -0.202377
     25          1           0        1.366284    2.085733    0.300878
 ---------------------------------------------------------------------

 SCF Done:  E(RwB97XD) =  -518.845390137     A.U. after    1 cycles

 The electronic state is 1-A.
 Alpha  occ. eigenvalues --  -19.20513 -14.46161 -10.35127 -10.31987 -10.31177
 Alpha  occ. eigenvalues --  -10.29360 -10.29190 -10.29179 -10.29022 -10.28997
 Alpha  occ. eigenvalues --  -10.28870 -10.24949  -1.11117  -1.01766  -0.96524
 Alpha  occ. eigenvalues --   -0.87687  -0.85487  -0.85019  -0.77920  -0.74974
 Alpha  occ. eigenvalues --   -0.70595  -0.68790  -0.62986  -0.62024  -0.59780
 Alpha  occ. eigenvalues --   -0.56445  -0.55722  -0.54521  -0.53135  -0.52226
 Alpha  occ. eigenvalues --   -0.51007  -0.50882  -0.49326  -0.47850  -0.47187
 Alpha  occ. eigenvalues --   -0.45249  -0.44974  -0.43675  -0.42295  -0.40874
 Alpha  occ. eigenvalues --   -0.33882  -0.33710  -0.32296  -0.27955
 Alpha virt. eigenvalues --    0.01348   0.05311   0.07778   0.10681   0.13408
 Alpha virt. eigenvalues --    0.14593   0.15075   0.15913   0.16318   0.17184
 Alpha virt. eigenvalues --    0.17785   0.18689   0.19281   0.19929   0.20473

 Mulliken charges:
               1
     1  C   -0.369604
     2  C    0.312451
     3  O   -0.529342
     4  C   -0.156667
     5  C   -0.260559
     6  H    0.143077
     7  H    0.143448
     8  H    0.141269
     9  N   -0.391585
    10  H    0.273467
    11  H    0.270699
    12  H    0.161452
    13  H    0.150519
    14  H    0.136952
    15  C    0.138402
    16  C   -0.230335
    17  C   -0.128439
    18  C   -0.140911
    19  C   -0.144012
    20  C   -0.237087
    21  H    0.138219
    22  H    0.142632
    23  H    0.145377
    24  H    0.142896
    25  H    0.147680
 Sum of Mulliken charges =  -0.00000

 Dipole moment (field-independent basis, Debye):
    X=             -5.4216    Y=              2.4105    Z=             -4.0995  Tot=              7.2118
 Quadrupole moment (field-independent basis, Debye-Ang):
   XX=            -36.9332   YY=            -69.8240   ZZ=            -75.0657
   XY=             -1.2039   XZ=              5.5301   YZ=              3.1540

  Exact polarizability: 275.372  -4.148 181.931  -2.406   0.009 121.704
 Approx polarizability: 187.062  -0.608 157.322  -4.554  -1.502 106.968

 ******    1 imaginary frequencies (negative Signs) ******

                      1                      2                      3
                      A                      A                      A
 Frequencies --   -332.8652                38.2187                41.5536
 Red. masses --      6.1634                 4.4305                 3.7135
 Frc consts  --      0.4024                 0.0038                 0.0038
 IR Inten    --   1016.3606                 6.2836                 3.5014

                      4                      5                      6
                      A                      A                      A
 Frequencies --     51.7032                85.0348               138.9785
 Red. masses --      2.9564                 2.1753                 3.2203
 Frc consts  --      0.0047                 0.0093                 0.0366
 IR Inten    --      3.4931                17.0949                 6.5263

                      7                      8                      9
                      A                      A                      A
 Frequencies --    157.4775               176.2143               191.9191
 Red. masses --      2.2693                 1.5519                 4.2226
 Frc consts  --      0.0332                 0.0284                 0.0916
 IR Inten    --      3.5422                14.5666                13.8067

                     10                     11                     12
                      A                      A                      A
 Frequencies --    314.3748               327.3686               418.8909
 Red. masses --      3.0069                 5.2739                 2.8906
 Frc consts  --      0.1751                 0.3330                 0.2988
 IR Inten    --     22.3233                24.6793                 0.7440

                     13                     14                     15
                      A                      A                      A
 Frequencies --    429.1116               443.8744               531.9718
 Red. masses --      4.1248                 4.7139                 3.6948
 Frc consts  --      0.4475                 0.5472                 0.6160
 IR Inten    --      6.4860                71.3998                 2.5655

                     16                     17                     18
                      A                      A                      A
 Frequencies --    559.8384               636.2552               668.3513
 Red. masses --      1.1216                 6.3992                 4.2063
 Frc consts  --      0.2071                 1.5263                 1.1070
 IR Inten    --     24.2569                 0.1882                31.0348

                     19                     20                     21
                      A                      A                      A
 Frequencies --    717.6609               723.0996               756.6695
 Red. masses --      2.5292                 1.3779                 1.6678
 Frc consts  --      0.7675                 0.4245                 0.5626
 IR Inten    --     17.8649                76.3225               170.2339

                     22                     23                     24
                      A                      A                      A
 Frequencies --    781.6099               836.9920               879.6624
 Red. masses --      2.7304                 3.0068                 1.2515
 Frc consts  --      0.9828                 1.2411                 0.5706
 IR Inten    --     20.8250                14.1021                 0.7333

                     25                     26                     27
                      A                      A                      A
 Frequencies --    967.0098               969.1799               975.4386
 Red. masses --      1.2335                 1.3295                 1.2767
 Frc consts  --      0.6796                 0.7358                 0.7157
 IR Inten    --    133.6291                40.8198                10.4307

                     28                     29                     30
                      A                      A                      A
 Frequencies --   1015.9551              1019.2435              1025.8691
 Red. masses --      1.3830                 1.4606                 5.8943
 Frc consts  --      0.8411                 0.8940                 3.6548
 IR Inten    --      1.5786                20.4162                 2.5655

                     31                     32                     33
                      A                      A                      A
 Frequencies --   1031.9405              1054.5965              1071.3464
 Red. masses --      1.3192                 2.3354                 2.7694
 Frc consts  --      0.8277                 1.5303                 1.8728
 IR Inten    --      1.2270                66.0105               218.6991

                     34                     35                     36
                      A                      A                      A
 Frequencies --   1083.1199              1108.2572              1137.8262
 Red. masses --      2.2950                 1.4471                 1.3520
 Frc consts  --      1.5863                 1.0472                 1.0313
 IR Inten    --     22.1812                18.5794                 8.8126

                     37                     38                     39
                      A                      A                      A
 Frequencies --   1151.2526              1182.6702              1191.3758
 Red. masses --      1.2388                 1.1330                 1.4379
 Frc consts  --      0.9674                 0.9337                 1.2025
 IR Inten    --    293.9013                 0.4573                20.3101

                     40                     41                     42
                      A                      A                      A
 Frequencies --   1202.1876              1261.2798              1279.3204
 Red. masses --      1.1344                 3.2130                 1.5458
 Frc consts  --      0.9660                 3.0115                 1.4906
 IR Inten    --     10.3888               116.4847               178.2148

                     43                     44                     45
                      A                      A                      A
 Frequencies --   1331.5532              1341.5948              1352.6489
 Red. masses --      3.9434                 1.3428                 1.5643
 Frc consts  --      4.1195                 1.4240                 1.6863
 IR Inten    --      6.7295                 1.2849                 7.4552

                     46                     47                     48
                      A                      A                      A
 Frequencies --   1444.8010              1461.3059              1487.6986
 Red. masses --      1.4911                 1.1875                 2.1151
 Frc consts  --      1.8338                 1.4941                 2.7581
 IR Inten    --    314.7986                27.2776                20.0760

                     49                     50                     51
                      A                      A                      A
 Frequencies --   1490.1897              1507.3973              1524.1012
 Red. masses --      1.0650                 1.0320                 2.5153
 Frc consts  --      1.3935                 1.3816                 3.4424
 IR Inten    --     15.1785                25.9842               778.0907

                     52                     53                     54
                      A                      A                      A
 Frequencies --   1541.0321              1633.4955              1650.8763
 Red. masses --      2.3983                 5.7829                 1.1284
 Frc consts  --      3.3556                 9.0915                 1.8119
 IR Inten    --    149.1785               243.2191                42.9907

                     55                     56                     57
                      A                      A                      A
 Frequencies --   1664.7239              1673.0767              3053.4987
 Red. masses --      6.0987                 6.0911                 1.0358
 Frc consts  --      9.9580                10.0457                 5.6900
 IR Inten    --    144.5506                29.0126                83.3918

                     58                     59                     60
                      A                      A                      A
 Frequencies --   3126.6973              3150.8843              3158.9142
 Red. masses --      1.1018                 1.1051                 1.0585
 Frc consts  --      6.3461                 6.4642                 6.2232
 IR Inten    --     27.4987                23.4522                56.5294

                     61                     62                     63
                      A                      A                      A
 Frequencies --   3193.8098              3202.0212              3210.4862
 Red. masses --      1.0858                 1.0888                 1.0920
 Frc consts  --      6.5257                 6.5775                 6.6314
 IR Inten    --      0.3880                 8.2520                15.6486

                     64                     65                     66
                      A                      A                      A
 Frequencies --   3215.6914              3220.1379              3224.1096
 Red. masses --      1.0930                 1.0927                 1.0973
 Frc consts  --      6.6594                 6.6757                 6.7203
 IR Inten    --      7.3123                29.1802                14.0594

                     67                     68                     69
                      A                      A                      A
 Frequencies --   3250.5379              3545.6358              3631.9241
 Red. masses --      1.1164                 1.0500                 1.0969
 Frc consts  --      6.9498                 7.7775                 8.5248
 IR Inten    --      9.9417                15.1302                35.1423

 - Thermochemistry -
 -------------------
 Temperature   298.150 Kelvin.  Pressure   1.00000 Atm.
 Atom     1 has atomic number  6 and mass  12.00000

 Molecular mass:   163.09971 amu.
 Principal axes and moments of inertia in atomic units:
                           1         2         3
     Eigenvalues --   673.515804782.533535132.74749
           X            1.00000  -0.00010   0.00233
           Y            0.00005   0.99974   0.02275
           Z           -0.00233  -0.02275   0.99974
 This molecule is an asymmetric top.
 Rotational symmetry number  1.
 Warning -- assumption of classical behavior for rotation
           may cause significant error
 Rotational temperatures (Kelvin)      0.12860     0.01811     0.01687
 Rotational constants (GHZ):           2.67958     0.37736     0.35161
    1 imaginary frequencies ignored.
 Zero-point vibrational energy     555806.2 (Joules/Mol)
                                  132.84088 (Kcal/Mol)
 Warning -- explicit consideration of  15 degrees of freedom as
           vibrations may cause significant error
 Vibrational temperatures:     54.99    59.79    74.39   122.35   199.96
          (Kelvin)            226.58   253.53   276.13   452.32   471.01
                              602.69   617.40   638.64   765.39   805.48
                              915.43   961.61  1032.55  1040.38  1088.68
                             1124.56  1204.24  1265.64  1391.31  1394.43
                             1403.44  1461.73  1466.46  1476.00  1484.73
                             1517.33  1541.43  1558.37  1594.53  1637.08
                             1656.40  1701.60  1714.12  1729.68  1814.70
                             1840.66  1915.81  1930.26  1946.16  2078.75
                             2102.49  2140.47  2144.05  2168.81  2192.84
                             2217.20  2350.24  2375.24  2395.17  2407.18
                             4393.30  4498.62  4533.42  4544.97  4595.18
                             4606.99  4619.17  4626.66  4633.06  4638.77
                             4676.80  5101.38  5225.53

 Zero-point correction=                           0.211695 (Hartree/Particle)
 Thermal correction to Energy=                    0.223657
 Thermal correction to Enthalpy=                  0.224602
 Thermal correction to Gibbs Free Energy=         0.171775
 Sum of electronic and zero-point Energies=           -518.633695
 Sum of electronic and thermal Energies=              -518.621733
 Sum of electronic and thermal Enthalpies=            -518.620789
 Sum of electronic and thermal Free Energies=         -518.673615

                     E (Thermal)             CV                S
                      KCal/Mol        Cal/Mol-Kelvin    Cal/Mol-Kelvin
 Total                  140.347             43.501            111.182
 Electronic               0.000              0.000              0.000
 Translational            0.889              2.981             41.176
 Rotational               0.889              2.981             31.181
 Vibrational            138.570             37.540             38.825
 Vibration     1          0.594              1.982              5.349
 Vibration     2          0.594              1.981              5.184
 Vibration     3          0.596              1.977              4.751
 Vibration     4          0.601              1.960              3.771
 Vibration     5          0.615              1.914              2.818
 Vibration     6          0.621              1.894              2.580
 Vibration     7          0.628              1.872              2.368
 Vibration     8          0.634              1.851              2.209
 Vibration     9          0.702              1.646              1.339
 Vibration    10          0.711              1.621              1.273
 Vibration    11          0.782              1.429              0.896
 Vibration    12          0.790              1.407              0.862
 Vibration    13          0.803              1.374              0.815
 Vibration    14          0.887              1.179              0.583
 Vibration    15          0.915              1.118              0.524

 Optimization completed.
    -- Stationary point found.
 Normal termination of Gaussian 16 at Wed Feb 10 03:27:09 2021.
