 Gaussian 16, Revision A.03,
 Gaussian 16:  ES64L-G16RevA.03 25-Dec-2016

 ----------------------------------------------------------------------
 # wB97XD def2tzvp, opt=(ts, noeigen, calcfc, maxcycles=70, maxstep=8),
  freq=noraman, scrf=(iefpcm, solvent=water)
 ----------------------------------------------------------------------

 ------------------------
 1_iteration/TS-298-1.out
 ------------------------
 Symbolic Z-matrix:
 Charge =  0 Multiplicity = 1

 SCF Done:  E(RwB97XD) =  -405.731690351     A.U. after   14 cycles
 SCF Done:  E(RwB97XD) =  -405.735510797     A.U. after   13 cycles
 SCF Done:  E(RwB97XD) =  -405.737347876     A.U. after   13 cycles
 SCF Done:  E(RwB97XD) =  -405.737671916     A.U. after   13 cycles
 SCF Done:  E(RwB97XD) =  -405.737780648     A.U. after   12 cycles
 SCF Done:  E(RwB97XD) =  -405.737773081     A.U. after   12 cycles
 SCF Done:  E(RwB97XD) =  -405.737850223     A.U. after   11 cycles
 SCF Done:  E(RwB97XD) =  -405.737798027     A.U. after   11 cycles
 SCF Done:  E(RwB97XD) =  -405.737866071     A.U. after   11 cycles
 SCF Done:  E(RwB97XD) =  -405.737844538     A.U. after   12 cycles
 SCF Done:  E(RwB97XD) =  -405.737872264     A.U. after   12 cycles
 SCF Done:  E(RwB97XD) =  -405.737874961     A.U. after   10 cycles
 SCF Done:  E(RwB97XD) =  -405.737875706     A.U. after    9 cycles
 SCF Done:  E(RwB97XD) =  -405.737875553     A.U. after    8 cycles
 SCF Done:  E(RwB97XD) =  -405.737874860     A.U. after    8 cycles
 SCF Done:  E(RwB97XD) =  -405.737875178     A.U. after    8 cycles
 SCF Done:  E(RwB97XD) =  -405.737875495     A.U. after    8 cycles
 SCF Done:  E(RwB97XD) =  -405.737875321     A.U. after    8 cycles
 SCF Done:  E(RwB97XD) =  -405.737875480     A.U. after    8 cycles
 Optimization completed.
    -- Stationary point found.
 Normal termination of Gaussian 16 at Wed Feb 10 07:20:09 2021.

 ---------------------------------------------------------------------
 #N Geom=AllCheck Guess=TCheck SCRF=Check GenChk RwB97XD/def2TZVP Freq
 ---------------------------------------------------------------------

 Structure from the checkpoint file:  "/beegfs/scratch/user/q/tla25/Gau-8414.chk"
 ------------------------
 1_iteration/TS-298-1.out
 ------------------------
 Charge =  0 Multiplicity = 1

                         Standard orientation:
 ---------------------------------------------------------------------
 Center     Atomic      Atomic             Coordinates (Angstroms)
 Number     Number       Type             X           Y           Z
 ---------------------------------------------------------------------
      1          6           0        0.656639    0.445154    0.403592
      2          6           0        1.545122   -0.479906   -0.201826
      3          8           0        1.271886   -1.665610   -0.486996
      4          6           0       -0.661926    0.092789    0.759293
      5          6           0       -3.221041    0.263578   -0.636852
      6          1           0       -3.739086    0.597373   -1.536945
      7          1           0       -3.483440   -0.773961   -0.443323
      8          1           0       -3.546085    0.872438    0.206249
      9          7           0       -1.769512    0.377557   -0.771011
     10          1           0       -1.396765   -0.275856   -1.450088
     11          1           0       -1.496702    1.308203   -1.062449
     12          1           0       -1.170778    0.853918    1.346959
     13          6           0       -1.097190   -1.297104    1.142317
     14          1           0       -0.502905   -1.623630    1.997839
     15          1           0       -2.145689   -1.307855    1.440301
     16          1           0       -0.928628   -2.010265    0.340907
     17          6           0        1.050302    1.903733    0.518769
     18          1           0        0.281171    2.465306    1.053327
     19          1           0        1.984854    2.047686    1.068876
     20          1           0        1.183799    2.395178   -0.452690
     21          6           0        2.943212    0.019552   -0.540908
     22          1           0        3.456671    0.398639    0.345698
     23          1           0        3.523528   -0.795309   -0.969923
     24          1           0        2.900851    0.843341   -1.257996
 ---------------------------------------------------------------------

 SCF Done:  E(RwB97XD) =  -405.737875480     A.U. after    1 cycles

 The electronic state is 1-A.
 Alpha  occ. eigenvalues --  -19.18348 -14.47823 -10.33112 -10.32896 -10.31647
 Alpha  occ. eigenvalues --  -10.26915 -10.26384 -10.26166 -10.24011  -1.08646
 Alpha  occ. eigenvalues --   -1.03311  -0.89695  -0.84048  -0.79922  -0.78744
 Alpha  occ. eigenvalues --   -0.73491  -0.68941  -0.62579  -0.58765  -0.55605
 Alpha  occ. eigenvalues --   -0.54549  -0.53215  -0.52304  -0.51060  -0.48857
 Alpha  occ. eigenvalues --   -0.48449  -0.47562  -0.46907  -0.46379  -0.44855
 Alpha  occ. eigenvalues --   -0.43389  -0.42125  -0.41649  -0.40292  -0.30089
 Alpha  occ. eigenvalues --   -0.25426
 Alpha virt. eigenvalues --    0.06386   0.09834   0.12351   0.14027   0.14414
 Alpha virt. eigenvalues --    0.16025   0.16111   0.17666   0.17718   0.18349
 Alpha virt. eigenvalues --    0.18959   0.20067   0.20492   0.21134   0.22003

 Mulliken charges:
               1
     1  C   -0.177807
     2  C    0.216219
     3  O   -0.568957
     4  C   -0.044816
     5  C   -0.289381
     6  H    0.151993
     7  H    0.158548
     8  H    0.150905
     9  N   -0.328601
    10  H    0.281462
    11  H    0.281298
    12  H    0.140610
    13  C   -0.342563
    14  H    0.131826
    15  H    0.134602
    16  H    0.134910
    17  C   -0.382622
    18  H    0.119619
    19  H    0.115935
    20  H    0.118551
    21  C   -0.368070
    22  H    0.129548
    23  H    0.112945
    24  H    0.123846
 Sum of Mulliken charges =  -0.00000

 Dipole moment (field-independent basis, Debye):
    X=             -7.2642    Y=              4.9469    Z=             -1.0683  Tot=              8.8533
 Quadrupole moment (field-independent basis, Debye-Ang):
   XX=            -48.5608   YY=            -64.3448   ZZ=            -55.2245
   XY=              3.4170   XZ=              4.2938   YZ=             -3.5057

  Exact polarizability: 177.062  -7.025 132.325  -2.186   3.678 114.688
 Approx polarizability: 125.174  -4.859 109.880  -0.689   4.320  97.783

 ******    1 imaginary frequencies (negative Signs) ******

                      1                      2                      3
                      A                      A                      A
 Frequencies --   -372.0327                43.2051                79.9644
 Red. masses --      6.1637                 3.7009                 2.1063
 Frc consts  --      0.5026                 0.0041                 0.0079
 IR Inten    --    943.2670                10.5798                 3.0990

                      4                      5                      6
                      A                      A                      A
 Frequencies --     83.4403               111.9255               156.0696
 Red. masses --      2.7132                 1.0264                 1.8195
 Frc consts  --      0.0111                 0.0076                 0.0261
 IR Inten    --     13.0553                 0.4174                 3.2250

                      7                      8                      9
                      A                      A                      A
 Frequencies --    159.5374               182.5509               213.8946
 Red. masses --      1.3516                 1.5754                 1.3861
 Frc consts  --      0.0203                 0.0309                 0.0374
 IR Inten    --      1.7171                18.1658                18.5025

                     10                     11                     12
                      A                      A                      A
 Frequencies --    261.0353               276.0767               321.2178
 Red. masses --      2.5738                 1.4411                 2.4782
 Frc consts  --      0.1033                 0.0647                 0.1507
 IR Inten    --      0.6834                 5.6032                 9.7271

                     13                     14                     15
                      A                      A                      A
 Frequencies --    344.0326               432.0283               442.9629
 Red. masses --      2.6726                 2.9142                 3.1790
 Frc consts  --      0.1864                 0.3205                 0.3675
 IR Inten    --      2.0199               102.1055                 5.8093

                     16                     17                     18
                      A                      A                      A
 Frequencies --    514.0498               600.7976               646.0137
 Red. masses --      3.2429                 3.1052                 2.4915
 Frc consts  --      0.5049                 0.6604                 0.6126
 IR Inten    --     19.2739                24.1992                53.4365

                     19                     20                     21
                      A                      A                      A
 Frequencies --    665.5860               722.9194               929.4621
 Red. masses --      1.4865                 3.0793                 1.8040
 Frc consts  --      0.3880                 0.9482                 0.9183
 IR Inten    --     28.7447                 0.7534                26.7857

                     22                     23                     24
                      A                      A                      A
 Frequencies --    982.4131               986.8411              1024.0317
 Red. masses --      1.4681                 1.1955                 1.3226
 Frc consts  --      0.8348                 0.6860                 0.8172
 IR Inten    --    153.1410                58.8732                 5.8884

                     25                     26                     27
                      A                      A                      A
 Frequencies --   1034.1839              1042.7112              1055.6663
 Red. masses --      1.5220                 1.2344                 1.5346
 Frc consts  --      0.9591                 0.7908                 1.0077
 IR Inten    --     55.1747                13.1761                15.1703

                     28                     29                     30
                      A                      A                      A
 Frequencies --   1066.4996              1077.4614              1129.4933
 Red. masses --      1.7121                 2.5020                 2.5016
 Frc consts  --      1.1474                 1.7113                 1.8803
 IR Inten    --     27.4855               140.9735                46.6954

                     31                     32                     33
                      A                      A                      A
 Frequencies --   1166.8760              1194.8273              1224.6732
 Red. masses --      2.2745                 1.3089                 1.4276
 Frc consts  --      1.8247                 1.1010                 1.2615
 IR Inten    --     26.8266               132.1778                21.6475

                     34                     35                     36
                      A                      A                      A
 Frequencies --   1266.4221              1345.5591              1372.0457
 Red. masses --      1.9537                 1.3081                 1.3248
 Frc consts  --      1.8461                 1.3954                 1.4693
 IR Inten    --     21.6584                 1.9412                39.4002

                     37                     38                     39
                      A                      A                      A
 Frequencies --   1401.7346              1422.1038              1434.1585
 Red. masses --      1.3073                 1.2873                 2.5169
 Frc consts  --      1.5134                 1.5339                 3.0500
 IR Inten    --     82.6307                 1.9021               336.7925

                     40                     41                     42
                      A                      A                      A
 Frequencies --   1447.2129              1461.6598              1470.7312
 Red. masses --      1.4704                 1.0995                 1.1962
 Frc consts  --      1.8145                 1.3841                 1.5245
 IR Inten    --    274.2396                40.5934                64.9888

                     43                     44                     45
                      A                      A                      A
 Frequencies --   1471.5442              1476.3566              1488.9855
 Red. masses --      1.1315                 1.1600                 1.0438
 Frc consts  --      1.4437                 1.4897                 1.3635
 IR Inten    --     49.1691                85.4730                18.0369

                     46                     47                     48
                      A                      A                      A
 Frequencies --   1491.2116              1498.4370              1509.2736
 Red. masses --      1.0913                 1.0661                 1.1435
 Frc consts  --      1.4298                 1.4103                 1.5347
 IR Inten    --     43.5879                 9.9540               182.4831

                     49                     50                     51
                      A                      A                      A
 Frequencies --   1512.9743              1625.0947              1645.6344
 Red. masses --      1.0650                 5.5915                 1.1152
 Frc consts  --      1.4363                 8.7004                 1.7794
 IR Inten    --     66.6320               476.7305                56.9350

                     52                     53                     54
                      A                      A                      A
 Frequencies --   3006.6738              3048.5449              3059.1138
 Red. masses --      1.0462                 1.0377                 1.0914
 Frc consts  --      5.5723                 5.6821                 6.0178
 IR Inten    --    110.0735                20.8056                67.1569

                     55                     56                     57
                      A                      A                      A
 Frequencies --   3065.0408              3068.1688              3102.2579
 Red. masses --      1.0351                 1.0389                 1.0989
 Frc consts  --      5.7296                 5.7624                 6.2313
 IR Inten    --     48.6219                35.8029                42.9653

                     58                     59                     60
                      A                      A                      A
 Frequencies --   3113.3103              3126.1562              3133.5604
 Red. masses --      1.0997                 1.0919                 1.0981
 Frc consts  --      6.2802                 6.2873                 6.3527
 IR Inten    --     22.7047                29.6896                64.3249

                     61                     62                     63
                      A                      A                      A
 Frequencies --   3139.9932              3154.4062              3168.9723
 Red. masses --      1.1039                 1.1024                 1.1043
 Frc consts  --      6.4124                 6.4630                 6.5337
 IR Inten    --     17.3740                35.1210                18.2888

                     64                     65                     66
                      A                      A                      A
 Frequencies --   3181.7640              3530.3240              3611.5696
 Red. masses --      1.1001                 1.0511                 1.0963
 Frc consts  --      6.5619                 7.7182                 8.4248
 IR Inten    --     10.5015                17.6485                42.8475

 - Thermochemistry -
 -------------------
 Temperature   298.150 Kelvin.  Pressure   1.00000 Atm.
 Atom     1 has atomic number  6 and mass  12.00000

 Molecular mass:   129.11536 amu.
 Principal axes and moments of inertia in atomic units:
                           1         2         3
     Eigenvalues --   763.810751862.616062142.59676
           X            0.99961   0.02806  -0.00027
           Y           -0.02806   0.99912  -0.03119
           Z           -0.00060   0.03119   0.99951
 This molecule is an asymmetric top.
 Rotational symmetry number  1.
 Warning -- assumption of classical behavior for rotation
           may cause significant error
 Rotational temperatures (Kelvin)      0.11340     0.04650     0.04042
 Rotational constants (GHZ):           2.36281     0.96893     0.84231
    1 imaginary frequencies ignored.
 Zero-point vibrational energy     562385.1 (Joules/Mol)
                                  134.41326 (Kcal/Mol)
 Warning -- explicit consideration of  16 degrees of freedom as
           vibrations may cause significant error
 Vibrational temperatures:     62.16   115.05   120.05   161.04   224.55
          (Kelvin)            229.54   262.65   307.75   375.57   397.21
                              462.16   494.99   621.59   637.32   739.60
                              864.41   929.47   957.63  1040.12  1337.29
                             1413.47  1419.84  1473.35  1487.96  1500.23
                             1518.87  1534.46  1550.23  1625.09  1678.87
                             1719.09  1762.03  1822.10  1935.96  1974.07
                             2016.78  2046.09  2063.43  2082.22  2103.00
                             2116.05  2117.22  2124.15  2142.32  2145.52
                             2155.92  2171.51  2176.83  2338.15  2367.70
                             4325.93  4386.18  4401.38  4409.91  4414.41
                             4463.46  4479.36  4497.84  4508.49  4517.75
                             4538.49  4559.44  4577.85  5079.35  5196.24

 Zero-point correction=                           0.214201 (Hartree/Particle)
 Thermal correction to Energy=                    0.225990
 Thermal correction to Enthalpy=                  0.226934
 Thermal correction to Gibbs Free Energy=         0.176487
 Sum of electronic and zero-point Energies=           -405.523674
 Sum of electronic and thermal Energies=              -405.511886
 Sum of electronic and thermal Enthalpies=            -405.510942
 Sum of electronic and thermal Free Energies=         -405.561388

                     E (Thermal)             CV                S
                      KCal/Mol        Cal/Mol-Kelvin    Cal/Mol-Kelvin
 Total                  141.811             41.286            106.174
 Electronic               0.000              0.000              0.000
 Translational            0.889              2.981             40.480
 Rotational               0.889              2.981             29.501
 Vibrational            140.033             35.324             36.194
 Vibration     1          0.595              1.980              5.106
 Vibration     2          0.600              1.963              3.892
 Vibration     3          0.600              1.961              3.808
 Vibration     4          0.607              1.940              3.235
 Vibration     5          0.620              1.896              2.597
 Vibration     6          0.621              1.892              2.555
 Vibration     7          0.630              1.864              2.302
 Vibration     8          0.644              1.820              2.010
 Vibration     9          0.669              1.744              1.655
 Vibration    10          0.678              1.718              1.558
 Vibration    11          0.707              1.633              1.304
 Vibration    12          0.723              1.587              1.193
 Vibration    13          0.793              1.400              0.852
 Vibration    14          0.803              1.376              0.817
 Vibration    15          0.869              1.219              0.624
 Vibration    16          0.959              1.030              0.448

 Optimization completed.
    -- Stationary point found.
 Normal termination of Gaussian 16 at Wed Feb 10 07:33:15 2021.
