 Gaussian 16, Revision A.03,
 Gaussian 16:  ES64L-G16RevA.03 25-Dec-2016

 ----------------------------------------------------------------------
 # wB97XD def2tzvp, opt=(ts, noeigen, calcfc, maxcycles=70, maxstep=5),
  freq=noraman, scrf=(iefpcm, solvent=water)
 ----------------------------------------------------------------------

 ------------------------
 2_iteration/TS-231-2.out
 ------------------------
 Symbolic Z-matrix:
 Charge =  0 Multiplicity = 1

 SCF Done:  E(RwB97XD) =  -3378.88453669     A.U. after   14 cycles
 SCF Done:  E(RwB97XD) =  -3378.88468153     A.U. after   12 cycles
 SCF Done:  E(RwB97XD) =  -3378.88468228     A.U. after   11 cycles
 SCF Done:  E(RwB97XD) =  -3378.88465428     A.U. after   12 cycles
 SCF Done:  E(RwB97XD) =  -3378.88468788     A.U. after   12 cycles
 SCF Done:  E(RwB97XD) =  -3378.88468855     A.U. after    8 cycles
 SCF Done:  E(RwB97XD) =  -3378.88468789     A.U. after   10 cycles
 SCF Done:  E(RwB97XD) =  -3378.88468847     A.U. after   10 cycles
 SCF Done:  E(RwB97XD) =  -3378.88468873     A.U. after    8 cycles
 SCF Done:  E(RwB97XD) =  -3378.88468872     A.U. after    6 cycles
 Optimization completed.
    -- Stationary point found.
 Normal termination of Gaussian 16 at Thu Feb 11 07:57:34 2021.

 ---------------------------------------------------------------------
 #N Geom=AllCheck Guess=TCheck SCRF=Check GenChk RwB97XD/def2TZVP Freq
 ---------------------------------------------------------------------

 Structure from the checkpoint file:  "/beegfs/scratch/user/q/tla25/Gau-72818.chk"
 ------------------------
 2_iteration/TS-231-2.out
 ------------------------
 Charge =  0 Multiplicity = 1

                         Standard orientation:
 ---------------------------------------------------------------------
 Center     Atomic      Atomic             Coordinates (Angstroms)
 Number     Number       Type             X           Y           Z
 ---------------------------------------------------------------------
      1          6           0        0.532772    0.826948   -0.111500
      2          6           0       -0.532504   -0.103449    0.167366
      3          8           0       -0.340072   -1.100684    0.870628
      4          6           0        1.883171    0.617238    0.167466
      5          6           0        1.490081    1.809338    2.710626
      6          1           0        1.504348    1.745332    3.798981
      7          1           0        1.937499    2.750923    2.397827
      8          1           0        0.456051    1.780529    2.366098
      9          7           0        2.210232    0.705036    2.091910
     10          1           0        3.208292    0.749080    2.258498
     11          1           0        1.870595   -0.187779    2.428327
     12          1           0        2.481635    1.492287   -0.058752
     13          6           0        2.667312   -0.618233   -0.156498
     14          6           0        3.730350   -0.448623   -1.045383
     15          6           0        4.516972   -1.520958   -1.435127
     16          6           0        4.265624   -2.785894   -0.925403
     17          6           0        3.224249   -2.963009   -0.026458
     18          6           0        2.429834   -1.892095    0.355782
     19          1           0        3.942066    0.537385   -1.442329
     20          1           0        5.331205   -1.364153   -2.131246
     21          1           0        4.880971   -3.626137   -1.221107
     22          1           0        3.024981   -3.945069    0.384046
     23          1           0        1.609939   -2.044690    1.040290
     24         35           0        0.069078    2.620936   -0.659784
     25          7           0       -1.765856    0.169588   -0.377218
     26          6           0       -2.984150   -0.489922   -0.197642
     27          6           0       -3.145033   -1.661871    0.543639
     28          6           0       -4.403574   -2.237047    0.657825
     29          6           0       -5.512248   -1.675047    0.045445
     30          6           0       -5.351076   -0.510999   -0.694966
     31          6           0       -4.105202    0.075772   -0.815011
     32          1           0       -1.812283    0.990583   -0.957459
     33          1           0       -2.290107   -2.112331    1.019423
     34          1           0       -4.510055   -3.145970    1.237452
     35          1           0       -6.486996   -2.135337    0.140795
     36          1           0       -6.201996   -0.052805   -1.183437
     37          1           0       -3.993408    0.985622   -1.393790
 ---------------------------------------------------------------------

 SCF Done:  E(RwB97XD) =  -3378.88468872     A.U. after    1 cycles

 The electronic state is 1-A.
 Alpha  occ. eigenvalues -- -483.12481 -62.67311 -56.46411 -56.46089 -56.46070
 Alpha  occ. eigenvalues --  -19.21037 -14.47797 -14.46403 -10.39129 -10.34777
 Alpha  occ. eigenvalues --  -10.33862 -10.31415 -10.30855 -10.30765 -10.29330
 Alpha  occ. eigenvalues --  -10.29137 -10.29082 -10.29034 -10.29022 -10.28877
 Alpha  occ. eigenvalues --  -10.28826 -10.28759 -10.28230 -10.28171  -8.81419
 Alpha  occ. eigenvalues --   -6.63513  -6.62486  -6.62427  -2.73909  -2.73624
 Alpha  occ. eigenvalues --   -2.73574  -2.72744  -2.72743  -1.13949  -1.04182
 Alpha  occ. eigenvalues --   -1.03345  -0.97169  -0.95620  -0.92546  -0.87765
 Alpha  occ. eigenvalues --   -0.85239  -0.85107  -0.84777  -0.81524  -0.78567
 Alpha  occ. eigenvalues --   -0.75917  -0.72058  -0.70939  -0.70293  -0.68089
 Alpha  occ. eigenvalues --   -0.64893  -0.63019  -0.62815  -0.61252  -0.58107
 Alpha  occ. eigenvalues --   -0.57133  -0.56739  -0.55524  -0.54738  -0.53737
 Alpha  occ. eigenvalues --   -0.53282  -0.52461  -0.51871  -0.51617  -0.50908
 Alpha  occ. eigenvalues --   -0.50290  -0.49701  -0.47691  -0.47085  -0.46667
 Alpha  occ. eigenvalues --   -0.46466  -0.44858  -0.43719  -0.43278  -0.42804
 Alpha  occ. eigenvalues --   -0.41899  -0.39756  -0.39431  -0.37664  -0.34346
 Alpha  occ. eigenvalues --   -0.33897  -0.33744  -0.33241  -0.30292  -0.26668
 Alpha virt. eigenvalues --    0.02375   0.04855   0.05207   0.05404   0.07074
 Alpha virt. eigenvalues --    0.10087   0.10590   0.12806   0.13572   0.13719
 Alpha virt. eigenvalues --    0.14454   0.15232   0.16253   0.16536   0.16952

 Mulliken charges:
               1
     1  C   -0.217831
     2  C    0.442270
     3  O   -0.551853
     4  C   -0.075307
     5  C   -0.292721
     6  H    0.152686
     7  H    0.154598
     8  H    0.154130
     9  N   -0.331668
    10  H    0.283076
    11  H    0.278054
    12  H    0.170485
    13  C    0.233015
    14  C   -0.235029
    15  C   -0.144291
    16  C   -0.153576
    17  C   -0.149128
    18  C   -0.268783
    19  H    0.140818
    20  H    0.143953
    21  H    0.144491
    22  H    0.142159
    23  H    0.175324
    24  Br  -0.174827
    25  N   -0.276149
    26  C    0.302116
    27  C   -0.293750
    28  C   -0.112171
    29  C   -0.197251
    30  C   -0.099146
    31  C   -0.310466
    32  H    0.239989
    33  H    0.161838
    34  H    0.140819
    35  H    0.140252
    36  H    0.143143
    37  H    0.140731
 Sum of Mulliken charges =  -0.00000

 Dipole moment (field-independent basis, Debye):
    X=              5.5161    Y=              2.2147    Z=              3.4183  Tot=              6.8569
 Quadrupole moment (field-independent basis, Debye-Ang):
   XX=           -108.7089   YY=           -127.6842   ZZ=           -120.5677
   XY=              0.1980   XZ=             10.5590   YZ=              1.9538

  Exact polarizability: 401.781   1.708 331.434   4.665 -31.666 253.548
 Approx polarizability: 291.044   0.956 272.186  -0.707 -31.773 218.149

 ******    1 imaginary frequencies (negative Signs) ******

                      1                      2                      3
                      A                      A                      A
 Frequencies --   -351.2589                19.1960                21.6515
 Red. masses --      5.9299                 4.7136                 3.7330
 Frc consts  --      0.4311                 0.0010                 0.0010
 IR Inten    --   1037.6639                 0.9091                 1.0811

                      4                      5                      6
                      A                      A                      A
 Frequencies --     40.4147                49.2057                62.3487
 Red. masses --      5.0832                 4.2020                 4.9071
 Frc consts  --      0.0049                 0.0060                 0.0112
 IR Inten    --      3.1638                 4.8035                 3.6260

                      7                      8                      9
                      A                      A                      A
 Frequencies --     75.4438                77.9168               103.1370
 Red. masses --      6.3253                 2.7058                 4.3998
 Frc consts  --      0.0212                 0.0097                 0.0276
 IR Inten    --      0.8667                13.6200                11.4640

                     10                     11                     12
                      A                      A                      A
 Frequencies --    120.8895               135.9679               187.5368
 Red. masses --      3.9377                 6.6707                 1.3531
 Frc consts  --      0.0339                 0.0727                 0.0280
 IR Inten    --     21.9191                 1.3458                 0.5082

                     13                     14                     15
                      A                      A                      A
 Frequencies --    206.6922               214.1936               230.5015
 Red. masses --      2.9951                 5.8399                 6.0479
 Frc consts  --      0.0754                 0.1579                 0.1893
 IR Inten    --     13.8460                 5.3973                 4.7818

                     16                     17                     18
                      A                      A                      A
 Frequencies --    244.9239               259.8044               307.8393
 Red. masses --      4.2402                 3.4936                 5.2898
 Frc consts  --      0.1499                 0.1389                 0.2954
 IR Inten    --      0.8998                13.2371                40.7773

                     19                     20                     21
                      A                      A                      A
 Frequencies --    350.8531               376.5149               417.8955
 Red. masses --      9.0534                 5.8809                 4.9867
 Frc consts  --      0.6566                 0.4912                 0.5131
 IR Inten    --     13.5476                14.3431                16.2003

                     22                     23                     24
                      A                      A                      A
 Frequencies --    423.3239               425.1902               502.6105
 Red. masses --      2.9948                 3.2735                 2.8244
 Frc consts  --      0.3162                 0.3487                 0.4204
 IR Inten    --      0.0397                 3.7734                29.1600

                     25                     26                     27
                      A                      A                      A
 Frequencies --    527.5230               549.9801               572.9115
 Red. masses --      2.7339                 3.3863                 1.1525
 Frc consts  --      0.4482                 0.6035                 0.2229
 IR Inten    --     29.3231               125.2813               111.3735

                     28                     29                     30
                      A                      A                      A
 Frequencies --    609.5889               622.7604               635.6762
 Red. masses --      4.4504                 2.9289                 6.3913
 Frc consts  --      0.9744                 0.6693                 1.5216
 IR Inten    --     29.4564                36.6170                 1.1430

                     31                     32                     33
                      A                      A                      A
 Frequencies --    637.1519               699.1783               718.9003
 Red. masses --      5.8027                 2.9672                 1.8953
 Frc consts  --      1.3879                 0.8546                 0.5771
 IR Inten    --      1.4560                16.3298                60.6416

                     34                     35                     36
                      A                      A                      A
 Frequencies --    725.6849               763.7287               783.6534
 Red. masses --      1.6547                 8.7394                 1.8154
 Frc consts  --      0.5134                 3.0034                 0.6569
 IR Inten    --     94.5513                51.2673                98.6055

                     37                     38                     39
                      A                      A                      A
 Frequencies --    794.3704               817.9890               861.7563
 Red. masses --      2.1085                 5.7135                 1.2638
 Frc consts  --      0.7839                 2.2524                 0.5530
 IR Inten    --     10.2441                20.5145                 0.0523

                     40                     41                     42
                      A                      A                      A
 Frequencies --    870.6874               877.5259               879.4053
 Red. masses --      4.7663                 4.2759                 1.3339
 Frc consts  --      2.1289                 1.9400                 0.6078
 IR Inten    --     16.2920                10.9502                 3.7843

                     43                     44                     45
                      A                      A                      A
 Frequencies --    932.7426               965.6492               991.2082
 Red. masses --      1.4625                 1.4526                 1.0979
 Frc consts  --      0.7496                 0.7981                 0.6355
 IR Inten    --     12.9036                 3.1161                85.4361

                     46                     47                     48
                      A                      A                      A
 Frequencies --   1001.5271              1013.2175              1017.0791
 Red. masses --      1.3458                 1.4548                 1.3053
 Frc consts  --      0.7954                 0.8800                 0.7955
 IR Inten    --      0.0621                12.9108                 2.0568

                     49                     50                     51
                      A                      A                      A
 Frequencies --   1017.9799              1021.7338              1025.6915
 Red. masses --      2.5555                 2.3357                 4.9531
 Frc consts  --      1.5603                 1.4366                 3.0702
 IR Inten    --     12.9017                27.7239                 3.2549

                     52                     53                     54
                      A                      A                      A
 Frequencies --   1032.3816              1038.4367              1063.3372
 Red. masses --      1.3993                 2.0048                 2.1557
 Frc consts  --      0.8787                 1.2737                 1.4361
 IR Inten    --      6.7800                61.8631                21.1502

                     55                     56                     57
                      A                      A                      A
 Frequencies --   1069.1247              1084.4734              1118.6512
 Red. masses --      2.0696                 4.5479                 1.6082
 Frc consts  --      1.3938                 3.1514                 1.1857
 IR Inten    --     15.1437                62.9808                19.4143

                     58                     59                     60
                      A                      A                      A
 Frequencies --   1123.3116              1139.7914              1182.0798
 Red. masses --      1.5199                 1.1618                 1.1402
 Frc consts  --      1.1300                 0.8892                 0.9387
 IR Inten    --     14.7539               130.9097                 5.7546

                     61                     62                     63
                      A                      A                      A
 Frequencies --   1185.1362              1197.8476              1208.4804
 Red. masses --      1.1345                 2.7557                 1.4054
 Frc consts  --      0.9389                 2.3296                 1.2093
 IR Inten    --      3.2002                23.8550                12.3413

                     64                     65                     66
                      A                      A                      A
 Frequencies --   1210.6690              1218.9566              1240.7428
 Red. masses --      1.1925                 1.1641                 2.2738
 Frc consts  --      1.0298                 1.0191                 2.0624
 IR Inten    --     44.2210                 5.8068               299.9122

                     67                     68                     69
                      A                      A                      A
 Frequencies --   1275.8048              1324.5668              1346.6638
 Red. masses --      2.6397                 4.1316                 1.4328
 Frc consts  --      2.5315                 4.2709                 1.5309
 IR Inten    --    263.3290                 1.7092                64.8086

                     70                     71                     72
                      A                      A                      A
 Frequencies --   1347.9454              1357.7603              1364.9694
 Red. masses --      3.0271                 1.8723                 1.4929
 Frc consts  --      3.2405                 2.0336                 1.6388
 IR Inten    --    416.0722               119.2535                71.0550

                     73                     74                     75
                      A                      A                      A
 Frequencies --   1385.4078              1446.4450              1465.4222
 Red. masses --      1.7507                 1.5597                 1.7520
 Frc consts  --      1.9798                 1.9227                 2.2167
 IR Inten    --    481.9139               142.2009               126.4906

                     76                     77                     78
                      A                      A                      A
 Frequencies --   1481.0786              1490.8340              1501.9198
 Red. masses --      2.1855                 1.0398                 1.0537
 Frc consts  --      2.8245                 1.3616                 1.4004
 IR Inten    --    354.2243                16.0513                31.3752

                     79                     80                     81
                      A                      A                      A
 Frequencies --   1506.8036              1544.3159              1547.1963
 Red. masses --      2.2326                 2.3221                 2.4963
 Frc consts  --      2.9866                 3.2629                 3.5207
 IR Inten    --    121.6130                27.9275               243.9006

                     82                     83                     84
                      A                      A                      A
 Frequencies --   1574.6491              1640.2160              1651.1859
 Red. masses --      2.0914                 1.1367                 5.6923
 Frc consts  --      3.0554                 1.8018                 9.1438
 IR Inten    --    817.7654               110.7269                30.6422

                     85                     86                     87
                      A                      A                      A
 Frequencies --   1657.3098              1666.8435              1674.9147
 Red. masses --      6.1669                 3.5211                 5.7630
 Frc consts  --      9.9798                 5.7640                 9.5253
 IR Inten    --    131.3837               103.9718                 5.9086

                     88                     89                     90
                      A                      A                      A
 Frequencies --   1679.4649              3064.7233              3140.2732
 Red. masses --      6.2581                 1.0331                 1.1046
 Frc consts  --     10.4000                 5.7172                 6.4178
 IR Inten    --    258.3035                40.7555                15.6899

                     91                     92                     93
                      A                      A                      A
 Frequencies --   3161.8587              3179.6136              3186.8550
 Red. masses --      1.1054                 1.0885                 1.0879
 Frc consts  --      6.5109                 6.4839                 6.5095
 IR Inten    --     16.7528                 3.4978                13.4590

                     94                     95                     96
                      A                      A                      A
 Frequencies --   3190.2514              3195.9825              3198.4448
 Red. masses --      1.0875                 1.0884                 1.0883
 Frc consts  --      6.5211                 6.5501                 6.5597
 IR Inten    --      8.5224                 2.8989                 1.6132

                     97                     98                     99
                      A                      A                      A
 Frequencies --   3206.0316              3208.5870              3221.1160
 Red. masses --      1.0931                 1.0932                 1.0981
 Frc consts  --      6.6201                 6.6310                 6.7130
 IR Inten    --     29.8114                32.2925                24.9381

                    100                    101                    102
                      A                      A                      A
 Frequencies --   3221.3848              3255.6089              3282.6827
 Red. masses --      1.0979                 1.0922                 1.0913
 Frc consts  --      6.7130                 6.8205                 6.9289
 IR Inten    --     22.2043                11.9301                 5.4698

                    103                    104                    105
                      A                      A                      A
 Frequencies --   3533.3406              3618.1160              3633.7679
 Red. masses --      1.0502                 1.0967                 1.0764
 Frc consts  --      7.7250                 8.4583                 8.3742
 IR Inten    --     40.5518                46.6164                88.5501

 - Thermochemistry -
 -------------------
 Temperature   298.150 Kelvin.  Pressure   1.00000 Atm.
 Atom     1 has atomic number  6 and mass  12.00000

 Molecular mass:   332.05242 amu.
 Principal axes and moments of inertia in atomic units:
                           1         2         3
     Eigenvalues --  5088.06425********************
           X            0.99999   0.00097   0.00390
           Y           -0.00110   0.99940   0.03456
           Z           -0.00387  -0.03457   0.99939
 This molecule is an asymmetric top.
 Rotational symmetry number  1.
 Warning -- assumption of classical behavior for rotation
           may cause significant error
 Rotational temperatures (Kelvin)      0.01702     0.00801     0.00638
 Rotational constants (GHZ):           0.35470     0.16699     0.13284
    1 imaginary frequencies ignored.
 Zero-point vibrational energy     791527.9 (Joules/Mol)
                                  189.17970 (Kcal/Mol)
 Warning -- explicit consideration of  27 degrees of freedom as
           vibrations may cause significant error
 Vibrational temperatures:     27.62    31.15    58.15    70.80    89.71
          (Kelvin)            108.55   112.10   148.39   173.93   195.63
                              269.82   297.38   308.18   331.64   352.39
                              373.80   442.91   504.80   541.72   601.26
                              609.07   611.75   723.14   758.99   791.30
                              824.29   877.06   896.01   914.60   916.72
                             1005.96  1034.34  1044.10  1098.84  1127.50
                             1142.92  1176.90  1239.88  1252.72  1262.56
                             1265.27  1342.01  1389.35  1426.13  1440.97
                             1457.79  1463.35  1464.65  1470.05  1475.74
                             1485.37  1494.08  1529.91  1538.23  1560.32
                             1609.49  1616.19  1639.91  1700.75  1705.15
                             1723.44  1738.73  1741.88  1753.81  1785.15
                             1835.60  1905.76  1937.55  1939.39  1953.51
                             1963.89  1993.29  2081.11  2108.42  2130.94
                             2144.98  2160.93  2167.95  2221.93  2226.07
                             2265.57  2359.90  2375.69  2384.50  2398.22
                             2409.83  2416.38  4409.45  4518.15  4549.21
                             4574.75  4585.17  4590.06  4598.31  4601.85
                             4612.76  4616.44  4634.47  4634.85  4684.10
                             4723.05  5083.69  5205.66  5228.18

 Zero-point correction=                           0.301477 (Hartree/Particle)
 Thermal correction to Energy=                    0.320433
 Thermal correction to Enthalpy=                  0.321377
 Thermal correction to Gibbs Free Energy=         0.250420
 Sum of electronic and zero-point Energies=          -3378.583212
 Sum of electronic and thermal Energies=             -3378.564256
 Sum of electronic and thermal Enthalpies=           -3378.563311
 Sum of electronic and thermal Free Energies=        -3378.634269

                     E (Thermal)             CV                S
                      KCal/Mol        Cal/Mol-Kelvin    Cal/Mol-Kelvin
 Total                  201.075             70.244            149.342
 Electronic               0.000              0.000              0.000
 Translational            0.889              2.981             43.295
 Rotational               0.889              2.981             34.967
 Vibrational            199.297             64.282             71.080
 Vibration     1          0.593              1.986              6.716
 Vibration     2          0.593              1.985              6.477
 Vibration     3          0.594              1.981              5.239
 Vibration     4          0.595              1.978              4.849
 Vibration     5          0.597              1.972              4.381
 Vibration     6          0.599              1.965              4.006
 Vibration     7          0.599              1.964              3.943
 Vibration     8          0.605              1.947              3.394
 Vibration     9          0.609              1.932              3.086
 Vibration    10          0.614              1.917              2.860
 Vibration    11          0.632              1.857              2.252
 Vibration    12          0.641              1.830              2.073
 Vibration    13          0.644              1.819              2.008
 Vibration    14          0.652              1.794              1.875
 Vibration    15          0.660              1.771              1.767
 Vibration    16          0.668              1.746              1.663
 Vibration    17          0.698              1.659              1.374
 Vibration    18          0.728              1.574              1.162
 Vibration    19          0.747              1.520              1.053
 Vibration    20          0.781              1.431              0.899
 Vibration    21          0.785              1.420              0.881
 Vibration    22          0.787              1.415              0.875
 Vibration    23          0.858              1.244              0.652
 Vibration    24          0.882              1.189              0.593
 Vibration    25          0.905              1.140              0.544
 Vibration    26          0.929              1.090              0.499
 Vibration    27          0.969              1.012              0.433

 Optimization completed.
    -- Stationary point found.
 Normal termination of Gaussian 16 at Thu Feb 11 09:58:58 2021.
