 Gaussian 16, Revision A.03,
 Gaussian 16:  ES64L-G16RevA.03 25-Dec-2016

 ----------------------------------------------------------------------
 # wB97XD def2tzvp, opt=(ts, noeigen, calcfc, maxcycles=70, maxstep=3),
  freq=noraman, scrf=(iefpcm, solvent=water)
 ----------------------------------------------------------------------

 ------------------------
 0_iteration/TS-210-0.out
 ------------------------
 Symbolic Z-matrix:
 Charge =  0 Multiplicity = 1

 SCF Done:  E(RwB97XD) =  -558.159884989     A.U. after   14 cycles
 Optimization completed.
    -- Stationary point found.
 Normal termination of Gaussian 16 at Sat Mar 27 11:52:38 2021.

 ---------------------------------------------------------------------
 #N Geom=AllCheck Guess=TCheck SCRF=Check GenChk RwB97XD/def2TZVP Freq
 ---------------------------------------------------------------------

 Structure from the checkpoint file:  "/beegfs/scratch/user/q/tla25/Gau-113475.chk"
 ------------------------
 0_iteration/TS-210-0.out
 ------------------------
 Charge =  0 Multiplicity = 1

                         Standard orientation:
 ---------------------------------------------------------------------
 Center     Atomic      Atomic             Coordinates (Angstroms)
 Number     Number       Type             X           Y           Z
 ---------------------------------------------------------------------
      1          6           0        1.538310   -0.213479    1.008301
      2          6           0        2.053821   -1.023279   -0.039999
      3          8           0        1.566321   -1.073079   -1.182999
      4          6           0        0.383799    0.563709    0.911001
      5          6           0        2.006877    2.570621   -0.411799
      6          1           0        2.416277    2.963122   -1.344299
      7          1           0        1.861766    3.391221    0.289101
      8          1           0        2.724688    1.866532    0.016401
      9          7           0        0.750188    1.872210   -0.606799
     10          1           0       -0.022623    2.492599   -0.807299
     11          1           0        0.817099    1.168910   -1.335299
     12          1           0        0.297288    1.324499    1.681701
     13          6           0       -0.956790    0.116488    0.438001
     14          6           0       -1.221679   -1.199912    0.070601
     15          6           0       -2.499679   -1.585923   -0.302799
     16          6           0       -3.537980   -0.665035   -0.308799
     17          6           0       -3.292101    0.645466    0.075401
     18          6           0       -2.014301    1.026677    0.451001
     19          1           0       -0.422268   -1.926101    0.080701
     20          1           0       -2.686368   -2.614234   -0.586099
     21          1           0       -4.535279   -0.969546   -0.600099
     22          1           0       -4.096802    1.369555    0.090801
     23          1           0       -1.834412    2.048477    0.766501
     24          1           0        2.210210    0.007921    1.827801
     25          6           0        3.310632   -1.823468    0.237801
     26          1           0        3.704921   -1.661457    1.240001
     27          1           0        3.082443   -2.884768    0.117201
     28          1           0        4.075721   -1.568757   -0.497799
 ---------------------------------------------------------------------

 SCF Done:  E(RwB97XD) =  -558.159884989     A.U. after    1 cycles

 The electronic state is 1-A.
 Alpha  occ. eigenvalues --  -19.20105 -14.46216 -10.34673 -10.33677 -10.30806
 Alpha  occ. eigenvalues --  -10.30227 -10.29241 -10.29130 -10.29053 -10.28962
 Alpha  occ. eigenvalues --  -10.28884 -10.26838 -10.24815  -1.10551  -1.01933
 Alpha  occ. eigenvalues --   -0.96963  -0.89574  -0.85268  -0.84709  -0.81432
 Alpha  occ. eigenvalues --   -0.77757  -0.73504  -0.70467  -0.67894  -0.62393
 Alpha  occ. eigenvalues --   -0.61747  -0.58423  -0.56620  -0.55587  -0.54367
 Alpha  occ. eigenvalues --   -0.53886  -0.52582  -0.51958  -0.51109  -0.50534
 Alpha  occ. eigenvalues --   -0.48791  -0.47338  -0.47087  -0.46037  -0.45499
 Alpha  occ. eigenvalues --   -0.42980  -0.42837  -0.42115  -0.40632  -0.34005
 Alpha  occ. eigenvalues --   -0.33163  -0.31445  -0.27956
 Alpha virt. eigenvalues --    0.01032   0.05367   0.07777   0.10567   0.12870
 Alpha virt. eigenvalues --    0.13503   0.14470   0.15229   0.16110   0.16767
 Alpha virt. eigenvalues --    0.17226   0.18415   0.18725   0.19692   0.20142

 Mulliken charges:
               1
     1  C   -0.525622
     2  C    0.339496
     3  O   -0.554766
     4  C    0.149748
     5  C   -0.262099
     6  H    0.141390
     7  H    0.144132
     8  H    0.137418
     9  N   -0.381794
    10  H    0.271804
    11  H    0.269604
    12  H    0.163111
    13  C    0.130271
    14  C   -0.198508
    15  C   -0.125318
    16  C   -0.155672
    17  C   -0.128609
    18  C   -0.302926
    19  H    0.149598
    20  H    0.142072
    21  H    0.144694
    22  H    0.143653
    23  H    0.157533
    24  H    0.142464
    25  C   -0.380263
    26  H    0.124438
    27  H    0.133566
    28  H    0.130585
 Sum of Mulliken charges =  -0.00000

 Dipole moment (field-independent basis, Debye):
    X=             -1.0127    Y=              5.7561    Z=              1.2288  Tot=              5.9723
 Quadrupole moment (field-independent basis, Debye-Ang):
   XX=            -71.3086   YY=            -66.0173   ZZ=            -84.1353
   XY=              3.9806   XZ=              4.8709   YZ=             -2.8473

  Exact polarizability: 240.597 -16.008 220.356   9.894   8.138 152.285
 Approx polarizability: 178.323 -10.155 176.636   8.966   8.747 135.207

 ******    1 imaginary frequencies (negative Signs) ******

                      1                      2                      3
                      A                      A                      A
 Frequencies --   -367.8353                28.5493                58.9408
 Red. masses --      5.1485                 3.8229                 1.6872
 Frc consts  --      0.4104                 0.0018                 0.0035
 IR Inten    --    613.5444                 2.8755                 2.0066

                      4                      5                      6
                      A                      A                      A
 Frequencies --     72.0216                92.1728                99.1458
 Red. masses --      3.0171                 1.6438                 3.2621
 Frc consts  --      0.0092                 0.0082                 0.0189
 IR Inten    --      6.7385                12.3273                 4.2858

                      7                      8                      9
                      A                      A                      A
 Frequencies --    108.1114               138.4570               190.9645
 Red. masses --      2.5649                 3.1131                 1.2767
 Frc consts  --      0.0177                 0.0352                 0.0274
 IR Inten    --     22.2518                16.5440                 6.6684

                     10                     11                     12
                      A                      A                      A
 Frequencies --    214.0064               243.0286               287.4397
 Red. masses --      3.6468                 3.6592                 4.3751
 Frc consts  --      0.0984                 0.1273                 0.2130
 IR Inten    --      0.6880                 9.6023                21.8313

                     13                     14                     15
                      A                      A                      A
 Frequencies --    331.1863               386.3134               418.5573
 Red. masses --      3.6701                 2.9192                 2.8575
 Frc consts  --      0.2372                 0.2567                 0.2949
 IR Inten    --      8.6172                27.5972                 0.5879

                     16                     17                     18
                      A                      A                      A
 Frequencies --    496.0428               522.8676               580.9330
 Red. masses --      3.3212                 2.8792                 4.8330
 Frc consts  --      0.4815                 0.4638                 0.9610
 IR Inten    --     19.5737                80.4651                10.1108

                     19                     20                     21
                      A                      A                      A
 Frequencies --    601.8094               636.7853               668.2777
 Red. masses --      1.6992                 6.3128                 1.9835
 Frc consts  --      0.3626                 1.5082                 0.5219
 IR Inten    --     50.7685                 0.1319                15.5660

                     22                     23                     24
                      A                      A                      A
 Frequencies --    716.9120               721.3079               742.9267
 Red. masses --      1.6142                 1.3970                 3.4378
 Frc consts  --      0.4888                 0.4282                 1.1179
 IR Inten    --    161.6810                19.9516                18.8518

                     25                     26                     27
                      A                      A                      A
 Frequencies --    783.2504               811.0354               871.7824
 Red. masses --      2.4605                 3.1272                 1.2525
 Frc consts  --      0.8894                 1.2119                 0.5609
 IR Inten    --     34.4467                31.2478                 1.3846

                     28                     29                     30
                      A                      A                      A
 Frequencies --    935.4458               960.9627               966.1667
 Red. masses --      2.2442                 1.4944                 1.1927
 Frc consts  --      1.1570                 0.8131                 0.6560
 IR Inten    --     37.7154                47.0023                89.9748

                     31                     32                     33
                      A                      A                      A
 Frequencies --   1007.4905              1009.8563              1025.3804
 Red. masses --      1.5642                 1.3882                 1.2724
 Frc consts  --      0.9355                 0.8341                 0.7882
 IR Inten    --     22.4760                 3.6421                32.2024

                     34                     35                     36
                      A                      A                      A
 Frequencies --   1027.6030              1028.9793              1043.4702
 Red. masses --      2.7363                 1.6478                 1.6690
 Frc consts  --      1.7024                 1.0279                 1.0707
 IR Inten    --      1.7662                10.2410                69.7395

                     37                     38                     39
                      A                      A                      A
 Frequencies --   1062.7459              1085.4362              1100.4449
 Red. masses --      2.2034                 1.6825                 2.1556
 Frc consts  --      1.4662                 1.1679                 1.5380
 IR Inten    --      9.7984                70.4024                 5.5496

                     40                     41                     42
                      A                      A                      A
 Frequencies --   1115.8608              1169.5254              1182.8498
 Red. masses --      1.6315                 2.3917                 1.1734
 Frc consts  --      1.1969                 1.9274                 0.9673
 IR Inten    --     19.5911                21.1598                 2.2643

                     43                     44                     45
                      A                      A                      A
 Frequencies --   1185.8178              1211.3959              1231.5570
 Red. masses --      1.3712                 1.1236                 2.1455
 Frc consts  --      1.1360                 0.9715                 1.9173
 IR Inten    --     14.3797                 5.8696               142.3565

                     46                     47                     48
                      A                      A                      A
 Frequencies --   1256.6134              1336.3884              1346.5208
 Red. masses --      1.4736                 3.9901                 1.3316
 Frc consts  --      1.3710                 4.1985                 1.4224
 IR Inten    --     44.7846                13.6017                 5.6642

                     49                     50                     51
                      A                      A                      A
 Frequencies --   1362.1870              1385.8491              1441.7738
 Red. masses --      1.4456                 1.2558                 1.5822
 Frc consts  --      1.5804                 1.4211                 1.9377
 IR Inten    --     12.6851                21.8260               122.2762

                     52                     53                     54
                      A                      A                      A
 Frequencies --   1452.8744              1459.9848              1471.2031
 Red. masses --      1.3591                 1.2809                 1.0602
 Frc consts  --      1.6902                 1.6086                 1.3520
 IR Inten    --     63.2648               176.2064                17.9773

                     55                     56                     57
                      A                      A                      A
 Frequencies --   1489.5404              1491.6030              1502.7180
 Red. masses --      1.0419                 1.9607                 1.0415
 Frc consts  --      1.3620                 2.5702                 1.3856
 IR Inten    --     12.3656               231.2500                 7.3542

                     58                     59                     60
                      A                      A                      A
 Frequencies --   1509.4219              1546.1262              1630.1364
 Red. masses --      2.6360                 2.3993                 2.5268
 Frc consts  --      3.5384                 3.3793                 3.9561
 IR Inten    --    563.1118                21.3760               355.3098

                     61                     62                     63
                      A                      A                      A
 Frequencies --   1647.6623              1655.5014              1674.9587
 Red. masses --      1.6110                 4.9605                 5.8539
 Frc consts  --      2.5768                 8.0100                 9.6761
 IR Inten    --     42.3331                27.6704                 0.8648

                     64                     65                     66
                      A                      A                      A
 Frequencies --   3045.7970              3055.0480              3112.5742
 Red. masses --      1.0345                 1.0361                 1.1033
 Frc consts  --      5.6542                 5.6976                 6.2977
 IR Inten    --     59.3719                21.7932                18.4679

                     67                     68                     69
                      A                      A                      A
 Frequencies --   3125.8350              3149.4672              3150.2611
 Red. masses --      1.1005                 1.1038                 1.1031
 Frc consts  --      6.3353                 6.4510                 6.4498
 IR Inten    --     18.3244                24.6781                32.2769

                     70                     71                     72
                      A                      A                      A
 Frequencies --   3157.1830              3185.3878              3197.1325
 Red. masses --      1.0879                 1.0883                 1.0877
 Frc consts  --      6.3892                 6.5060                 6.5507
 IR Inten    --     13.4681                10.7735                 0.1961

                     73                     74                     75
                      A                      A                      A
 Frequencies --   3197.9908              3208.0044              3219.9403
 Red. masses --      1.0897                 1.0927                 1.0977
 Frc consts  --      6.5664                 6.6254                 6.7058
 IR Inten    --     22.3223                28.4947                25.1142

                     76                     77                     78
                      A                      A                      A
 Frequencies --   3243.7694              3514.9012              3620.5513
 Red. masses --      1.0928                 1.0535                 1.0938
 Frc consts  --      6.7750                 7.6684                 8.4478
 IR Inten    --      7.1934                20.8981                67.2247

 - Thermochemistry -
 -------------------
 Temperature   298.150 Kelvin.  Pressure   1.00000 Atm.
 Atom     1 has atomic number  6 and mass  12.00000

 Molecular mass:   177.11536 amu.
 Principal axes and moments of inertia in atomic units:
                           1         2         3
     Eigenvalues --  1471.131253302.114284250.57065
           X            0.99996   0.00299   0.00794
           Y           -0.00292   0.99996  -0.00828
           Z           -0.00796   0.00826   0.99993
 This molecule is an asymmetric top.
 Rotational symmetry number  1.
 Warning -- assumption of classical behavior for rotation
           may cause significant error
 Rotational temperatures (Kelvin)      0.05888     0.02623     0.02038
 Rotational constants (GHZ):           1.22677     0.54654     0.42459
    1 imaginary frequencies ignored.
 Zero-point vibrational energy     628151.4 (Joules/Mol)
                                  150.13180 (Kcal/Mol)
 Warning -- explicit consideration of  18 degrees of freedom as
           vibrations may cause significant error
 Vibrational temperatures:     41.08    84.80   103.62   132.62   142.65
          (Kelvin)            155.55   199.21   274.76   307.91   349.66
                              413.56   476.50   555.82   602.21   713.69
                              752.29   835.83   865.87   916.19   961.50
                             1031.48  1037.80  1068.91  1126.92  1166.90
                             1254.30  1345.90  1382.61  1390.10  1449.55
                             1452.96  1475.29  1478.49  1480.47  1501.32
                             1529.05  1561.70  1583.29  1605.47  1682.69
                             1701.86  1706.13  1742.93  1771.94  1807.99
                             1922.76  1937.34  1959.88  1993.93  2074.39
                             2090.36  2100.59  2116.73  2143.12  2146.08
                             2162.08  2171.72  2224.53  2345.40  2370.62
                             2381.90  2409.89  4382.22  4395.53  4478.30
                             4497.38  4531.38  4532.52  4542.48  4583.06
                             4599.96  4601.20  4615.60  4632.78  4667.06
                             5057.16  5209.17

 Zero-point correction=                           0.239250 (Hartree/Particle)
 Thermal correction to Energy=                    0.252668
 Thermal correction to Enthalpy=                  0.253613
 Thermal correction to Gibbs Free Energy=         0.197959
 Sum of electronic and zero-point Energies=           -557.920635
 Sum of electronic and thermal Energies=              -557.907217
 Sum of electronic and thermal Enthalpies=            -557.906272
 Sum of electronic and thermal Free Energies=         -557.961926

                     E (Thermal)             CV                S
                      KCal/Mol        Cal/Mol-Kelvin    Cal/Mol-Kelvin
 Total                  158.552             49.071            117.134
 Electronic               0.000              0.000              0.000
 Translational            0.889              2.981             41.422
 Rotational               0.889              2.981             31.402
 Vibrational            156.774             43.110             44.310
 Vibration     1          0.593              1.984              5.928
 Vibration     2          0.596              1.974              4.492
 Vibration     3          0.598              1.967              4.097
 Vibration     4          0.602              1.955              3.613
 Vibration     5          0.604              1.950              3.471
 Vibration     6          0.606              1.943              3.303
 Vibration     7          0.614              1.915              2.825
 Vibration     8          0.634              1.852              2.218
 Vibration     9          0.644              1.820              2.009
 Vibration    10          0.659              1.774              1.781
 Vibration    11          0.685              1.697              1.489
 Vibration    12          0.714              1.613              1.254
 Vibration    13          0.755              1.499              1.014
 Vibration    14          0.781              1.430              0.897
 Vibration    15          0.852              1.259              0.668
 Vibration    16          0.878              1.199              0.603
 Vibration    17          0.938              1.073              0.484
 Vibration    18          0.960              1.028              0.447

 Optimization completed.
    -- Stationary point found.
 Normal termination of Gaussian 16 at Sat Mar 27 12:32:52 2021.
