 Gaussian 16, Revision C.01,
 Gaussian 16:  ES64L-G16RevC.01  3-Jul-2019

 ----------------------------------------------------------------------
 # opt=(calcfc,ts,noeigen,maxcycles=100,maxstep=10) freq=noraman wb97xd
  scrf=(iefpcm,solvent=water) def2tzvp
 ----------------------------------------------------------------------

 ---------
 TS-23.out
 ---------
 Symbolic Z-matrix:
 Charge =  0 Multiplicity = 1

 SCF Done:  E(RwB97XD) =  -1075.63142531     A.U. after   14 cycles
 SCF Done:  E(RwB97XD) =  -1075.63142531     A.U. after    6 cycles
 Optimization completed.
    -- Stationary point found.
 Normal termination of Gaussian 16 at Mon Jun  6 16:01:57 2022.

 ---------------------------------------------------------------------
 #N Geom=AllCheck Guess=TCheck SCRF=Check GenChk RwB97XD/def2TZVP Freq
 ---------------------------------------------------------------------

 Structure from the checkpoint file:  "/local/jobs/107531/Gau-982470.chk"
 ---------
 TS-23.out
 ---------
 Charge =  0 Multiplicity = 1

                         Standard orientation:
 ---------------------------------------------------------------------
 Center     Atomic      Atomic             Coordinates (Angstroms)
 Number     Number       Type             X           Y           Z
 ---------------------------------------------------------------------
      1          6           0       -0.035413   -0.820565   -0.201582
      2          6           0        1.206440   -0.195493    0.106275
      3          8           0        1.333036    0.755593    0.908581
      4          6           0       -1.218864   -0.167345    0.251261
      5          6           0       -0.658463   -1.410759    2.704788
      6          1           0       -1.533260   -2.024578    2.904338
      7          1           0       -0.012918   -1.924948    1.991834
      8          1           0       -0.106716   -1.256673    3.631596
      9          7           0       -1.048859   -0.135189    2.113837
     10          1           0       -1.791950    0.315949    2.632572
     11          1           0       -0.235130    0.484903    2.079504
     12          6           0       -2.532448   -0.848998   -0.073794
     13          6           0       -2.855791   -0.975541   -1.426430
     14          6           0       -4.053265   -1.539945   -1.825201
     15          6           0       -4.964409   -1.987859   -0.876431
     16          6           0       -4.660207   -1.857049    0.466668
     17          6           0       -3.454764   -1.289243    0.864630
     18          1           0       -2.151705   -0.626255   -2.171627
     19          1           0       -4.277717   -1.629799   -2.880612
     20          1           0       -5.902724   -2.430680   -1.184901
     21          1           0       -5.360770   -2.195678    1.219467
     22          1           0       -3.260642   -1.198218    1.922694
     23          6           0       -1.394101    1.329177    0.003119
     24          6           0       -0.704416    1.952260   -1.031814
     25          6           0       -0.925008    3.286286   -1.336388
     26          6           0       -1.851211    4.025735   -0.615867
     27          6           0       -2.565836    3.410226    0.400662
     28          6           0       -2.346059    2.073802    0.696466
     29          1           0        0.010936    1.378703   -1.605450
     30          1           0       -0.370889    3.748183   -2.144068
     31          1           0       -2.024438    5.067792   -0.852800
     32          1           0       -3.307464    3.966536    0.959913
     33          1           0       -2.953837    1.612123    1.464668
     34          6           0       -0.053834   -2.225939   -0.762124
     35          1           0       -0.974732   -2.744771   -0.499812
     36          1           0        0.018630   -2.263079   -1.856910
     37          1           0        0.764547   -2.832446   -0.363448
     38          7           0        2.328820   -0.726233   -0.519543
     39          6           0        3.679775   -0.462706   -0.311695
     40          6           0        4.176822    0.338011    0.720512
     41          6           0        5.545819    0.522562    0.854701
     42          6           0        6.444879   -0.072241   -0.016986
     43          6           0        5.952637   -0.869562   -1.042243
     44          6           0        4.591520   -1.062802   -1.189321
     45          1           0        2.140624   -1.377948   -1.261213
     46          1           0        3.488116    0.810750    1.400869
     47          1           0        5.910295    1.146855    1.661748
     48          1           0        7.509853    0.081545    0.098338
     49          1           0        6.633253   -1.346743   -1.736583
     50          1           0        4.221798   -1.688382   -1.994060
 ---------------------------------------------------------------------

 SCF Done:  E(RwB97XD) =  -1075.63142531     A.U. after    1 cycles

 The electronic state is 1-A.
 Alpha  occ. eigenvalues --  -19.19667 -14.48271 -14.45461 -10.36931 -10.35636
 Alpha  occ. eigenvalues --  -10.33464 -10.31380 -10.30811 -10.30385 -10.29438
 Alpha  occ. eigenvalues --  -10.29245 -10.29219 -10.29180 -10.29126 -10.29029
 Alpha  occ. eigenvalues --  -10.29024 -10.28915 -10.28857 -10.28812 -10.28710
 Alpha  occ. eigenvalues --  -10.28649 -10.28471 -10.27911 -10.27784 -10.27003
 Alpha  occ. eigenvalues --  -10.24945  -1.12178  -1.04181  -1.02970  -0.97883
 Alpha  occ. eigenvalues --   -0.96442  -0.95074  -0.91401  -0.86437  -0.85447
 Alpha  occ. eigenvalues --   -0.85145  -0.85040  -0.84773  -0.83117  -0.79255
 Alpha  occ. eigenvalues --   -0.77523  -0.74603  -0.71699  -0.71063  -0.70506
 Alpha  occ. eigenvalues --   -0.69886  -0.69592  -0.66653  -0.65058  -0.62664
 Alpha  occ. eigenvalues --   -0.62506  -0.61806  -0.59542  -0.57924  -0.57352
 Alpha  occ. eigenvalues --   -0.56494  -0.55493  -0.54950  -0.54207  -0.53729
 Alpha  occ. eigenvalues --   -0.52938  -0.52726  -0.52111  -0.51944  -0.51099
 Alpha  occ. eigenvalues --   -0.50945  -0.50600  -0.50096  -0.49324  -0.48676
 Alpha  occ. eigenvalues --   -0.47771  -0.47079  -0.46866  -0.45943  -0.45717
 Alpha  occ. eigenvalues --   -0.45187  -0.44486  -0.44279  -0.43518  -0.42494
 Alpha  occ. eigenvalues --   -0.42403  -0.41833  -0.41499  -0.39051  -0.34938
 Alpha  occ. eigenvalues --   -0.34165  -0.33814  -0.33499  -0.32976  -0.31729
 Alpha  occ. eigenvalues --   -0.29696  -0.25153
 Alpha virt. eigenvalues --    0.02906   0.04411   0.04901   0.05632   0.05832
 Alpha virt. eigenvalues --    0.06521   0.09366   0.10316   0.11812   0.13238
 Alpha virt. eigenvalues --    0.13493   0.13961   0.14615   0.15175   0.15497

 Mulliken charges:
               1
     1  C   -0.438464
     2  C    0.403484
     3  O   -0.610540
     4  C    0.590381
     5  C   -0.284534
     6  H    0.145728
     7  H    0.154868
     8  H    0.156994
     9  N   -0.314266
    10  H    0.272327
    11  H    0.279783
    12  C    0.060059
    13  C   -0.270228
    14  C   -0.126816
    15  C   -0.143976
    16  C   -0.167876
    17  C   -0.240122
    18  H    0.159857
    19  H    0.141779
    20  H    0.143650
    21  H    0.141904
    22  H    0.144976
    23  C    0.151993
    24  C   -0.245039
    25  C   -0.155386
    26  C   -0.138160
    27  C   -0.175228
    28  C   -0.266922
    29  H    0.159788
    30  H    0.139684
    31  H    0.142771
    32  H    0.140751
    33  H    0.149992
    34  C   -0.485731
    35  H    0.150040
    36  H    0.134204
    37  H    0.141004
    38  N   -0.277609
    39  C    0.308540
    40  C   -0.302203
    41  C   -0.111463
    42  C   -0.205549
    43  C   -0.096474
    44  C   -0.325039
    45  H    0.255734
    46  H    0.155398
    47  H    0.138753
    48  H    0.138236
    49  H    0.140984
    50  H    0.137968
 Sum of Mulliken charges =  -0.00000

 Dipole moment (field-independent basis, Debye):
    X=             -5.5345    Y=             -2.8178    Z=              2.0532  Tot=              6.5411
 Quadrupole moment (field-independent basis, Debye-Ang):
   XX=           -149.1480   YY=           -150.3462   ZZ=           -133.3919
   XY=             -1.8371   XZ=            -13.2347   YZ=              0.9675

  Exact polarizability:     496.267      17.980     356.638     -32.040      19.767     369.903
 Approx polarizability:     360.893      12.265     290.871     -25.680      18.886     321.392

 ******    1 imaginary frequencies (negative Signs) ******

                      1                      2                      3
                      A                      A                      A
 Frequencies --   -390.1952                18.1787                24.2784
 Red. masses --      5.1184                 4.3349                 3.9576
 Frc consts  --      0.4591                 0.0008                 0.0014
 IR Inten    --    822.2801                 0.3391                 0.1817

                      4                      5                      6
                      A                      A                      A
 Frequencies --     30.6884                44.1848                57.1021
 Red. masses --      3.9717                 4.2312                 4.4501
 Frc consts  --      0.0022                 0.0049                 0.0085
 IR Inten    --      1.6780                 0.7963                 0.6105

                      7                      8                      9
                      A                      A                      A
 Frequencies --     59.9448                84.5851                99.5342
 Red. masses --      4.5295                 4.9938                 3.3385
 Frc consts  --      0.0096                 0.0211                 0.0195
 IR Inten    --      1.0378                 2.6251                 9.1030

                     10                     11                     12
                      A                      A                      A
 Frequencies --    123.2899               133.8247               143.1367
 Red. masses --      2.5280                 1.8599                 2.7047
 Frc consts  --      0.0226                 0.0196                 0.0326
 IR Inten    --      1.9073                 4.1995                 7.0481

                     13                     14                     15
                      A                      A                      A
 Frequencies --    152.9440               173.2010               181.6506
 Red. masses --      1.9885                 1.6356                 3.0202
 Frc consts  --      0.0274                 0.0289                 0.0587
 IR Inten    --      1.9832                 7.6635                 8.2363

                     16                     17                     18
                      A                      A                      A
 Frequencies --    217.1886               225.3074               248.1986
 Red. masses --      4.0051                 4.1503                 4.3137
 Frc consts  --      0.1113                 0.1241                 0.1566
 IR Inten    --      2.6233                 9.2316                 1.8020

                     19                     20                     21
                      A                      A                      A
 Frequencies --    255.6142               267.8290               294.4746
 Red. masses --      3.0602                 3.5368                 4.7612
 Frc consts  --      0.1178                 0.1495                 0.2433
 IR Inten    --     28.1049                 1.6456                17.2426

                     22                     23                     24
                      A                      A                      A
 Frequencies --    305.8086               324.3274               358.8874
 Red. masses --      3.9704                 3.3657                 3.3153
 Frc consts  --      0.2188                 0.2086                 0.2516
 IR Inten    --      6.2053                25.0304                29.7947

                     25                     26                     27
                      A                      A                      A
 Frequencies --    367.4299               385.7302               420.7667
 Red. masses --      5.9428                 5.5450                 2.8666
 Frc consts  --      0.4727                 0.4861                 0.2990
 IR Inten    --     30.3667                 4.2107                 1.7204

                     28                     29                     30
                      A                      A                      A
 Frequencies --    424.3228               425.7850               489.8002
 Red. masses --      2.9985                 2.9268                 3.5971
 Frc consts  --      0.3181                 0.3126                 0.5084
 IR Inten    --      0.0814                 0.0635                10.0697

                     31                     32                     33
                      A                      A                      A
 Frequencies --    512.3225               527.3411               550.6390
 Red. masses --      3.9265                 2.7619                 1.6901
 Frc consts  --      0.6072                 0.4525                 0.3019
 IR Inten    --     11.4558                26.6515                80.0993

                     34                     35                     36
                      A                      A                      A
 Frequencies --    563.5983               585.0528               625.0318
 Red. masses --      1.8738                 5.0407                 3.4271
 Frc consts  --      0.3507                 1.0166                 0.7888
 IR Inten    --     53.1072                37.1014                95.5815

                     37                     38                     39
                      A                      A                      A
 Frequencies --    636.1738               636.8387               638.1408
 Red. masses --      6.0189                 5.9225                 6.3892
 Frc consts  --      1.4352                 1.4152                 1.5330
 IR Inten    --     11.3141                 2.4778                 0.2498

                     40                     41                     42
                      A                      A                      A
 Frequencies --    655.0575               692.6130               718.4093
 Red. masses --      6.0924                 5.1347                 1.8950
 Frc consts  --      1.5403                 1.4513                 0.5762
 IR Inten    --     28.7186               158.8720                56.8815

                     43                     44                     45
                      A                      A                      A
 Frequencies --    722.6105               725.5135               729.9825
 Red. masses --      1.7010                 1.7758                 1.8092
 Frc consts  --      0.5233                 0.5507                 0.5680
 IR Inten    --     67.8982                52.5043               155.1748

                     46                     47                     48
                      A                      A                      A
 Frequencies --    764.2390               777.6730               781.6489
 Red. masses --      3.0937                 2.2436                 1.8147
 Frc consts  --      1.0646                 0.7995                 0.6533
 IR Inten    --     23.4304                44.8450                84.1882

                     49                     50                     51
                      A                      A                      A
 Frequencies --    794.8443               807.7295               859.2845
 Red. masses --      4.0623                 2.4358                 1.2673
 Frc consts  --      1.5121                 0.9363                 0.5513
 IR Inten    --     66.7365                54.7449                 0.3687

                     52                     53                     54
                      A                      A                      A
 Frequencies --    872.0066               873.0656               877.0414
 Red. masses --      1.2507                 4.5823                 1.2884
 Frc consts  --      0.5603                 2.0579                 0.5839
 IR Inten    --      0.4787                 2.7371                 1.3026

                     55                     56                     57
                      A                      A                      A
 Frequencies --    915.2870               927.7972               943.1930
 Red. masses --      2.7620                 1.4905                 2.7456
 Frc consts  --      1.3633                 0.7559                 1.4391
 IR Inten    --      2.9388                13.5717                21.1299

                     58                     59                     60
                      A                      A                      A
 Frequencies --    958.0185               965.5286               998.6875
 Red. masses --      1.6404                 1.8643                 1.3395
 Frc consts  --      0.8870                 1.0240                 0.7871
 IR Inten    --     19.0305                 6.6778                 0.0037

                     61                     62                     63
                      A                      A                      A
 Frequencies --   1001.4370              1011.3855              1012.9558
 Red. masses --      1.1916                 1.3737                 1.2818
 Frc consts  --      0.7041                 0.8279                 0.7749
 IR Inten    --     68.7393                 5.8937                 1.3123

                     64                     65                     66
                      A                      A                      A
 Frequencies --   1016.2292              1017.7266              1025.5728
 Red. masses --      1.4495                 4.9241                 4.9142
 Frc consts  --      0.8819                 3.0050                 3.0454
 IR Inten    --     19.3387                16.5198                32.2866

                     67                     68                     69
                      A                      A                      A
 Frequencies --   1026.5824              1028.2659              1029.2242
 Red. masses --      4.5211                 1.6414                 1.3110
 Frc consts  --      2.8073                 1.0225                 0.8182
 IR Inten    --     14.0481                89.4742                 1.0870

                     70                     71                     72
                      A                      A                      A
 Frequencies --   1032.3049              1061.4872              1066.6981
 Red. masses --      1.7118                 2.1454                 1.6853
 Frc consts  --      1.0748                 1.4243                 1.1298
 IR Inten    --    138.8826                10.7648                 8.0759

                     73                     74                     75
                      A                      A                      A
 Frequencies --   1067.2520              1068.8436              1084.9341
 Red. masses --      1.6619                 1.9614                 4.3452
 Frc consts  --      1.1153                 1.3202                 3.0135
 IR Inten    --      8.3306                 8.4111                30.3642

                     76                     77                     78
                      A                      A                      A
 Frequencies --   1113.9363              1120.3126              1121.6695
 Red. masses --      1.5052                 1.5319                 1.4397
 Frc consts  --      1.1004                 1.1328                 1.0672
 IR Inten    --     42.4102                11.4491                25.0083

                     79                     80                     81
                      A                      A                      A
 Frequencies --   1125.9895              1157.8505              1181.1262
 Red. masses --      1.4320                 3.0230                 1.1196
 Frc consts  --      1.0697                 2.3878                 0.9203
 IR Inten    --     67.1043               113.8263                 5.3030

                     82                     83                     84
                      A                      A                      A
 Frequencies --   1183.3964              1185.1534              1203.0967
 Red. masses --      1.1272                 1.1300                 2.7005
 Frc consts  --      0.9301                 0.9352                 2.3030
 IR Inten    --      0.1392                 1.0235                32.2324

                     85                     86                     87
                      A                      A                      A
 Frequencies --   1207.7705              1214.9621              1218.5231
 Red. masses --      1.1588                 1.2648                 1.1305
 Frc consts  --      0.9959                 1.1000                 0.9890
 IR Inten    --     23.8344                 9.7982                 3.1879

                     88                     89                     90
                      A                      A                      A
 Frequencies --   1243.3055              1261.3987              1277.1178
 Red. masses --      1.6577                 2.3307                 2.9221
 Frc consts  --      1.5098                 2.1850                 2.8081
 IR Inten    --    126.0945               298.5084               189.2712

                     91                     92                     93
                      A                      A                      A
 Frequencies --   1317.7173              1325.6754              1335.1925
 Red. masses --      4.2416                 4.6680                 3.6960
 Frc consts  --      4.3394                 4.8334                 3.8822
 IR Inten    --      6.8966                10.7021                86.6327

                     94                     95                     96
                      A                      A                      A
 Frequencies --   1352.3999              1356.6499              1360.0248
 Red. masses --      3.6335                 1.9096                 1.6185
 Frc consts  --      3.9154                 2.0708                 1.7638
 IR Inten    --    730.7144               182.6520                 3.1406

                     97                     98                     99
                      A                      A                      A
 Frequencies --   1364.1338              1375.8561              1403.0554
 Red. masses --      1.4491                 1.3203                 3.1975
 Frc consts  --      1.5888                 1.4726                 3.7086
 IR Inten    --     11.0852                53.6112               414.6784

                    100                    101                    102
                      A                      A                      A
 Frequencies --   1423.0529              1450.6897              1470.8931
 Red. masses --      1.2310                 1.2103                 2.0941
 Frc consts  --      1.4687                 1.5007                 2.6694
 IR Inten    --     11.7837                12.6893               409.5206

                    103                    104                    105
                      A                      A                      A
 Frequencies --   1486.2754              1487.6503              1491.2051
 Red. masses --      1.0997                 1.9967                 1.1944
 Frc consts  --      1.4313                 2.6036                 1.5648
 IR Inten    --     17.6646                 1.6345                19.2452

                    106                    107                    108
                      A                      A                      A
 Frequencies --   1492.3955              1508.2319              1509.0337
 Red. masses --      1.7757                 1.0529                 1.0727
 Frc consts  --      2.3301                 1.4112                 1.4393
 IR Inten    --     56.5915                11.8305               190.9909

                    109                    110                    111
                      A                      A                      A
 Frequencies --   1540.0780              1543.4521              1545.6771
 Red. masses --      2.2280                 2.3759                 2.3926
 Frc consts  --      3.1135                 3.3348                 3.3679
 IR Inten    --     30.7651               164.0065               156.3986

                    112                    113                    114
                      A                      A                      A
 Frequencies --   1553.2664              1618.8544              1648.2313
 Red. masses --      2.2873                 1.8907                 2.3887
 Frc consts  --      3.2514                 2.9194                 3.8233
 IR Inten    --    326.2940               519.9401                60.0531

                    115                    116                    117
                      A                      A                      A
 Frequencies --   1651.5778              1655.2738              1662.0412
 Red. masses --      4.9045                 4.2659                 2.9669
 Frc consts  --      7.8821                 6.8866                 4.8288
 IR Inten    --      5.1599                11.5863               153.4201

                    118                    119                    120
                      A                      A                      A
 Frequencies --   1671.8826              1673.9803              1677.3440
 Red. masses --      5.9126                 5.9447                 5.9257
 Frc consts  --      9.7373                 9.8148                 9.8227
 IR Inten    --      6.3340               240.5936                 3.0496

                    121                    122                    123
                      A                      A                      A
 Frequencies --   2996.8541              3060.1961              3070.0162
 Red. masses --      1.0532                 1.0893                 1.0338
 Frc consts  --      5.5728                 6.0101                 5.7408
 IR Inten    --    127.2702                59.3668                50.3286

                    124                    125                    126
                      A                      A                      A
 Frequencies --   3131.2065              3143.3023              3172.8006
 Red. masses --      1.0939                 1.1036                 1.1046
 Frc consts  --      6.3188                 6.4243                 6.5517
 IR Inten    --     26.4073                10.1395                20.9483

                    127                    128                    129
                      A                      A                      A
 Frequencies --   3183.0833              3192.5675              3193.3590
 Red. masses --      1.0879                 1.0857                 1.0882
 Frc consts  --      6.4942                 6.5200                 6.5382
 IR Inten    --     16.8409                 4.3677                 3.5201

                    130                    131                    132
                      A                      A                      A
 Frequencies --   3194.9572              3198.8116              3202.4125
 Red. masses --      1.0861                 1.0884                 1.0888
 Frc consts  --      6.5321                 6.5615                 6.5789
 IR Inten    --      2.2296                 2.9552                 2.8582

                    133                    134                    135
                      A                      A                      A
 Frequencies --   3203.1606              3208.0645              3211.0377
 Red. masses --      1.0930                 1.0924                 1.0937
 Frc consts  --      6.6075                 6.6240                 6.6444
 IR Inten    --     33.4560                28.0363                25.7085

                    136                    137                    138
                      A                      A                      A
 Frequencies --   3217.8214              3219.7403              3221.8527
 Red. masses --      1.0947                 1.0977                 1.0978
 Frc consts  --      6.6781                 6.7049                 6.7139
 IR Inten    --     27.5931                25.7744                25.8384

                    139                    140                    141
                      A                      A                      A
 Frequencies --   3224.0792              3244.6451              3274.4006
 Red. masses --      1.0972                 1.0917                 1.0918
 Frc consts  --      6.7196                 6.7718                 6.8969
 IR Inten    --     14.1020                16.8190                 4.5240

                    142                    143                    144
                      A                      A                      A
 Frequencies --   3376.8983              3581.8559              3657.4612
 Red. masses --      1.0668                 1.0828                 1.0764
 Frc consts  --      7.1676                 8.1850                 8.4833
 IR Inten    --    162.5843                58.0802                48.4098

 - Thermochemistry -
 -------------------
 Temperature   298.150 Kelvin.  Pressure   1.00000 Atm.
 Atom     1 has atomic number  6 and mass  12.00000

 Molecular mass:   344.18886 amu.
 Principal axes and moments of inertia in atomic units:
                           1         2         3
     Eigenvalues --  5113.78062********************
           X            0.99999   0.00117  -0.00335
           Y           -0.00117   1.00000   0.00021
           Z            0.00335  -0.00021   0.99999
 This molecule is an asymmetric top.
 Rotational symmetry number  1.
 Warning -- assumption of classical behavior for rotation
           may cause significant error
 Rotational temperatures (Kelvin)      0.01694     0.00590     0.00520
 Rotational constants (GHZ):           0.35292     0.12283     0.10825
    1 imaginary frequencies ignored.
 Zero-point vibrational energy    1104585.5 (Joules/Mol)
                                  264.00226 (Kcal/Mol)
 Warning -- explicit consideration of  34 degrees of freedom as
           vibrations may cause significant error
 Vibrational temperatures:     26.16    34.93    44.15    63.57    82.16
          (Kelvin)             86.25   121.70   143.21   177.39   192.54
                              205.94   220.05   249.20   261.35   312.49
                              324.17   357.10   367.77   385.35   423.68
                              439.99   466.63   516.36   528.65   554.98
                              605.39   610.51   612.61   704.71   737.12
                              758.73   792.25   810.89   841.76   899.28
                              915.31   916.27   918.14   942.48   996.52
                             1033.63  1039.68  1043.85  1050.28  1099.57
                             1118.90  1124.62  1143.60  1162.14  1236.32
                             1254.62  1256.15  1261.87  1316.89  1334.89
                             1357.04  1378.38  1389.18  1436.89  1440.84
                             1455.16  1457.42  1462.13  1464.28  1475.57
                             1477.02  1479.45  1480.82  1485.26  1527.24
                             1534.74  1535.54  1537.83  1560.98  1602.71
                             1611.88  1613.83  1620.05  1665.89  1699.38
                             1702.64  1705.17  1730.99  1737.71  1748.06
                             1753.18  1788.84  1814.87  1837.49  1895.90
                             1907.35  1921.04  1945.80  1951.92  1956.77
                             1962.68  1979.55  2018.68  2047.46  2087.22
                             2116.29  2138.42  2140.40  2145.51  2147.22
                             2170.01  2171.16  2215.83  2220.68  2223.88
                             2234.80  2329.17  2371.44  2376.25  2381.57
                             2391.31  2405.47  2408.48  2413.32  4311.80
                             4402.94  4417.07  4505.11  4522.51  4564.95
                             4579.75  4593.39  4594.53  4596.83  4602.38
                             4607.56  4608.63  4615.69  4619.97  4629.73
                             4632.49  4635.53  4638.73  4668.32  4711.13
                             4858.60  5153.49  5262.27

 Zero-point correction=                           0.420714 (Hartree/Particle)
 Thermal correction to Energy=                    0.443904
 Thermal correction to Enthalpy=                  0.444848
 Thermal correction to Gibbs Free Energy=         0.366187
 Sum of electronic and zero-point Energies=          -1075.210711
 Sum of electronic and thermal Energies=             -1075.187521
 Sum of electronic and thermal Enthalpies=           -1075.186577
 Sum of electronic and thermal Free Energies=        -1075.265239

                     E (Thermal)             CV                S
                      KCal/Mol        Cal/Mol-Kelvin    Cal/Mol-Kelvin
 Total                  278.554             90.499            165.558
 Electronic               0.000              0.000              0.000
 Translational            0.889              2.981             43.402
 Rotational               0.889              2.981             35.481
 Vibrational            276.777             84.537             86.674
 Vibration     1          0.593              1.986              6.824
 Vibration     2          0.593              1.985              6.249
 Vibration     3          0.594              1.984              5.784
 Vibration     4          0.595              1.980              5.062
 Vibration     5          0.596              1.975              4.555
 Vibration     6          0.597              1.973              4.459
 Vibration     7          0.601              1.960              3.782
 Vibration     8          0.604              1.949              3.463
 Vibration     9          0.610              1.930              3.048
 Vibration    10          0.613              1.920              2.890
 Vibration    11          0.616              1.910              2.762
 Vibration    12          0.619              1.899              2.635
 Vibration    13          0.627              1.875              2.400
 Vibration    14          0.630              1.865              2.311
 Vibration    15          0.646              1.815              1.982
 Vibration    16          0.650              1.802              1.916
 Vibration    17          0.662              1.766              1.743
 Vibration    18          0.666              1.753              1.692
 Vibration    19          0.673              1.732              1.610
 Vibration    20          0.689              1.684              1.448
 Vibration    21          0.696              1.663              1.385
 Vibration    22          0.709              1.627              1.288
 Vibration    23          0.734              1.557              1.127
 Vibration    24          0.740              1.539              1.090
 Vibration    25          0.754              1.501              1.017
 Vibration    26          0.783              1.425              0.889
 Vibration    27          0.786              1.417              0.877
 Vibration    28          0.788              1.414              0.873
 Vibration    29          0.846              1.273              0.684
 Vibration    30          0.867              1.223              0.628
 Vibration    31          0.882              1.189              0.593
 Vibration    32          0.906              1.138              0.543
 Vibration    33          0.919              1.110              0.517
 Vibration    34          0.942              1.064              0.476

 Optimization completed.
    -- Stationary point found.
 Normal termination of Gaussian 16 at Mon Jun  6 19:29:19 2022.
