 Gaussian 16, Revision A.03,
 Gaussian 16:  ES64L-G16RevA.03 25-Dec-2016

 ----------------------------------------------------------------------
 # wB97XD def2tzvp, opt=(ts, noeigen, calcfc, maxcycles=70, maxstep=8),
  freq=noraman, scrf=(iefpcm, solvent=water)
 ----------------------------------------------------------------------

 ------------------------
 1_iteration/TS-273-1.out
 ------------------------
 Symbolic Z-matrix:
 Charge =  0 Multiplicity = 1

 SCF Done:  E(RwB97XD) =  -747.397568167     A.U. after   15 cycles
 Optimization completed.
    -- Stationary point found.
 Normal termination of Gaussian 16 at Wed Feb 10 05:28:59 2021.

 ---------------------------------------------------------------------
 #N Geom=AllCheck Guess=TCheck SCRF=Check GenChk RwB97XD/def2TZVP Freq
 ---------------------------------------------------------------------

 Structure from the checkpoint file:  "/beegfs/scratch/user/q/tla25/Gau-19839.chk"
 ------------------------
 1_iteration/TS-273-1.out
 ------------------------
 Charge =  0 Multiplicity = 1

                         Standard orientation:
 ---------------------------------------------------------------------
 Center     Atomic      Atomic             Coordinates (Angstroms)
 Number     Number       Type             X           Y           Z
 ---------------------------------------------------------------------
      1          6           0       -0.813769    0.048948    0.270161
      2          6           0       -1.438670    1.259048   -0.162619
      3          8           0       -0.939001    2.375408   -0.078629
      4          6           0        0.425021    0.004909    0.846551
      5          6           0        3.265351   -0.208979    0.035851
      6          1           0        4.056161   -0.281339   -0.713639
      7          1           0        3.424400    0.692411    0.626851
      8          1           0        3.331741   -1.071249    0.698571
      9          7           0        1.933641   -0.163010   -0.555089
     10          1           0        1.810190    0.639040   -1.159219
     11          1           0        1.723991   -0.996130   -1.089469
     12          1           0        0.771071   -0.888921    1.345431
     13          1           0        0.829150    0.943049    1.203281
     14         17           0       -1.655699   -1.450532   -0.102689
     15          1           0       -2.450900    1.136428   -0.591109
 ---------------------------------------------------------------------

 SCF Done:  E(RwB97XD) =  -747.397568167     A.U. after    1 cycles

 The electronic state is 1-A.
 Alpha  occ. eigenvalues -- -101.69026 -19.22516 -14.46341 -10.36040 -10.33209
 Alpha  occ. eigenvalues --  -10.31556 -10.31294  -9.57565  -7.32183  -7.31365
 Alpha  occ. eigenvalues --   -7.31341  -1.12866  -1.01928  -0.96564  -0.85288
 Alpha  occ. eigenvalues --   -0.78026  -0.75659  -0.63024  -0.62096  -0.58096
 Alpha  occ. eigenvalues --   -0.55701  -0.53636  -0.52362  -0.50604  -0.48825
 Alpha  occ. eigenvalues --   -0.47392  -0.47047  -0.43384  -0.40098  -0.39894
 Alpha  occ. eigenvalues --   -0.33904  -0.28314
 Alpha virt. eigenvalues --    0.02258   0.10591   0.11025   0.14422   0.14803
 Alpha virt. eigenvalues --    0.16166   0.17054   0.17806   0.19121   0.21158
 Alpha virt. eigenvalues --    0.21644   0.22251   0.24190   0.25011   0.26645

 Mulliken charges:
               1
     1  C   -0.020036
     2  C    0.111585
     3  O   -0.472061
     4  C   -0.189073
     5  C   -0.258993
     6  H    0.142490
     7  H    0.144337
     8  H    0.144735
     9  N   -0.413892
    10  H    0.276602
    11  H    0.275451
    12  H    0.180767
    13  H    0.171278
    14  Cl  -0.176449
    15  H    0.083259
 Sum of Mulliken charges =  -0.00000

 Dipole moment (field-independent basis, Debye):
    X=              6.8908    Y=             -3.2661    Z=             -0.8886  Tot=              7.6772
 Quadrupole moment (field-independent basis, Debye-Ang):
   XX=            -40.3426   YY=            -61.6132   ZZ=            -46.8788
   XY=             -0.0587   XZ=             -0.9079   YZ=              0.1068

  Exact polarizability: 142.687  -8.663 109.408   4.476  -0.111  75.904
 Approx polarizability: 101.963  -2.345  93.296   3.400   0.150  67.610

 ******    1 imaginary frequencies (negative Signs) ******

                      1                      2                      3
                      A                      A                      A
 Frequencies --   -313.6942                43.6398                84.5016
 Red. masses --      5.9493                 2.8296                 2.4583
 Frc consts  --      0.3449                 0.0032                 0.0103
 IR Inten    --    772.7009                 1.0341                 8.4880

                      4                      5                      6
                      A                      A                      A
 Frequencies --    106.5033               169.4682               182.4855
 Red. masses --      3.4511                 1.3237                 3.2835
 Frc consts  --      0.0231                 0.0224                 0.0644
 IR Inten    --      9.3495                 7.8935                27.2379

                      7                      8                      9
                      A                      A                      A
 Frequencies --    217.9455               278.7659               354.6314
 Red. masses --      3.1373                 3.8707                 2.7616
 Frc consts  --      0.0878                 0.1772                 0.2046
 IR Inten    --     14.4111                22.4229                 2.5268

                     10                     11                     12
                      A                      A                      A
 Frequencies --    471.7262               514.4093               556.7470
 Red. masses --      6.5282                 6.5862                 1.1333
 Frc consts  --      0.8559                 1.0268                 0.2070
 IR Inten    --    128.1710                32.2532                30.6398

                     13                     14                     15
                      A                      A                      A
 Frequencies --    759.0103               931.0422               963.4240
 Red. masses --      3.1082                 1.4753                 1.1250
 Frc consts  --      1.0550                 0.7535                 0.6152
 IR Inten    --     51.4415                31.7987               152.0571

                     16                     17                     18
                      A                      A                      A
 Frequencies --   1001.2335              1027.2809              1056.9936
 Red. masses --      1.1574                 1.6027                 1.5429
 Frc consts  --      0.6836                 0.9965                 1.0157
 IR Inten    --     21.9081                27.1612                47.8429

                     19                     20                     21
                      A                      A                      A
 Frequencies --   1075.0731              1123.7839              1193.2998
 Red. masses --      3.1481                 1.2398                 1.4223
 Frc consts  --      2.1437                 0.9225                 1.1933
 IR Inten    --    165.2806               127.6831                10.6167

                     22                     23                     24
                      A                      A                      A
 Frequencies --   1196.1978              1342.3630              1375.6155
 Red. masses --      2.2522                 1.3435                 1.5666
 Frc consts  --      1.8987                 1.4264                 1.7467
 IR Inten    --     44.3299                 0.7295               469.6105

                     25                     26                     27
                      A                      A                      A
 Frequencies --   1432.1101              1463.1814              1491.3764
 Red. masses --      1.4069                 1.1943                 1.0437
 Frc consts  --      1.7001                 1.5065                 1.3677
 IR Inten    --     44.7365                48.1191                12.9442

                     28                     29                     30
                      A                      A                      A
 Frequencies --   1509.3353              1516.3783              1650.6317
 Red. masses --      1.0449                 2.3303                 1.0896
 Frc consts  --      1.4024                 3.1570                 1.7491
 IR Inten    --     53.7265               557.3808                45.3758

                     31                     32                     33
                      A                      A                      A
 Frequencies --   1702.0317              2945.8393              3054.2889
 Red. masses --      7.3385                 1.0832                 1.0358
 Frc consts  --     12.5254                 5.5381                 5.6928
 IR Inten    --    402.6825               172.6333                73.5535

                     34                     35                     36
                      A                      A                      A
 Frequencies --   3127.6783              3151.9180              3176.8849
 Red. masses --      1.1018                 1.1053                 1.0590
 Frc consts  --      6.3505                 6.4699                 6.2974
 IR Inten    --     24.8286                23.7438                14.9539

                     37                     38                     39
                      A                      A                      A
 Frequencies --   3272.7934              3544.1685              3629.0091
 Red. masses --      1.1187                 1.0500                 1.0965
 Frc consts  --      7.0598                 7.7712                 8.5078
 IR Inten    --      0.3421                19.3747                36.0534

 - Thermochemistry -
 -------------------
 Temperature   298.150 Kelvin.  Pressure   1.00000 Atm.
 Atom     1 has atomic number  6 and mass  12.00000

 Molecular mass:   121.02944 amu.
 Principal axes and moments of inertia in atomic units:
                           1         2         3
     Eigenvalues --   756.132771425.171342022.95339
           X            0.99915  -0.04103   0.00282
           Y            0.04105   0.99915  -0.00394
           Z           -0.00265   0.00405   0.99999
 This molecule is an asymmetric top.
 Rotational symmetry number  1.
 Warning -- assumption of classical behavior for rotation
           may cause significant error
 Rotational temperatures (Kelvin)      0.11455     0.06077     0.04282
 Rotational constants (GHZ):           2.38680     1.26633     0.89213
    1 imaginary frequencies ignored.
 Zero-point vibrational energy     315178.7 (Joules/Mol)
                                   75.32952 (Kcal/Mol)
 Warning -- explicit consideration of  11 degrees of freedom as
           vibrations may cause significant error
 Vibrational temperatures:     62.79   121.58   153.23   243.83   262.56
          (Kelvin)            313.57   401.08   510.24   678.71   740.12
                              801.03  1092.05  1339.56  1386.15  1440.55
                             1478.03  1520.78  1546.79  1616.87  1716.89
                             1721.06  1931.36  1979.20  2060.49  2105.19
                             2145.76  2171.60  2181.73  2374.89  2448.84
                             4238.41  4394.44  4500.03  4534.91  4570.83
                             4708.82  5099.27  5221.33

 Zero-point correction=                           0.120045 (Hartree/Particle)
 Thermal correction to Energy=                    0.128808
 Thermal correction to Enthalpy=                  0.129752
 Thermal correction to Gibbs Free Energy=         0.085088
 Sum of electronic and zero-point Energies=           -747.277523
 Sum of electronic and thermal Energies=              -747.268760
 Sum of electronic and thermal Enthalpies=            -747.267816
 Sum of electronic and thermal Free Energies=         -747.312481

                     E (Thermal)             CV                S
                      KCal/Mol        Cal/Mol-Kelvin    Cal/Mol-Kelvin
 Total                   80.828             28.683             94.004
 Electronic               0.000              0.000              0.000
 Translational            0.889              2.981             40.287
 Rotational               0.889              2.981             29.168
 Vibrational             79.051             22.721             24.549
 Vibration     1          0.595              1.980              5.087
 Vibration     2          0.601              1.960              3.784
 Vibration     3          0.605              1.944              3.332
 Vibration     4          0.625              1.880              2.441
 Vibration     5          0.630              1.864              2.303
 Vibration     6          0.646              1.814              1.976
 Vibration     7          0.679              1.713              1.541
 Vibration     8          0.730              1.566              1.146
 Vibration     9          0.829              1.313              0.733
 Vibration    10          0.869              1.218              0.623
 Vibration    11          0.912              1.125              0.530

 Optimization completed.
    -- Stationary point found.
 Normal termination of Gaussian 16 at Wed Feb 10 05:33:36 2021.
