 Gaussian 16, Revision A.03,
 Gaussian 16:  ES64L-G16RevA.03 25-Dec-2016

 ----------------------------------------------------------------------
 # wB97XD def2tzvp, opt=(ts, noeigen, calcfc, maxcycles=70, maxstep=8),
  freq=noraman, scrf=(iefpcm, solvent=water)
 ----------------------------------------------------------------------

 ------------------------
 1_iteration/TS-249-1.out
 ------------------------
 Symbolic Z-matrix:
 Charge =  0 Multiplicity = 1

 SCF Done:  E(RwB97XD) =  -287.788399831     A.U. after   14 cycles
 SCF Done:  E(RwB97XD) =  -287.788399850     A.U. after    6 cycles
 Optimization completed.
    -- Stationary point found.
 Normal termination of Gaussian 16 at Wed Feb 10 09:14:28 2021.

 ---------------------------------------------------------------------
 #N Geom=AllCheck Guess=TCheck SCRF=Check GenChk RwB97XD/def2TZVP Freq
 ---------------------------------------------------------------------

 Structure from the checkpoint file:  "/beegfs/scratch/user/q/tla25/Gau-16006.chk"
 ------------------------
 1_iteration/TS-249-1.out
 ------------------------
 Charge =  0 Multiplicity = 1

                         Standard orientation:
 ---------------------------------------------------------------------
 Center     Atomic      Atomic             Coordinates (Angstroms)
 Number     Number       Type             X           Y           Z
 ---------------------------------------------------------------------
      1          6           0       -0.758039    0.790181   -0.339247
      2          6           0       -1.605346   -0.147732    0.293471
      3          8           0       -2.640772   -0.644498   -0.159385
      4          6           0        0.380094    1.250840    0.301279
      5          6           0        1.705441   -1.240641    0.003706
      6          1           0        0.771271   -1.465230   -0.513670
      7          1           0        2.497675   -1.868838   -0.404592
      8          1           0        1.577122   -1.466894    1.061307
      9          7           0        1.988679    0.177794   -0.150133
     10          1           0        2.208951    0.411590   -1.110174
     11          1           0        2.758943    0.480560    0.433246
     12          1           0        0.852518    2.165718   -0.031745
     13          1           0        0.483460    1.055371    1.363437
     14          1           0       -0.996512    1.116452   -1.345609
     15          1           0       -1.280905   -0.433194    1.318562
 ---------------------------------------------------------------------

 SCF Done:  E(RwB97XD) =  -287.788399850     A.U. after    1 cycles

 The electronic state is 1-A.
 Alpha  occ. eigenvalues --  -19.20336 -14.47123 -10.33990 -10.32590 -10.31194
 Alpha  occ. eigenvalues --  -10.25030  -1.10405  -1.02623  -0.87663  -0.78436
 Alpha  occ. eigenvalues --   -0.72920  -0.64377  -0.61994  -0.56659  -0.54358
 Alpha  occ. eigenvalues --   -0.53706  -0.52228  -0.47693  -0.47498  -0.45677
 Alpha  occ. eigenvalues --   -0.45258  -0.41587  -0.31964  -0.28268
 Alpha virt. eigenvalues --    0.05107   0.10738   0.13676   0.14045   0.15284
 Alpha virt. eigenvalues --    0.16624   0.18071   0.18795   0.19821   0.20844
 Alpha virt. eigenvalues --    0.21873   0.23810   0.25181   0.27463   0.29197

 Mulliken charges:
               1
     1  C   -0.288297
     2  C    0.134459
     3  O   -0.522673
     4  C   -0.183659
     5  C   -0.296846
     6  H    0.150112
     7  H    0.150639
     8  H    0.150103
     9  N   -0.355093
    10  H    0.277256
    11  H    0.281090
    12  H    0.164060
    13  H    0.170148
    14  H    0.117080
    15  H    0.051621
 Sum of Mulliken charges =  -0.00000

 Dipole moment (field-independent basis, Debye):
    X=             11.3764    Y=              1.6702    Z=              0.7779  Tot=             11.5246
 Quadrupole moment (field-independent basis, Debye-Ang):
   XX=            -44.9464   YY=            -37.3099   ZZ=            -34.9597
   XY=             -2.5455   XZ=             -2.4276   YZ=             -0.9633

  Exact polarizability: 131.639  11.404  78.456   4.074  -1.720  72.030
 Approx polarizability:  98.221  10.668  64.913   4.620  -0.311  61.197

 ******    1 imaginary frequencies (negative Signs) ******

                      1                      2                      3
                      A                      A                      A
 Frequencies --   -333.0774                66.8180                99.7643
 Red. masses --      5.8252                 1.9176                 4.6105
 Frc consts  --      0.3808                 0.0050                 0.0270
 IR Inten    --    869.9360                 1.9438                 4.7031

                      4                      5                      6
                      A                      A                      A
 Frequencies --    170.2482               237.9026               266.3462
 Red. masses --      1.1199                 2.5713                 2.4677
 Frc consts  --      0.0191                 0.0857                 0.1031
 IR Inten    --      2.4260                 3.5148                 8.9246

                      7                      8                      9
                      A                      A                      A
 Frequencies --    357.0167               404.6583               578.0003
 Red. masses --      2.2581                 2.6329                 2.5098
 Frc consts  --      0.1696                 0.2540                 0.4940
 IR Inten    --     37.6158                25.5930                42.0456

                     10                     11                     12
                      A                      A                      A
 Frequencies --    656.8107               783.3504               897.0555
 Red. masses --      1.6631                 1.3409                 1.4103
 Frc consts  --      0.4227                 0.4848                 0.6686
 IR Inten    --     35.8460                73.2765                75.9808

                     13                     14                     15
                      A                      A                      A
 Frequencies --    985.0800              1003.0847              1034.5272
 Red. masses --      1.1221                 1.1270                 1.5456
 Frc consts  --      0.6416                 0.6681                 0.9746
 IR Inten    --     86.3556                47.8506                 2.3223

                     16                     17                     18
                      A                      A                      A
 Frequencies --   1063.3107              1124.5468              1172.0395
 Red. masses --      2.3939                 1.2385                 1.4367
 Frc consts  --      1.5947                 0.9228                 1.1628
 IR Inten    --     71.7671                26.0908               293.4891

                     19                     20                     21
                      A                      A                      A
 Frequencies --   1203.1544              1227.0620              1276.8863
 Red. masses --      1.4095                 1.3757                 2.3116
 Frc consts  --      1.2022                 1.2204                 2.2206
 IR Inten    --     14.4678                70.8157                72.9488

                     22                     23                     24
                      A                      A                      A
 Frequencies --   1345.4390              1375.8589              1453.7151
 Red. masses --      1.3373                 1.3245                 1.3542
 Frc consts  --      1.4263                 1.4772                 1.6862
 IR Inten    --      2.9400               172.7428                 0.6007

                     25                     26                     27
                      A                      A                      A
 Frequencies --   1459.3895              1491.8490              1504.6217
 Red. masses --      1.2365                 1.0388                 1.0371
 Frc consts  --      1.5517                 1.3621                 1.3833
 IR Inten    --      6.6121                13.8690                15.4686

                     28                     29                     30
                      A                      A                      A
 Frequencies --   1546.3258              1648.4116              1667.8592
 Red. masses --      2.1361                 1.0910                 6.2075
 Frc consts  --      3.0093                 1.7467                10.1738
 IR Inten    --    159.4612                75.7806              1297.2262

                     31                     32                     33
                      A                      A                      A
 Frequencies --   2867.3481              3058.5351              3132.5349
 Red. masses --      1.0796                 1.0330                 1.1045
 Frc consts  --      5.2298                 5.6934                 6.3859
 IR Inten    --    185.7256                34.9186                14.9726

                     34                     35                     36
                      A                      A                      A
 Frequencies --   3147.6861              3152.1264              3180.7692
 Red. masses --      1.0604                 1.1042                 1.0906
 Frc consts  --      6.1899                 6.4641                 6.5009
 IR Inten    --     45.4562                16.7587                15.3400

                     37                     38                     39
                      A                      A                      A
 Frequencies --   3237.8998              3536.6808              3621.6591
 Red. masses --      1.1157                 1.0502                 1.0965
 Frc consts  --      6.8916                 7.7394                 8.4739
 IR Inten    --     13.0071                35.5468                37.8264

 - Thermochemistry -
 -------------------
 Temperature   298.150 Kelvin.  Pressure   1.00000 Atm.
 Atom     1 has atomic number  6 and mass  12.00000

 Molecular mass:    87.06841 amu.
 Principal axes and moments of inertia in atomic units:
                           1         2         3
     Eigenvalues --   286.47591 995.727581191.86281
           X            0.99979  -0.02039  -0.00226
           Y            0.02035   0.99963  -0.01786
           Z            0.00263   0.01781   0.99984
 This molecule is an asymmetric top.
 Rotational symmetry number  1.
 Rotational temperatures (Kelvin)      0.30234     0.08699     0.07267
 Rotational constants (GHZ):           6.29980     1.81248     1.51422
    1 imaginary frequencies ignored.
 Zero-point vibrational energy     341153.3 (Joules/Mol)
                                   81.53759 (Kcal/Mol)
 Warning -- explicit consideration of   8 degrees of freedom as
           vibrations may cause significant error
 Vibrational temperatures:     96.14   143.54   244.95   342.29   383.21
          (Kelvin)            513.67   582.21   831.61   945.00  1127.07
                             1290.66  1417.31  1443.22  1488.45  1529.87
                             1617.97  1686.30  1731.07  1765.47  1837.15
                             1935.79  1979.55  2091.57  2099.74  2146.44
                             2164.82  2224.82  2371.70  2399.68  4125.47
                             4400.55  4507.02  4528.82  4535.21  4576.42
                             4658.62  5088.49  5210.76

 Zero-point correction=                           0.129938 (Hartree/Particle)
 Thermal correction to Energy=                    0.137253
 Thermal correction to Enthalpy=                  0.138197
 Thermal correction to Gibbs Free Energy=         0.098206
 Sum of electronic and zero-point Energies=           -287.658461
 Sum of electronic and thermal Energies=              -287.651147
 Sum of electronic and thermal Enthalpies=            -287.650203
 Sum of electronic and thermal Free Energies=         -287.690194

                     E (Thermal)             CV                S
                      KCal/Mol        Cal/Mol-Kelvin    Cal/Mol-Kelvin
 Total                   86.127             24.647             84.168
 Electronic               0.000              0.000              0.000
 Translational            0.889              2.981             39.305
 Rotational               0.889              2.981             27.322
 Vibrational             84.350             18.685             17.541
 Vibration     1          0.598              1.970              4.245
 Vibration     2          0.604              1.949              3.459
 Vibration     3          0.625              1.879              2.433
 Vibration     4          0.656              1.783              1.819
 Vibration     5          0.672              1.735              1.620
 Vibration     6          0.732              1.561              1.135
 Vibration     7          0.770              1.460              0.946
 Vibration     8          0.935              1.079              0.489

 Optimization completed.
    -- Stationary point found.
 Normal termination of Gaussian 16 at Wed Feb 10 09:17:43 2021.
