 Gaussian 16, Revision A.03,
 Gaussian 16:  ES64L-G16RevA.03 25-Dec-2016

 ----------------------------------------------------------------------
 # wB97XD def2tzvp, opt=(ts, noeigen, calcfc, maxcycles=70, maxstep=1),
  freq=noraman, scrf=(iefpcm, solvent=water)
 ----------------------------------------------------------------------

 ------------------------
 0_iteration/TS-242-0.out
 ------------------------
 Symbolic Z-matrix:
 Charge =  0 Multiplicity = 1

 SCF Done:  E(RwB97XD) =  -558.163912910     A.U. after   14 cycles
 SCF Done:  E(RwB97XD) =  -558.163808263     A.U. after   10 cycles
 SCF Done:  E(RwB97XD) =  -558.163706693     A.U. after   10 cycles
 SCF Done:  E(RwB97XD) =  -558.163608890     A.U. after   10 cycles
 SCF Done:  E(RwB97XD) =  -558.163516372     A.U. after   10 cycles
 SCF Done:  E(RwB97XD) =  -558.163429526     A.U. after   10 cycles
 SCF Done:  E(RwB97XD) =  -558.163347637     A.U. after   10 cycles
 SCF Done:  E(RwB97XD) =  -558.163270223     A.U. after   10 cycles
 SCF Done:  E(RwB97XD) =  -558.163197347     A.U. after   10 cycles
 SCF Done:  E(RwB97XD) =  -558.163129349     A.U. after   10 cycles
 SCF Done:  E(RwB97XD) =  -558.163760160     A.U. after   10 cycles
 SCF Done:  E(RwB97XD) =  -558.163795966     A.U. after   10 cycles
 SCF Done:  E(RwB97XD) =  -558.163826826     A.U. after   10 cycles
 SCF Done:  E(RwB97XD) =  -558.163849624     A.U. after   10 cycles
 SCF Done:  E(RwB97XD) =  -558.163869599     A.U. after   10 cycles
 SCF Done:  E(RwB97XD) =  -558.163887041     A.U. after   10 cycles
 SCF Done:  E(RwB97XD) =  -558.163899139     A.U. after   10 cycles
 SCF Done:  E(RwB97XD) =  -558.163900279     A.U. after   10 cycles
 SCF Done:  E(RwB97XD) =  -558.163900964     A.U. after    9 cycles
 Optimization completed.
    -- Stationary point found.
 Normal termination of Gaussian 16 at Tue Feb  9 15:41:59 2021.

 ---------------------------------------------------------------------
 #N Geom=AllCheck Guess=TCheck SCRF=Check GenChk RwB97XD/def2TZVP Freq
 ---------------------------------------------------------------------

 Structure from the checkpoint file:  "/beegfs/scratch/user/q/tla25/Gau-96083.chk"
 ------------------------
 0_iteration/TS-242-0.out
 ------------------------
 Charge =  0 Multiplicity = 1

                         Standard orientation:
 ---------------------------------------------------------------------
 Center     Atomic      Atomic             Coordinates (Angstroms)
 Number     Number       Type             X           Y           Z
 ---------------------------------------------------------------------
      1          6           0       -0.524727    0.437422   -0.456393
      2          6           0       -0.973133    1.783039   -0.196613
      3          8           0       -2.173535    2.084377   -0.162844
      4          6           0       -1.481582   -0.473724   -0.864479
      5          6           0       -3.494616   -2.226151    0.379963
      6          1           0       -4.027239   -2.597131    1.258057
      7          1           0       -4.208717   -1.735460   -0.280926
      8          1           0       -3.059352   -3.072328   -0.150476
      9          7           0       -2.437659   -1.282896    0.720108
     10          1           0       -2.790301   -0.460379    1.192090
     11          1           0       -1.718208   -1.699188    1.296662
     12          1           0       -1.176445   -1.442661   -1.238822
     13          1           0       -2.417537   -0.097291   -1.255194
     14          6           0        0.863847   -0.015483   -0.206693
     15          6           0        1.530245    0.281557    0.985512
     16          6           0        2.821169   -0.166510    1.223078
     17          6           0        3.478320   -0.941418    0.278102
     18          6           0        2.829766   -1.257836   -0.907828
     19          6           0        1.544798   -0.795419   -1.146489
     20          1           0        1.023874    0.864619    1.745285
     21          1           0        3.311079    0.081574    2.156860
     22          1           0        4.484455   -1.295644    0.463723
     23          1           0        3.331384   -1.858397   -1.656981
     24          1           0        1.060156   -1.032077   -2.086703
     25          6           0        0.040468    2.891840    0.009814
     26          1           0        1.024630    2.655022   -0.390468
     27          1           0       -0.342363    3.798867   -0.457448
     28          1           0        0.149153    3.091831    1.078480
 ---------------------------------------------------------------------

 SCF Done:  E(RwB97XD) =  -558.163900964     A.U. after    1 cycles

 The electronic state is 1-A.
 Alpha  occ. eigenvalues --  -19.20352 -14.46268 -10.35045 -10.31839 -10.31214
 Alpha  occ. eigenvalues --  -10.29560 -10.28595 -10.28590 -10.28349 -10.28244
 Alpha  occ. eigenvalues --  -10.28230 -10.26906 -10.25839  -1.10987  -1.01869
 Alpha  occ. eigenvalues --   -0.96308  -0.89579  -0.84641  -0.82772  -0.82486
 Alpha  occ. eigenvalues --   -0.77891  -0.72537  -0.69828  -0.68348  -0.62510
 Alpha  occ. eigenvalues --   -0.61569  -0.58570  -0.56054  -0.55560  -0.54305
 Alpha  occ. eigenvalues --   -0.53124  -0.52362  -0.52071  -0.51055  -0.50115
 Alpha  occ. eigenvalues --   -0.48619  -0.47377  -0.47231  -0.46138  -0.45177
 Alpha  occ. eigenvalues --   -0.43641  -0.42044  -0.41851  -0.40531  -0.34502
 Alpha  occ. eigenvalues --   -0.33330  -0.31704  -0.26588
 Alpha virt. eigenvalues --    0.04178   0.05313   0.05707   0.10424   0.12662
 Alpha virt. eigenvalues --    0.13932   0.15038   0.15321   0.15483   0.16663
 Alpha virt. eigenvalues --    0.17696   0.17859   0.18702   0.18778   0.19811

 Mulliken charges:
               1
     1  C   -0.149623
     2  C    0.278534
     3  O   -0.524620
     4  C   -0.175204
     5  C   -0.261980
     6  H    0.142167
     7  H    0.142881
     8  H    0.144201
     9  N   -0.384906
    10  H    0.273794
    11  H    0.273226
    12  H    0.163560
    13  H    0.154584
    14  C    0.166079
    15  C   -0.260830
    16  C   -0.136246
    17  C   -0.161127
    18  C   -0.146985
    19  C   -0.255749
    20  H    0.145735
    21  H    0.138510
    22  H    0.140436
    23  H    0.137975
    24  H    0.146232
    25  C   -0.404508
    26  H    0.138680
    27  H    0.133003
    28  H    0.142180
 Sum of Mulliken charges =  -0.00000

 Dipole moment (field-independent basis, Debye):
    X=             -0.8479    Y=             -6.2073    Z=              2.1617  Tot=              6.6274
 Quadrupole moment (field-independent basis, Debye-Ang):
   XX=            -73.5765   YY=            -80.0384   ZZ=            -73.1628
   XY=             16.3366   XZ=             -3.0193   YZ=              2.1444

  Exact polarizability: 241.239  -3.159 203.825   5.442  13.823 172.017
 Approx polarizability: 181.933  -8.079 157.117   4.792  13.103 149.201

 ******    1 imaginary frequencies (negative Signs) ******

                      1                      2                      3
                      A                      A                      A
 Frequencies --   -330.8045                30.7729                45.3820
 Red. masses --      6.0161                 3.3663                 3.7113
 Frc consts  --      0.3879                 0.0019                 0.0045
 IR Inten    --    844.2909                 2.4520                 4.1020

                      4                      5                      6
                      A                      A                      A
 Frequencies --     65.4586                73.4776                87.7543
 Red. masses --      1.8690                 3.9033                 4.6310
 Frc consts  --      0.0047                 0.0124                 0.0210
 IR Inten    --     13.3348                 8.5609                 9.3916

                      7                      8                      9
                      A                      A                      A
 Frequencies --    121.0522               167.9993               174.5689
 Red. masses --      3.1620                 1.2332                 1.0556
 Frc consts  --      0.0273                 0.0205                 0.0190
 IR Inten    --      0.8385                 3.4753                 0.4972

                     10                     11                     12
                      A                      A                      A
 Frequencies --    177.5658               245.2064               293.3329
 Red. masses --      3.0607                 4.1312                 3.1347
 Frc consts  --      0.0569                 0.1463                 0.1589
 IR Inten    --      3.9152                63.7260                26.1061

                     13                     14                     15
                      A                      A                      A
 Frequencies --    356.5142               391.0462               426.8633
 Red. masses --      2.6957                 5.9687                 2.9247
 Frc consts  --      0.2019                 0.5378                 0.3140
 IR Inten    --     30.4312                 9.0652                 0.3855

                     16                     17                     18
                      A                      A                      A
 Frequencies --    475.0193               483.1444               563.4201
 Red. masses --      4.3383                 3.3680                 1.3953
 Frc consts  --      0.5768                 0.4632                 0.2610
 IR Inten    --     53.5945                 4.9468                14.0342

                     19                     20                     21
                      A                      A                      A
 Frequencies --    576.8910               619.7014               635.5080
 Red. masses --      2.0693                 3.7958                 6.1759
 Frc consts  --      0.4057                 0.8589                 1.4696
 IR Inten    --     43.0955                25.3221                 2.4400

                     22                     23                     24
                      A                      A                      A
 Frequencies --    676.8840               726.5366               730.3193
 Red. masses --      3.2484                 4.0508                 1.6257
 Frc consts  --      0.8769                 1.2598                 0.5109
 IR Inten    --     32.4107                12.4589                84.4803

                     25                     26                     27
                      A                      A                      A
 Frequencies --    801.1314               853.7935               877.6388
 Red. masses --      2.2015                 2.0472                 1.2490
 Frc consts  --      0.8325                 0.8792                 0.5668
 IR Inten    --     43.3903                 3.7944                 1.1183

                     28                     29                     30
                      A                      A                      A
 Frequencies --    950.1802               965.2871               980.7467
 Red. masses --      1.4357                 1.1393                 1.2047
 Frc consts  --      0.7637                 0.6255                 0.6827
 IR Inten    --      8.1403               172.2332                 2.3351

                     31                     32                     33
                      A                      A                      A
 Frequencies --   1009.9025              1012.0808              1023.0628
 Red. masses --      1.4142                 1.5636                 1.3003
 Frc consts  --      0.8498                 0.9436                 0.8019
 IR Inten    --     12.8600                41.4490                 0.9242

                     34                     35                     36
                      A                      A                      A
 Frequencies --   1023.6399              1030.9925              1047.9067
 Red. masses --      5.2301                 1.4220                 2.0711
 Frc consts  --      3.2289                 0.8905                 1.3400
 IR Inten    --      4.0695                11.3743                11.2302

                     37                     38                     39
                      A                      A                      A
 Frequencies --   1064.1581              1075.6863              1108.8933
 Red. masses --      1.8965                 3.7844                 1.5850
 Frc consts  --      1.2654                 2.5800                 1.1483
 IR Inten    --     13.5473               190.0004                23.5427

                     40                     41                     42
                      A                      A                      A
 Frequencies --   1133.0691              1159.1928              1180.3643
 Red. masses --      1.5404                 1.1952                 1.1262
 Frc consts  --      1.1652                 0.9463                 0.9245
 IR Inten    --     66.9333               147.5451                 0.5196

                     43                     44                     45
                      A                      A                      A
 Frequencies --   1190.8219              1197.3277              1211.6265
 Red. masses --      1.4730                 2.8774                 1.1236
 Frc consts  --      1.2307                 2.4304                 0.9719
 IR Inten    --     11.2920                17.0404                 1.8409

                     46                     47                     48
                      A                      A                      A
 Frequencies --   1306.6069              1340.3295              1356.0893
 Red. masses --      4.0522                 1.3436                 1.7486
 Frc consts  --      4.0760                 1.4222                 1.8946
 IR Inten    --     45.8928                 3.1333                83.8288

                     49                     50                     51
                      A                      A                      A
 Frequencies --   1377.7239              1383.1096              1398.6204
 Red. masses --      1.4694                 2.2063                 1.8478
 Frc consts  --      1.6432                 2.4867                 2.1296
 IR Inten    --    145.3629                53.9893               341.1547

                     52                     53                     54
                      A                      A                      A
 Frequencies --   1461.3127              1467.8500              1481.2561
 Red. masses --      1.2028                 1.1081                 1.1175
 Frc consts  --      1.5134                 1.4066                 1.4447
 IR Inten    --     26.7833                49.4620                 6.4803

                     55                     56                     57
                      A                      A                      A
 Frequencies --   1485.1974              1490.5376              1504.6688
 Red. masses --      1.9100                 1.0514                 2.0931
 Frc consts  --      2.4823                 1.3763                 2.7920
 IR Inten    --     46.3048                10.7849               322.6015

                     58                     59                     60
                      A                      A                      A
 Frequencies --   1507.3220              1545.5572              1639.1492
 Red. masses --      1.0391                 2.4646                 5.2147
 Frc consts  --      1.3910                 3.4688                 8.2551
 IR Inten    --      9.0229                49.1316               139.5596

                     61                     62                     63
                      A                      A                      A
 Frequencies --   1647.1583              1655.6772              1672.6741
 Red. masses --      1.2205                 4.7748                 5.9476
 Frc consts  --      1.9510                 7.7118                 9.8042
 IR Inten    --     48.5952               497.4200                 4.5087

                     64                     65                     66
                      A                      A                      A
 Frequencies --   3054.3100              3060.3246              3127.4974
 Red. masses --      1.0354                 1.0380                 1.1023
 Frc consts  --      5.6907                 5.7275                 6.3526
 IR Inten    --     83.6402                11.3362                26.5157

                     67                     68                     69
                      A                      A                      A
 Frequencies --   3132.0662              3151.0265              3162.3971
 Red. masses --      1.0978                 1.1052                 1.0590
 Frc consts  --      6.3452                 6.4652                 6.2401
 IR Inten    --     20.2367                23.8189                36.5553

                     70                     71                     72
                      A                      A                      A
 Frequencies --   3162.7625              3184.8349              3189.2162
 Red. masses --      1.1039                 1.0861                 1.0872
 Frc consts  --      6.5058                 6.4910                 6.5151
 IR Inten    --     30.1319                11.8727                 1.5462

                     73                     74                     75
                      A                      A                      A
 Frequencies --   3199.5456              3205.6403              3217.5495
 Red. masses --      1.0911                 1.0948                 1.0987
 Frc consts  --      6.5813                 6.6285                 6.7013
 IR Inten    --     15.1531                54.2622                20.1797

                     76                     77                     78
                      A                      A                      A
 Frequencies --   3252.4485              3541.4628              3627.7668
 Red. masses --      1.1175                 1.0501                 1.0969
 Frc consts  --      6.9648                 7.7594                 8.5058
 IR Inten    --      4.5406                16.3812                39.4327

 - Thermochemistry -
 -------------------
 Temperature   298.150 Kelvin.  Pressure   1.00000 Atm.
 Atom     1 has atomic number  6 and mass  12.00000

 Molecular mass:   177.11536 amu.
 Principal axes and moments of inertia in atomic units:
                           1         2         3
     Eigenvalues --  1779.252513428.521184474.82011
           X            0.99874   0.05026  -0.00138
           Y           -0.05024   0.99866   0.01228
           Z            0.00200  -0.01220   0.99992
 This molecule is an asymmetric top.
 Rotational symmetry number  1.
 Warning -- assumption of classical behavior for rotation
           may cause significant error
 Rotational temperatures (Kelvin)      0.04868     0.02526     0.01936
 Rotational constants (GHZ):           1.01433     0.52639     0.40331
    1 imaginary frequencies ignored.
 Zero-point vibrational energy     628228.5 (Joules/Mol)
                                  150.15023 (Kcal/Mol)
 Warning -- explicit consideration of  19 degrees of freedom as
           vibrations may cause significant error
 Vibrational temperatures:     44.28    65.29    94.18   105.72   126.26
          (Kelvin)            174.17   241.71   251.17   255.48   352.80
                              422.04   512.94   562.63   614.16   683.45
                              695.14   810.64   830.02   891.61   914.35
                              973.89  1045.32  1050.77  1152.65  1228.42
                             1262.73  1367.10  1388.83  1411.08  1453.02
                             1456.16  1471.96  1472.79  1483.37  1507.70
                             1531.09  1547.67  1595.45  1630.23  1667.82
                             1698.28  1713.33  1722.69  1743.26  1879.92
                             1928.44  1951.11  1982.24  1989.99  2012.30
                             2102.50  2111.91  2131.20  2136.87  2144.55
                             2164.88  2168.70  2223.71  2358.37  2369.89
                             2382.15  2406.60  4394.47  4403.12  4499.77
                             4506.34  4533.62  4549.98  4550.51  4582.27
                             4588.57  4603.43  4612.20  4629.34  4679.55
                             5095.38  5219.55

 Zero-point correction=                           0.239280 (Hartree/Particle)
 Thermal correction to Energy=                    0.252839
 Thermal correction to Enthalpy=                  0.253783
 Thermal correction to Gibbs Free Energy=         0.197407
 Sum of electronic and zero-point Energies=           -557.924621
 Sum of electronic and thermal Energies=              -557.911062
 Sum of electronic and thermal Enthalpies=            -557.910118
 Sum of electronic and thermal Free Energies=         -557.966494

                     E (Thermal)             CV                S
                      KCal/Mol        Cal/Mol-Kelvin    Cal/Mol-Kelvin
 Total                  158.659             49.285            118.653
 Electronic               0.000              0.000              0.000
 Translational            0.889              2.981             41.422
 Rotational               0.889              2.981             31.679
 Vibrational            156.881             43.323             45.552
 Vibration     1          0.594              1.984              5.779
 Vibration     2          0.595              1.979              5.009
 Vibration     3          0.597              1.971              4.285
 Vibration     4          0.599              1.967              4.058
 Vibration     5          0.601              1.958              3.710
 Vibration     6          0.609              1.932              3.084
 Vibration     7          0.625              1.882              2.458
 Vibration     8          0.627              1.874              2.386
 Vibration     9          0.628              1.870              2.354
 Vibration    10          0.660              1.771              1.765
 Vibration    11          0.688              1.686              1.455
 Vibration    12          0.732              1.562              1.137
 Vibration    13          0.759              1.489              0.996
 Vibration    14          0.789              1.412              0.869
 Vibration    15          0.832              1.305              0.724
 Vibration    16          0.839              1.287              0.702
 Vibration    17          0.919              1.110              0.517
 Vibration    18          0.933              1.081              0.491
 Vibration    19          0.980              0.990              0.417

 Optimization completed.
    -- Stationary point found.
 Normal termination of Gaussian 16 at Tue Feb  9 16:20:37 2021.
