 Gaussian 16, Revision A.03,
 Gaussian 16:  ES64L-G16RevA.03 25-Dec-2016

 ----------------------------------------------------------------------
 # wB97XD def2tzvp, opt=(ts, noeigen, calcfc, maxcycles=70, maxstep=5),
  freq=noraman, scrf=(iefpcm, solvent=water)
 ----------------------------------------------------------------------

 ------------------------
 2_iteration/TS-218-2.out
 ------------------------
 Symbolic Z-matrix:
 Charge =  0 Multiplicity = 1

 SCF Done:  E(RwB97XD) =  -597.470687685     A.U. after   15 cycles
 SCF Done:  E(RwB97XD) =  -597.470689659     A.U. after   10 cycles
 SCF Done:  E(RwB97XD) =  -597.470689719     A.U. after    8 cycles
 SCF Done:  E(RwB97XD) =  -597.470689717     A.U. after    6 cycles
 Optimization completed.
    -- Stationary point found.
 Normal termination of Gaussian 16 at Thu Feb 11 09:52:00 2021.

 ---------------------------------------------------------------------
 #N Geom=AllCheck Guess=TCheck SCRF=Check GenChk RwB97XD/def2TZVP Freq
 ---------------------------------------------------------------------

 Structure from the checkpoint file:  "/beegfs/scratch/user/q/tla25/Gau-5989.chk"
 ------------------------
 2_iteration/TS-218-2.out
 ------------------------
 Charge =  0 Multiplicity = 1

                         Standard orientation:
 ---------------------------------------------------------------------
 Center     Atomic      Atomic             Coordinates (Angstroms)
 Number     Number       Type             X           Y           Z
 ---------------------------------------------------------------------
      1          6           0        1.436256   -0.120120    0.700262
      2          6           0        1.807818   -1.177459   -0.172734
      3          8           0        1.261934   -1.403790   -1.271228
      4          6           0        0.283805    0.661299    0.497650
      5          6           0        1.827524    2.425446   -1.089716
      6          1           0        2.117055    2.814061   -2.066867
      7          1           0        1.780745    3.245958   -0.375456
      8          1           0        2.580898    1.710691   -0.754841
      9          7           0        0.543837    1.744107   -1.125194
     10          1           0       -0.234889    2.372305   -1.277821
     11          1           0        0.527030    1.017455   -1.831434
     12          1           0        0.247105    1.507084    1.179088
     13          6           0       -1.113397    0.192994    0.240498
     14          6           0       -1.522631   -0.630532   -0.808827
     15          6           0       -2.850930   -1.012382   -0.929445
     16          6           0       -3.798282   -0.583646   -0.011223
     17          6           0       -3.407488    0.243837    1.030935
     18          6           0       -2.082233    0.632421    1.146543
     19          1           0       -0.785770   -0.977271   -1.517055
     20          1           0       -3.146959   -1.651247   -1.752542
     21          1           0       -4.833186   -0.885982   -0.110759
     22          1           0       -4.134958    0.594545    1.752256
     23          1           0       -1.790977    1.285588    1.961157
     24          6           0        2.402451    0.308151    1.788367
     25          1           0        2.076306    1.244658    2.243139
     26          1           0        2.473062   -0.427437    2.596439
     27          1           0        3.420790    0.468264    1.420159
     28          6           0        2.997756   -2.035096    0.217203
     29          1           0        2.959040   -2.341659    1.263614
     30          1           0        3.033879   -2.914715   -0.422848
     31          1           0        3.924607   -1.470202    0.082881
 ---------------------------------------------------------------------

 SCF Done:  E(RwB97XD) =  -597.470689717     A.U. after    1 cycles

 The electronic state is 1-A.
 Alpha  occ. eigenvalues --  -19.19634 -14.47018 -10.33983 -10.33294 -10.31099
 Alpha  occ. eigenvalues --  -10.30143 -10.28981 -10.28890 -10.28834 -10.28753
 Alpha  occ. eigenvalues --  -10.28211 -10.26780 -10.26594 -10.25214  -1.09953
 Alpha  occ. eigenvalues --   -1.02630  -0.96673  -0.90195  -0.86053  -0.84869
 Alpha  occ. eigenvalues --   -0.81511  -0.78423  -0.76921  -0.72036  -0.70050
 Alpha  occ. eigenvalues --   -0.67892  -0.62430  -0.61549  -0.57893  -0.56245
 Alpha  occ. eigenvalues --   -0.55552  -0.54330  -0.54096  -0.52617  -0.51534
 Alpha  occ. eigenvalues --   -0.51008  -0.50416  -0.48614  -0.47733  -0.47004
 Alpha  occ. eigenvalues --   -0.46949  -0.46175  -0.45103  -0.44663  -0.43101
 Alpha  occ. eigenvalues --   -0.42236  -0.41505  -0.40582  -0.33621  -0.33107
 Alpha  occ. eigenvalues --   -0.31194  -0.26084
 Alpha virt. eigenvalues --    0.02743   0.05412   0.07548   0.10458   0.12235
 Alpha virt. eigenvalues --    0.13392   0.14038   0.15628   0.16059   0.16674
 Alpha virt. eigenvalues --    0.17066   0.17561   0.17714   0.18743   0.18857

 Mulliken charges:
               1
     1  C   -0.225209
     2  C    0.271993
     3  O   -0.565925
     4  C   -0.016162
     5  C   -0.278924
     6  H    0.148092
     7  H    0.147096
     8  H    0.149482
     9  N   -0.339765
    10  H    0.277632
    11  H    0.274087
    12  H    0.147323
    13  C    0.219496
    14  C   -0.270969
    15  C   -0.141917
    16  C   -0.158465
    17  C   -0.145868
    18  C   -0.236477
    19  H    0.171168
    20  H    0.139758
    21  H    0.142623
    22  H    0.141740
    23  H    0.136825
    24  C   -0.371686
    25  H    0.124624
    26  H    0.127547
    27  H    0.116323
    28  C   -0.370608
    29  H    0.129339
    30  H    0.122063
    31  H    0.134763
 Sum of Mulliken charges =   0.00000

 Dipole moment (field-independent basis, Debye):
    X=             -0.5228    Y=              6.6710    Z=              0.3180  Tot=              6.6990
 Quadrupole moment (field-independent basis, Debye-Ang):
   XX=            -78.6026   YY=            -79.9693   ZZ=            -84.1310
   XY=              5.1779   XZ=              1.0354   YZ=             -5.2042

  Exact polarizability: 255.485 -10.256 205.610   2.667  18.500 198.692
 Approx polarizability: 191.160  -4.230 165.196   0.796  18.544 171.268

 ******    1 imaginary frequencies (negative Signs) ******

                      1                      2                      3
                      A                      A                      A
 Frequencies --   -377.0476                29.0771                64.0246
 Red. masses --      5.6868                 3.8850                 2.9361
 Frc consts  --      0.4763                 0.0019                 0.0071
 IR Inten    --    808.4730                 2.1199                 2.5062

                      4                      5                      6
                      A                      A                      A
 Frequencies --     68.7543                87.8200               105.9244
 Red. masses --      3.7132                 1.0317                 3.5158
 Frc consts  --      0.0103                 0.0047                 0.0232
 IR Inten    --      6.7491                 0.0454                 9.4668

                      7                      8                      9
                      A                      A                      A
 Frequencies --    109.0498               157.3420               166.6288
 Red. masses --      2.1653                 3.0533                 2.3625
 Frc consts  --      0.0152                 0.0445                 0.0386
 IR Inten    --     11.8190                12.9515                 8.6615

                     10                     11                     12
                      A                      A                      A
 Frequencies --    183.1125               207.5619               230.3505
 Red. masses --      1.1632                 1.4168                 4.5427
 Frc consts  --      0.0230                 0.0360                 0.1420
 IR Inten    --      1.0427                12.2708                 2.3698

                     13                     14                     15
                      A                      A                      A
 Frequencies --    260.2284               276.7506               343.4763
 Red. masses --      3.1422                 3.7474                 3.0552
 Frc consts  --      0.1254                 0.1691                 0.2124
 IR Inten    --      6.4007                22.5174                 0.9393

                     16                     17                     18
                      A                      A                      A
 Frequencies --    348.4068               411.5740               425.2736
 Red. masses --      3.7390                 3.0534                 2.9347
 Frc consts  --      0.2674                 0.3047                 0.3127
 IR Inten    --      2.8593                43.6252                 0.4507

                     19                     20                     21
                      A                      A                      A
 Frequencies --    509.0476               549.4144               563.2468
 Red. masses --      2.6676                 3.1105                 4.2034
 Frc consts  --      0.4073                 0.5532                 0.7857
 IR Inten    --     21.2559                90.3711                 8.1622

                     22                     23                     24
                      A                      A                      A
 Frequencies --    613.4328               639.4602               663.7826
 Red. masses --      2.0445                 6.2381                 3.3437
 Frc consts  --      0.4533                 1.5029                 0.8680
 IR Inten    --     52.2836                 0.9564                30.8032

                     25                     26                     27
                      A                      A                      A
 Frequencies --    684.7991               727.3821               758.0156
 Red. masses --      2.5713                 1.6415                 3.2531
 Frc consts  --      0.7105                 0.5117                 1.1013
 IR Inten    --     38.0124                95.8889                 5.8733

                     28                     29                     30
                      A                      A                      A
 Frequencies --    802.1543               865.2844               882.8496
 Red. masses --      2.0823                 3.7305                 1.2500
 Frc consts  --      0.7894                 1.6457                 0.5740
 IR Inten    --     10.5533                 3.2359                 0.9803

                     31                     32                     33
                      A                      A                      A
 Frequencies --    966.8118               979.2462               992.3298
 Red. masses --      1.4237                 1.1270                 1.4832
 Frc consts  --      0.7841                 0.6367                 0.8605
 IR Inten    --      7.7428               115.1232                97.6054

                     34                     35                     36
                      A                      A                      A
 Frequencies --   1015.6617              1019.7394              1026.6841
 Red. masses --      1.3010                 1.4506                 3.8308
 Frc consts  --      0.7907                 0.8887                 2.3791
 IR Inten    --     15.5835                17.7968                 2.2031

                     37                     38                     39
                      A                      A                      A
 Frequencies --   1028.8347              1032.3699              1037.4047
 Red. masses --      1.3723                 1.6570                 1.3979
 Frc consts  --      0.8558                 1.0405                 0.8864
 IR Inten    --     56.2315                29.9860                27.7868

                     40                     41                     42
                      A                      A                      A
 Frequencies --   1066.9636              1070.0978              1091.7175
 Red. masses --      1.7088                 1.7743                 4.1126
 Frc consts  --      1.1462                 1.1971                 2.8879
 IR Inten    --      2.0069                 3.5252                40.8324

                     43                     44                     45
                      A                      A                      A
 Frequencies --   1109.8964              1128.7474              1146.2243
 Red. masses --      1.8564                 1.3478                 2.0614
 Frc consts  --      1.3474                 1.0117                 1.5957
 IR Inten    --     12.3986                32.4317                34.3703

                     46                     47                     48
                      A                      A                      A
 Frequencies --   1184.4594              1198.0901              1217.4120
 Red. masses --      1.1292                 1.4128                 1.1572
 Frc consts  --      0.9334                 1.1948                 1.0105
 IR Inten    --      1.4417                22.5150                 3.7336

                     49                     50                     51
                      A                      A                      A
 Frequencies --   1225.5475              1263.4196              1337.1200
 Red. masses --      3.4357                 1.9725                 4.6274
 Frc consts  --      3.0403                 1.8551                 4.8744
 IR Inten    --     40.5746                12.5341                 5.5817

                     52                     53                     54
                      A                      A                      A
 Frequencies --   1346.9302              1367.6946              1375.9541
 Red. masses --      1.3343                 1.4105                 1.3473
 Frc consts  --      1.4262                 1.5546                 1.5029
 IR Inten    --      5.6891                14.4677                29.4189

                     55                     56                     57
                      A                      A                      A
 Frequencies --   1421.3253              1431.7074              1449.3869
 Red. masses --      1.3000                 2.3278                 1.5201
 Frc consts  --      1.5473                 2.8113                 1.8815
 IR Inten    --      0.8807               630.4878                58.3007

                     58                     59                     60
                      A                      A                      A
 Frequencies --   1456.7303              1466.0061              1471.3742
 Red. masses --      1.1362                 1.4921                 1.0867
 Frc consts  --      1.4206                 1.8894                 1.3862
 IR Inten    --     51.2094               105.3981                38.3066

                     61                     62                     63
                      A                      A                      A
 Frequencies --   1486.4663              1490.9807              1503.5678
 Red. masses --      1.0616                 1.0422                 1.0556
 Frc consts  --      1.3821                 1.3650                 1.4060
 IR Inten    --     33.4934                16.1738                10.8248

                     64                     65                     66
                      A                      A                      A
 Frequencies --   1507.0043              1507.3533              1541.5310
 Red. masses --      1.2722                 1.7281                 2.2773
 Frc consts  --      1.7023                 2.3133                 3.1884
 IR Inten    --    280.4191                33.1118                31.3267

                     67                     68                     69
                      A                      A                      A
 Frequencies --   1625.4825              1645.1768              1649.6709
 Red. masses --      5.0892                 1.2434                 4.2299
 Frc consts  --      7.9226                 1.9828                 6.7822
 IR Inten    --    368.7835                23.5018                 8.9095

                     70                     71                     72
                      A                      A                      A
 Frequencies --   1674.1121              3018.3967              3049.6111
 Red. masses --      5.8042                 1.0393                 1.0387
 Frc consts  --      9.5844                 5.5789                 5.6914
 IR Inten    --      3.8946               118.9738                20.2952

                     73                     74                     75
                      A                      A                      A
 Frequencies --   3058.2519              3062.2012              3114.4585
 Red. masses --      1.0331                 1.1011                 1.0977
 Frc consts  --      5.6932                 6.0836                 6.2736
 IR Inten    --     50.4553                64.8905                33.7217

                     76                     77                     78
                      A                      A                      A
 Frequencies --   3117.8591              3131.2398              3148.2912
 Red. masses --      1.0976                 1.1044                 1.0876
 Frc consts  --      6.2862                 6.3798                 6.3515
 IR Inten    --     22.2344                14.6735                36.9394

                     79                     80                     81
                      A                      A                      A
 Frequencies --   3154.2013              3156.8410              3187.8646
 Red. masses --      1.1048                 1.1035                 1.0872
 Frc consts  --      6.4760                 6.4794                 6.5099
 IR Inten    --     15.7497                28.8131                10.3208

                     82                     83                     84
                      A                      A                      A
 Frequencies --   3195.9929              3206.4450              3219.4104
 Red. masses --      1.0883                 1.0931                 1.0981
 Frc consts  --      6.5493                 6.6216                 6.7059
 IR Inten    --      2.0517                37.6386                24.2077

                     85                     86                     87
                      A                      A                      A
 Frequencies --   3255.4541              3532.8019              3621.3201
 Red. masses --      1.0918                 1.0497                 1.0969
 Frc consts  --      6.8172                 7.7191                 8.4750
 IR Inten    --     23.3761                26.3606                53.4633

 - Thermochemistry -
 -------------------
 Temperature   298.150 Kelvin.  Pressure   1.00000 Atm.
 Atom     1 has atomic number  6 and mass  12.00000

 Molecular mass:   191.13101 amu.
 Principal axes and moments of inertia in atomic units:
                           1         2         3
     Eigenvalues --  1759.483824050.144054432.73641
           X            0.99993   0.00629   0.01041
           Y           -0.00602   0.99965  -0.02578
           Z           -0.01057   0.02571   0.99961
 This molecule is an asymmetric top.
 Rotational symmetry number  1.
 Warning -- assumption of classical behavior for rotation
           may cause significant error
 Rotational temperatures (Kelvin)      0.04923     0.02139     0.01954
 Rotational constants (GHZ):           1.02572     0.44560     0.40714
    1 imaginary frequencies ignored.
 Zero-point vibrational energy     702938.3 (Joules/Mol)
                                  168.00627 (Kcal/Mol)
 Warning -- explicit consideration of  21 degrees of freedom as
           vibrations may cause significant error
 Vibrational temperatures:     41.84    92.12    98.92   126.35   152.40
          (Kelvin)            156.90   226.38   239.74   263.46   298.64
                              331.42   374.41   398.18   494.19   501.28
                              592.16   611.87   732.41   790.48   810.39
                              882.59   920.04   955.04   985.27  1046.54
                             1090.62  1154.12  1244.95  1270.22  1391.03
                             1408.92  1427.74  1461.31  1467.18  1477.17
                             1480.26  1485.35  1492.59  1535.12  1539.63
                             1570.74  1596.89  1624.02  1649.16  1704.17
                             1723.78  1751.58  1763.29  1817.78  1923.82
                             1937.93  1967.81  1979.69  2044.97  2059.91
                             2085.34  2095.91  2109.26  2116.98  2138.69
                             2145.19  2163.30  2168.24  2168.75  2217.92
                             2338.71  2367.04  2373.51  2408.67  4342.80
                             4387.71  4400.14  4405.82  4481.01  4485.90
                             4505.16  4529.69  4538.19  4541.99  4586.63
                             4598.32  4613.36  4632.01  4683.87  5082.91
                             5210.27

 Zero-point correction=                           0.267735 (Hartree/Particle)
 Thermal correction to Energy=                    0.282560
 Thermal correction to Enthalpy=                  0.283504
 Thermal correction to Gibbs Free Energy=         0.225178
 Sum of electronic and zero-point Energies=           -597.202955
 Sum of electronic and thermal Energies=              -597.188130
 Sum of electronic and thermal Enthalpies=            -597.187186
 Sum of electronic and thermal Free Energies=         -597.245512

                     E (Thermal)             CV                S
                      KCal/Mol        Cal/Mol-Kelvin    Cal/Mol-Kelvin
 Total                  177.309             54.483            122.757
 Electronic               0.000              0.000              0.000
 Translational            0.889              2.981             41.649
 Rotational               0.889              2.981             31.824
 Vibrational            175.531             48.522             49.284
 Vibration     1          0.593              1.984              5.891
 Vibration     2          0.597              1.971              4.329
 Vibration     3          0.598              1.969              4.189
 Vibration     4          0.601              1.958              3.708
 Vibration     5          0.605              1.944              3.342
 Vibration     6          0.606              1.942              3.286
 Vibration     7          0.621              1.894              2.582
 Vibration     8          0.624              1.884              2.473
 Vibration     9          0.631              1.863              2.296
 Vibration    10          0.641              1.829              2.065
 Vibration    11          0.652              1.795              1.876
 Vibration    12          0.668              1.745              1.660
 Vibration    13          0.678              1.716              1.554
 Vibration    14          0.722              1.589              1.196
 Vibration    15          0.726              1.579              1.173
 Vibration    16          0.776              1.445              0.921
 Vibration    17          0.787              1.415              0.874
 Vibration    18          0.864              1.230              0.636
 Vibration    19          0.905              1.141              0.545
 Vibration    20          0.919              1.111              0.517
 Vibration    21          0.973              1.003              0.427

 Optimization completed.
    -- Stationary point found.
 Normal termination of Gaussian 16 at Thu Feb 11 10:49:23 2021.
