 Gaussian 16, Revision A.03,
 Gaussian 16:  ES64L-G16RevA.03 25-Dec-2016

 ----------------------------------------------------------------------
 # wB97XD def2tzvp, opt=(ts, noeigen, calcfc, maxcycles=70, maxstep=8),
  freq=noraman, scrf=(iefpcm, solvent=water)
 ----------------------------------------------------------------------

 ------------------------
 1_iteration/TS-250-1.out
 ------------------------
 Symbolic Z-matrix:
 Charge =  0 Multiplicity = 1

 SCF Done:  E(RwB97XD) =  -327.108124171     A.U. after   14 cycles
 SCF Done:  E(RwB97XD) =  -327.108124175     A.U. after    6 cycles
 Optimization completed.
    -- Stationary point found.
 Normal termination of Gaussian 16 at Wed Feb 10 05:12:57 2021.

 ---------------------------------------------------------------------
 #N Geom=AllCheck Guess=TCheck SCRF=Check GenChk RwB97XD/def2TZVP Freq
 ---------------------------------------------------------------------

 Structure from the checkpoint file:  "/beegfs/scratch/user/q/tla25/Gau-117643.chk"
 ------------------------
 1_iteration/TS-250-1.out
 ------------------------
 Charge =  0 Multiplicity = 1

                         Standard orientation:
 ---------------------------------------------------------------------
 Center     Atomic      Atomic             Coordinates (Angstroms)
 Number     Number       Type             X           Y           Z
 ---------------------------------------------------------------------
      1          6           0       -0.658434   -0.957004    0.291603
      2          6           0       -1.716289   -0.067158   -0.042435
      3          8           0       -2.797151   -0.457050   -0.511917
      4          6           0        0.570023   -0.552818    0.795873
      5          6           0        3.142834    0.360629   -0.077311
      6          1           0        3.860333    0.556053   -0.875219
      7          1           0        2.955711    1.286188    0.465377
      8          1           0        3.569120   -0.367235    0.611880
      9          7           0        1.875127   -0.154754   -0.585710
     10          1           0        1.415963    0.503287   -1.203435
     11          1           0        1.992426   -1.023206   -1.093189
     12          1           0        1.210061   -1.297628    1.254658
     13          1           0        0.665718    0.429613    1.244539
     14          1           0       -0.820023   -2.006230    0.069445
     15          6           0       -1.529037    1.425252    0.193379
     16          1           0       -0.700035    1.820908   -0.397116
     17          1           0       -2.440742    1.947054   -0.090321
     18          1           0       -1.311794    1.637463    1.242033
 ---------------------------------------------------------------------

 SCF Done:  E(RwB97XD) =  -327.108124175     A.U. after    1 cycles

 The electronic state is 1-A.
 Alpha  occ. eigenvalues --  -19.19544 -14.47527 -10.34297 -10.32439 -10.31637
 Alpha  occ. eigenvalues --  -10.26861 -10.24169  -1.09963  -1.02999  -0.87700
 Alpha  occ. eigenvalues --   -0.81177  -0.78463  -0.71937  -0.62939  -0.60190
 Alpha  occ. eigenvalues --   -0.56420  -0.54827  -0.53287  -0.52207  -0.50901
 Alpha  occ. eigenvalues --   -0.48121  -0.47692  -0.45956  -0.43759  -0.43575
 Alpha  occ. eigenvalues --   -0.41735  -0.31373  -0.27248
 Alpha virt. eigenvalues --    0.05475   0.09921   0.13626   0.14382   0.15385
 Alpha virt. eigenvalues --    0.16115   0.17477   0.18353   0.19019   0.19608
 Alpha virt. eigenvalues --    0.20498   0.21902   0.23596   0.23975   0.25542

 Mulliken charges:
               1
     1  C   -0.359546
     2  C    0.257473
     3  O   -0.542293
     4  C   -0.188749
     5  C   -0.266889
     6  H    0.149331
     7  H    0.148857
     8  H    0.147591
     9  N   -0.333953
    10  H    0.270704
    11  H    0.277069
    12  H    0.161527
    13  H    0.159857
    14  H    0.107246
    15  C   -0.374916
    16  H    0.127832
    17  H    0.119772
    18  H    0.139088
 Sum of Mulliken charges =  -0.00000

 Dipole moment (field-independent basis, Debye):
    X=             11.7102    Y=              2.2518    Z=             -0.1017  Tot=             11.9252
 Quadrupole moment (field-independent basis, Debye-Ang):
   XX=            -53.0791   YY=            -42.6997   ZZ=            -43.3165
   XY=             -6.0666   XZ=             -6.1282   YZ=              0.0526

  Exact polarizability: 160.046   3.504  91.989   5.878  -0.642  82.925
 Approx polarizability: 114.285   3.674  74.852   5.437  -0.098  71.317

 ******    1 imaginary frequencies (negative Signs) ******

                      1                      2                      3
                      A                      A                      A
 Frequencies --   -364.5307                61.1368                89.2447
 Red. masses --      6.2384                 2.3704                 4.8618
 Frc consts  --      0.4884                 0.0052                 0.0228
 IR Inten    --   1051.6897                 3.4821                 9.7454

                      4                      5                      6
                      A                      A                      A
 Frequencies --     92.1498               124.7700               174.4164
 Red. masses --      1.0845                 1.6410                 1.3874
 Frc consts  --      0.0054                 0.0151                 0.0249
 IR Inten    --      1.4922                 2.3180                 3.2290

                      7                      8                      9
                      A                      A                      A
 Frequencies --    197.5334               311.7138               411.4517
 Red. masses --      2.8430                 2.3999                 4.3207
 Frc consts  --      0.0654                 0.1374                 0.4310
 IR Inten    --      4.1309                 4.7856               188.5332

                     10                     11                     12
                      A                      A                      A
 Frequencies --    505.3531               568.8164               577.2630
 Red. masses --      2.5797                 1.5479                 3.5984
 Frc consts  --      0.3882                 0.2951                 0.7065
 IR Inten    --      7.2836                14.7415                 7.0422

                     13                     14                     15
                      A                      A                      A
 Frequencies --    638.8158               770.0281               803.5465
 Red. masses --      1.3448                 1.4008                 3.4460
 Frc consts  --      0.3233                 0.4894                 1.3110
 IR Inten    --     18.8419               124.4804                 3.3678

                     16                     17                     18
                      A                      A                      A
 Frequencies --    926.5189               991.4696              1013.7610
 Red. masses --      1.4069                 1.1416                 1.1299
 Frc consts  --      0.7116                 0.6612                 0.6842
 IR Inten    --     18.8514                75.5682                57.9013

                     19                     20                     21
                      A                      A                      A
 Frequencies --   1036.4385              1044.8194              1074.8152
 Red. masses --      1.6092                 1.5858                 4.3839
 Frc consts  --      1.0185                 1.0200                 2.9839
 IR Inten    --     53.9562                95.3026               134.7067

                     22                     23                     24
                      A                      A                      A
 Frequencies --   1146.3901              1188.9304              1214.0362
 Red. masses --      1.1104                 1.1496                 1.4535
 Frc consts  --      0.8598                 0.9574                 1.2622
 IR Inten    --     45.1400               289.0018                28.4103

                     25                     26                     27
                      A                      A                      A
 Frequencies --   1267.6561              1310.5391              1341.5056
 Red. masses --      1.4346                 2.1715                 1.3343
 Frc consts  --      1.3582                 2.1974                 1.4148
 IR Inten    --    122.8100                80.5831                 0.2506

                     28                     29                     30
                      A                      A                      A
 Frequencies --   1389.5098              1438.4029              1463.4877
 Red. masses --      1.3695                 1.8176                 1.1716
 Frc consts  --      1.5579                 2.2157                 1.4785
 IR Inten    --     61.6452               234.5999                 4.2658

                     31                     32                     33
                      A                      A                      A
 Frequencies --   1467.3948              1480.2715              1491.1632
 Red. masses --      1.1284                 1.0526                 1.0403
 Frc consts  --      1.4315                 1.3589                 1.3629
 IR Inten    --     16.5134                13.0894                13.5047

                     34                     35                     36
                      A                      A                      A
 Frequencies --   1506.7173              1539.2703              1632.0295
 Red. masses --      1.0303                 1.9289                 7.4407
 Frc consts  --      1.3781                 2.6927                11.6768
 IR Inten    --     16.4529               277.2515              1137.7511

                     37                     38                     39
                      A                      A                      A
 Frequencies --   1652.3578              3057.2165              3063.9945
 Red. masses --      1.0927                 1.0373                 1.0337
 Frc consts  --      1.7577                 5.7122                 5.7174
 IR Inten    --     30.3261                10.7488                60.2389

                     40                     41                     42
                      A                      A                      A
 Frequencies --   3124.0232              3140.1759              3143.9207
 Red. masses --      1.1003                 1.0999                 1.0634
 Frc consts  --      6.3266                 6.3903                 6.1928
 IR Inten    --     21.4651                27.9509                41.1296

                     43                     44                     45
                      A                      A                      A
 Frequencies --   3157.8785              3159.8540              3174.9212
 Red. masses --      1.1056                 1.1022                 1.0897
 Frc consts  --      6.4959                 6.4838                 6.4720
 IR Inten    --     20.5630                33.0051                19.3676

                     46                     47                     48
                      A                      A                      A
 Frequencies --   3224.9818              3534.9743              3618.7329
 Red. masses --      1.1154                 1.0506                 1.0967
 Frc consts  --      6.8350                 7.7348                 8.4615
 IR Inten    --     16.9407                16.5375                37.8592

 - Thermochemistry -
 -------------------
 Temperature   298.150 Kelvin.  Pressure   1.00000 Atm.
 Atom     1 has atomic number  6 and mass  12.00000

 Molecular mass:   101.08406 amu.
 Principal axes and moments of inertia in atomic units:
                           1         2         3
     Eigenvalues --   322.909861589.035661718.88214
           X            0.99991  -0.01152  -0.00622
           Y            0.01158   0.99988   0.01023
           Z            0.00610  -0.01030   0.99993
 This molecule is an asymmetric top.
 Rotational symmetry number  1.
 Rotational temperatures (Kelvin)      0.26823     0.05451     0.05039
 Rotational constants (GHZ):           5.58899     1.13575     1.04995
    1 imaginary frequencies ignored.
 Zero-point vibrational energy     414771.6 (Joules/Mol)
                                   99.13279 (Kcal/Mol)
 Warning -- explicit consideration of  11 degrees of freedom as
           vibrations may cause significant error
 Vibrational temperatures:     87.96   128.40   132.58   179.52   250.95
          (Kelvin)            284.21   448.49   591.99   727.09   818.40
                              830.55   919.11  1107.90  1156.12  1333.05
                             1426.50  1458.58  1491.20  1503.26  1546.42
                             1649.40  1710.61  1746.73  1823.87  1885.57
                             1930.13  1999.19  2069.54  2105.63  2111.25
                             2129.78  2145.45  2167.83  2214.67  2348.13
                             2377.37  4398.65  4408.40  4494.77  4518.01
                             4523.40  4543.48  4546.33  4568.00  4640.03
                             5086.04  5206.55

 Zero-point correction=                           0.157978 (Hartree/Particle)
 Thermal correction to Energy=                    0.166912
 Thermal correction to Enthalpy=                  0.167856
 Thermal correction to Gibbs Free Energy=         0.123710
 Sum of electronic and zero-point Energies=           -326.950146
 Sum of electronic and thermal Energies=              -326.941212
 Sum of electronic and thermal Enthalpies=            -326.940268
 Sum of electronic and thermal Free Energies=         -326.984414

                     E (Thermal)             CV                S
                      KCal/Mol        Cal/Mol-Kelvin    Cal/Mol-Kelvin
 Total                  104.739             30.334             92.913
 Electronic               0.000              0.000              0.000
 Translational            0.889              2.981             39.750
 Rotational               0.889              2.981             28.269
 Vibrational            102.961             24.373             24.894
 Vibration     1          0.597              1.973              4.420
 Vibration     2          0.602              1.957              3.677
 Vibration     3          0.602              1.955              3.614
 Vibration     4          0.610              1.928              3.025
 Vibration     5          0.627              1.874              2.387
 Vibration     6          0.637              1.843              2.156
 Vibration     7          0.700              1.651              1.353
 Vibration     8          0.775              1.445              0.921
 Vibration     9          0.861              1.238              0.645
 Vibration    10          0.925              1.099              0.507
 Vibration    11          0.934              1.080              0.490

 Optimization completed.
    -- Stationary point found.
 Normal termination of Gaussian 16 at Wed Feb 10 05:18:19 2021.
