 Gaussian 16, Revision A.03,
 Gaussian 16:  ES64L-G16RevA.03 25-Dec-2016

 ----------------------------------------------------------------------
 # wB97XD def2tzvp, opt=(ts, noeigen, calcfc, maxcycles=70, maxstep=8),
  freq=noraman, scrf=(iefpcm, solvent=water)
 ----------------------------------------------------------------------

 -----------------------
 1_iteration/TS-22-1.out
 -----------------------
 Symbolic Z-matrix:
 Charge =  0 Multiplicity = 1

 SCF Done:  E(RwB97XD) =  -923.192100611     A.U. after   14 cycles
 SCF Done:  E(RwB97XD) =  -923.192562207     A.U. after   12 cycles
 SCF Done:  E(RwB97XD) =  -923.192624665     A.U. after   11 cycles
 SCF Done:  E(RwB97XD) =  -923.192631336     A.U. after   10 cycles
 SCF Done:  E(RwB97XD) =  -923.192631831     A.U. after    9 cycles
 SCF Done:  E(RwB97XD) =  -923.192632045     A.U. after    7 cycles
 SCF Done:  E(RwB97XD) =  -923.192632105     A.U. after    6 cycles
 SCF Done:  E(RwB97XD) =  -923.192632090     A.U. after    6 cycles
 Optimization completed.
    -- Stationary point found.
 Normal termination of Gaussian 16 at Sat Apr 17 09:41:27 2021.

 ---------------------------------------------------------------------
 #N Geom=AllCheck Guess=TCheck SCRF=Check GenChk RwB97XD/def2TZVP Freq
 ---------------------------------------------------------------------

 Structure from the checkpoint file:  "/beegfs/scratch/user/q/tla25/Gau-361187.chk"
 -----------------------
 1_iteration/TS-22-1.out
 -----------------------
 Charge =  0 Multiplicity = 1

                         Standard orientation:
 ---------------------------------------------------------------------
 Center     Atomic      Atomic             Coordinates (Angstroms)
 Number     Number       Type             X           Y           Z
 ---------------------------------------------------------------------
      1          6           0        0.859073   -0.918323   -0.143936
      2          6           0        2.154661   -0.436062    0.222064
      3          8           0        2.335338    0.395895    1.151949
      4          6           0       -0.262050   -0.158202    0.311074
      5          6           0        0.030648   -1.517181    2.723868
      6          1           0        0.710579   -2.071261    2.077971
      7          1           0        0.471659   -1.441710    3.717475
      8          1           0       -0.916218   -2.047598    2.788503
      9          7           0       -0.155110   -0.190467    2.142713
     10          1           0       -0.839794    0.357176    2.649489
     11          1           0        0.752216    0.295389    2.140034
     12          6           0       -1.626736   -0.693627   -0.076914
     13          6           0       -1.888708   -0.818670   -1.442514
     14          6           0       -3.122777   -1.245076   -1.898495
     15          6           0       -4.132418   -1.554319   -0.995552
     16          6           0       -3.889663   -1.421457    0.360150
     17          6           0       -2.648498   -0.990638    0.814938
     18          1           0       -1.107548   -0.574337   -2.151528
     19          1           0       -3.298336   -1.335279   -2.963183
     20          1           0       -5.098916   -1.890445   -1.348635
     21          1           0       -4.667184   -1.650843    1.077879
     22          1           0       -2.505927   -0.889467    1.880742
     23          6           0       -0.270384    1.355122    0.089111
     24          6           0       -1.171690    2.179783    0.759898
     25          6           0       -1.232006    3.540161    0.500034
     26          6           0       -0.402475    4.104099   -0.457596
     27          6           0        0.476198    3.289401   -1.155838
     28          6           0        0.535778    1.930491   -0.887708
     29          1           0       -1.864439    1.764693    1.481523
     30          1           0       -1.938457    4.157059    1.041105
     31          1           0       -0.450126    5.165344   -0.666355
     32          1           0        1.119248    3.711559   -1.918167
     33          1           0        1.213774    1.299555   -1.445910
     34          6           0        0.683127   -2.345592   -0.620641
     35          1           0        0.472734   -2.447971   -1.692040
     36          1           0        1.582501   -2.930007   -0.417269
     37          1           0       -0.139838   -2.840979   -0.099217
     38          7           0        3.267411   -0.941498   -0.418898
     39          6           0        3.248920   -1.305326   -1.819134
     40          6           0        4.577656   -0.652548    0.114958
     41          1           0        2.259381   -1.140716   -2.236787
     42          1           0        3.958582   -0.681282   -2.372846
     43          1           0        3.525496   -2.352448   -1.974519
     44          1           0        5.267651   -1.443274   -0.186911
     45          1           0        4.973815    0.303313   -0.250558
     46          1           0        4.538407   -0.612097    1.200297
 ---------------------------------------------------------------------

 SCF Done:  E(RwB97XD) =  -923.192632090     A.U. after    1 cycles

 The electronic state is 1-A.
 Alpha  occ. eigenvalues --  -19.18878 -14.48041 -14.43811 -10.35542 -10.35149
 Alpha  occ. eigenvalues --  -10.31262 -10.30590 -10.30237 -10.30019 -10.29656
 Alpha  occ. eigenvalues --  -10.29303 -10.29136 -10.29090 -10.29089 -10.28968
 Alpha  occ. eigenvalues --  -10.28948 -10.28920 -10.28855 -10.28796 -10.28590
 Alpha  occ. eigenvalues --  -10.26304 -10.23899  -1.11086  -1.04006  -1.01280
 Alpha  occ. eigenvalues --   -0.97647  -0.96329  -0.91010  -0.85644  -0.85176
 Alpha  occ. eigenvalues --   -0.85037  -0.84628  -0.80550  -0.79213  -0.77582
 Alpha  occ. eigenvalues --   -0.76920  -0.71904  -0.70775  -0.69748  -0.69563
 Alpha  occ. eigenvalues --   -0.66119  -0.64378  -0.61993  -0.60860  -0.59329
 Alpha  occ. eigenvalues --   -0.57373  -0.56865  -0.55368  -0.55222  -0.55020
 Alpha  occ. eigenvalues --   -0.54317  -0.53987  -0.53082  -0.52356  -0.51086
 Alpha  occ. eigenvalues --   -0.50828  -0.50364  -0.50144  -0.48510  -0.47941
 Alpha  occ. eigenvalues --   -0.47737  -0.46958  -0.46809  -0.46242  -0.45719
 Alpha  occ. eigenvalues --   -0.45262  -0.44437  -0.43896  -0.43755  -0.43175
 Alpha  occ. eigenvalues --   -0.42104  -0.41553  -0.41275  -0.34848  -0.34072
 Alpha  occ. eigenvalues --   -0.33656  -0.32856  -0.31664  -0.30591  -0.24504
 Alpha virt. eigenvalues --    0.03287   0.04551   0.05565   0.06469   0.08631
 Alpha virt. eigenvalues --    0.10422   0.11710   0.13076   0.13468   0.14223
 Alpha virt. eigenvalues --    0.15120   0.15431   0.15907   0.16046   0.16627

 Mulliken charges:
               1
     1  C   -0.530043
     2  C    0.297777
     3  O   -0.616661
     4  C    0.635870
     5  C   -0.302585
     6  H    0.163075
     7  H    0.157213
     8  H    0.145944
     9  N   -0.291482
    10  H    0.267769
    11  H    0.280254
    12  C    0.093689
    13  C   -0.297893
    14  C   -0.133611
    15  C   -0.144795
    16  C   -0.167589
    17  C   -0.249331
    18  H    0.168686
    19  H    0.140284
    20  H    0.142817
    21  H    0.141072
    22  H    0.153319
    23  C    0.126369
    24  C   -0.277641
    25  C   -0.177208
    26  C   -0.138932
    27  C   -0.166504
    28  C   -0.225236
    29  H    0.150588
    30  H    0.140241
    31  H    0.141901
    32  H    0.137198
    33  H    0.165178
    34  C   -0.416390
    35  H    0.117194
    36  H    0.135589
    37  H    0.139387
    38  N   -0.118899
    39  C   -0.288114
    40  C   -0.296119
    41  H    0.149070
    42  H    0.131121
    43  H    0.132709
    44  H    0.131957
    45  H    0.120007
    46  H    0.132755
 Sum of Mulliken charges =  -0.00000

 Dipole moment (field-independent basis, Debye):
    X=             -3.3551    Y=             -1.5638    Z=              1.6254  Tot=              4.0427
 Quadrupole moment (field-independent basis, Debye-Ang):
   XX=           -126.9770   YY=           -130.1840   ZZ=           -115.5676
   XY=             -3.2031   XZ=            -13.2600   YZ=             -3.2349

  Exact polarizability: 370.667  10.412 316.424 -35.173   5.002 322.017
 Approx polarizability: 283.733   6.899 252.853 -27.600   4.967 276.284

 ******    1 imaginary frequencies (negative Signs) ******

                      1                      2                      3
                      A                      A                      A
 Frequencies --   -394.6206                39.5940                49.6884
 Red. masses --      5.2398                 3.6831                 3.5784
 Frc consts  --      0.4808                 0.0034                 0.0052
 IR Inten    --    645.7378                 0.4668                 0.0979

                      4                      5                      6
                      A                      A                      A
 Frequencies --     54.4924                61.1190                71.2128
 Red. masses --      3.8819                 4.5599                 2.9907
 Frc consts  --      0.0068                 0.0100                 0.0089
 IR Inten    --      2.6292                 1.6086                 3.1529

                      7                      8                      9
                      A                      A                      A
 Frequencies --     80.3109               112.1139               123.1803
 Red. masses --      3.3383                 1.7004                 3.1706
 Frc consts  --      0.0127                 0.0126                 0.0283
 IR Inten    --      2.3565                 7.0601                 2.0590

                     10                     11                     12
                      A                      A                      A
 Frequencies --    138.9064               156.4508               169.0365
 Red. masses --      1.6421                 1.3272                 2.8004
 Frc consts  --      0.0187                 0.0191                 0.0471
 IR Inten    --      5.5771                 2.8469                10.8326

                     13                     14                     15
                      A                      A                      A
 Frequencies --    171.9564               199.4107               220.3657
 Red. masses --      2.5369                 1.6765                 2.3561
 Frc consts  --      0.0442                 0.0393                 0.0674
 IR Inten    --      3.1996                 0.6132                24.4810

                     16                     17                     18
                      A                      A                      A
 Frequencies --    223.9121               249.1431               256.6167
 Red. masses --      3.4390                 1.9931                 1.9532
 Frc consts  --      0.1016                 0.0729                 0.0758
 IR Inten    --      7.7538                 4.3309                 9.0469

                     19                     20                     21
                      A                      A                      A
 Frequencies --    267.2819               274.0457               289.6125
 Red. masses --      4.1498                 2.5880                 2.4859
 Frc consts  --      0.1747                 0.1145                 0.1228
 IR Inten    --      3.3125                 7.2299                 7.9480

                     22                     23                     24
                      A                      A                      A
 Frequencies --    310.9094               329.0082               346.6374
 Red. masses --      3.7133                 3.3508                 2.5321
 Frc consts  --      0.2115                 0.2137                 0.1793
 IR Inten    --     10.8220                14.3687                 5.2591

                     25                     26                     27
                      A                      A                      A
 Frequencies --    383.3092               397.0039               425.0135
 Red. masses --      4.0901                 4.1458                 2.9228
 Frc consts  --      0.3541                 0.3850                 0.3111
 IR Inten    --     40.1307                37.9708                 1.0663

                     28                     29                     30
                      A                      A                      A
 Frequencies --    426.3210               439.6968               495.2662
 Red. masses --      2.9206                 2.9937                 3.6443
 Frc consts  --      0.3127                 0.3410                 0.5267
 IR Inten    --      1.4065                 5.5541                 6.0361

                     31                     32                     33
                      A                      A                      A
 Frequencies --    536.2879               561.7436               628.2606
 Red. masses --      3.7609                 4.1499                 3.2032
 Frc consts  --      0.6373                 0.7715                 0.7449
 IR Inten    --      6.3258                24.9624                46.7397

                     34                     35                     36
                      A                      A                      A
 Frequencies --    634.0104               638.1473               656.0729
 Red. masses --      6.1989                 6.3580                 5.8262
 Frc consts  --      1.4681                 1.5255                 1.4775
 IR Inten    --     24.5838                 0.7031                32.3357

                     37                     38                     39
                      A                      A                      A
 Frequencies --    659.2674               719.8481               726.8721
 Red. masses --      5.2303                 3.7927                 1.6674
 Frc consts  --      1.3394                 1.1579                 0.5191
 IR Inten    --    140.1283                91.9943                76.4852

                     40                     41                     42
                      A                      A                      A
 Frequencies --    730.8547               754.3494               777.6846
 Red. masses --      1.5274                 2.4624                 2.2251
 Frc consts  --      0.4807                 0.8256                 0.7929
 IR Inten    --    107.3959                35.2467                31.4810

                     43                     44                     45
                      A                      A                      A
 Frequencies --    789.7245               807.3995               826.3064
 Red. masses --      2.4626                 4.3491                 2.4823
 Frc consts  --      0.9049                 1.6704                 0.9986
 IR Inten    --     80.2965                50.0264                 4.3058

                     46                     47                     48
                      A                      A                      A
 Frequencies --    876.5729               878.3861               922.6015
 Red. masses --      1.2475                 1.2472                 2.8622
 Frc consts  --      0.5648                 0.5670                 1.4354
 IR Inten    --      0.9267                 0.8860                 6.9870

                     49                     50                     51
                      A                      A                      A
 Frequencies --    959.7985               962.6441               993.4506
 Red. masses --      1.4741                 1.7120                 2.3484
 Frc consts  --      0.8001                 0.9347                 1.3656
 IR Inten    --     28.4602                 1.9056                47.2473

                     52                     53                     54
                      A                      A                      A
 Frequencies --   1009.9129              1014.4454              1020.5631
 Red. masses --      1.3498                 1.3734                 1.5617
 Frc consts  --      0.8111                 0.8327                 0.9584
 IR Inten    --     13.7954                 2.0914                35.9252

                     55                     56                     57
                      A                      A                      A
 Frequencies --   1025.7626              1027.3864              1028.2214
 Red. masses --      5.0542                 3.3715                 1.3489
 Frc consts  --      3.1333                 2.0968                 0.8403
 IR Inten    --     10.1361                13.2065                12.5450

                     58                     59                     60
                      A                      A                      A
 Frequencies --   1030.5254              1038.1886              1068.3348
 Red. masses --      1.3281                 1.8613                 2.0451
 Frc consts  --      0.8310                 1.1820                 1.3753
 IR Inten    --      5.4295               140.2166                10.4291

                     61                     62                     63
                      A                      A                      A
 Frequencies --   1068.8713              1071.4435              1085.0830
 Red. masses --      1.4583                 1.9077                 3.6447
 Frc consts  --      0.9816                 1.2903                 2.5283
 IR Inten    --      9.3696                24.9476                35.1809

                     64                     65                     66
                      A                      A                      A
 Frequencies --   1088.2103              1115.6961              1123.3290
 Red. masses --      1.3766                 1.7141                 1.5796
 Frc consts  --      0.9605                 1.2571                 1.1744
 IR Inten    --     16.5354               108.3548                 8.0374

                     67                     68                     69
                      A                      A                      A
 Frequencies --   1132.9378              1134.3069              1145.2739
 Red. masses --      1.5284                 1.2334                 1.6679
 Frc consts  --      1.1558                 0.9350                 1.2890
 IR Inten    --     95.6215                 7.2639                34.8041

                     70                     71                     72
                      A                      A                      A
 Frequencies --   1167.6263              1182.8299              1185.2135
 Red. masses --      1.3975                 1.1276                 1.1313
 Frc consts  --      1.1226                 0.9295                 0.9363
 IR Inten    --     32.3606                 0.2434                 0.8223

                     73                     74                     75
                      A                      A                      A
 Frequencies --   1201.0120              1216.9674              1223.4669
 Red. masses --      3.2700                 1.1845                 1.1542
 Frc consts  --      2.7790                 1.0336                 1.0179
 IR Inten    --     24.3240                 2.1227                 2.4224

                     76                     77                     78
                      A                      A                      A
 Frequencies --   1248.5964              1279.6746              1297.9573
 Red. masses --      2.8783                 1.5663                 4.5684
 Frc consts  --      2.6438                 1.5112                 4.5346
 IR Inten    --    108.1939                59.5487                38.4229

                     79                     80                     81
                      A                      A                      A
 Frequencies --   1314.5859              1323.6363              1324.8208
 Red. masses --      4.7325                 4.7064                 4.5821
 Frc consts  --      4.8186                 4.8582                 4.7384
 IR Inten    --      2.0886                 1.1133                20.3478

                     82                     83                     84
                      A                      A                      A
 Frequencies --   1358.0091              1368.9015              1380.6367
 Red. masses --      1.6802                 1.4808                 1.9497
 Frc consts  --      1.8256                 1.6349                 2.1896
 IR Inten    --     89.2337                34.4825               233.9852

                     85                     86                     87
                      A                      A                      A
 Frequencies --   1398.7209              1408.9031              1431.4700
 Red. masses --      1.5564                 1.7226                 1.4014
 Frc consts  --      1.7941                 2.0146                 1.6920
 IR Inten    --    406.7522               264.2140                77.8579

                     88                     89                     90
                      A                      A                      A
 Frequencies --   1444.0092              1452.3873              1472.8047
 Red. masses --      1.1866                 1.2214                 1.1624
 Frc consts  --      1.4578                 1.5180                 1.4856
 IR Inten    --     25.5103                 5.2090                88.8288

                     91                     92                     93
                      A                      A                      A
 Frequencies --   1483.3132              1487.7411              1488.2191
 Red. masses --      1.1167                 2.0621                 1.0733
 Frc consts  --      1.4476                 2.6891                 1.4006
 IR Inten    --      2.4331                 3.7956                21.7216

                     94                     95                     96
                      A                      A                      A
 Frequencies --   1491.6073              1494.0960              1494.9053
 Red. masses --      2.1468                 1.0462                 1.0848
 Frc consts  --      2.8142                 1.3760                 1.4283
 IR Inten    --     31.7970                29.0601                70.5507

                     97                     98                     99
                      A                      A                      A
 Frequencies --   1501.5881              1504.7323              1513.2903
 Red. masses --      1.0672                 1.0527                 1.0627
 Frc consts  --      1.4177                 1.4044                 1.4339
 IR Inten    --      9.3551                31.7847                34.9101

                    100                    101                    102
                      A                      A                      A
 Frequencies --   1531.0305              1541.5692              1546.1558
 Red. masses --      1.5321                 2.2042                 2.2954
 Frc consts  --      2.1160                 3.0862                 3.2331
 IR Inten    --    328.1812                28.5779                35.7752

                    103                    104                    105
                      A                      A                      A
 Frequencies --   1558.1525              1639.6615              1651.2323
 Red. masses --      3.4279                 1.2206                 5.3434
 Frc consts  --      4.9035                 1.9334                 8.5839
 IR Inten    --    560.6761                25.0718                 1.8196

                    106                    107                    108
                      A                      A                      A
 Frequencies --   1654.3300              1672.2334              1677.7503
 Red. masses --      5.1140                 5.8959                 5.8384
 Frc consts  --      8.2463                 9.7139                 9.6827
 IR Inten    --      1.5045                 9.9413                 3.7336

                    109                    110                    111
                      A                      A                      A
 Frequencies --   3003.5197              3005.2588              3021.0172
 Red. masses --      1.0508                 1.0513                 1.0408
 Frc consts  --      5.5852                 5.5944                 5.5966
 IR Inten    --    198.3500                86.4511               163.4167

                    112                    113                    114
                      A                      A                      A
 Frequencies --   3065.7673              3069.9813              3074.9293
 Red. masses --      1.0863                 1.1011                 1.0336
 Frc consts  --      6.0158                 6.1144                 5.7578
 IR Inten    --     34.8157                94.4082                57.7044

                    115                    116                    117
                      A                      A                      A
 Frequencies --   3086.9764              3108.9356              3151.0250
 Red. masses --      1.0888                 1.0996                 1.1036
 Frc consts  --      6.1130                 6.2617                 6.4561
 IR Inten    --     46.8362                52.3085                13.8564

                    118                    119                    120
                      A                      A                      A
 Frequencies --   3164.5089              3169.3508              3173.7781
 Red. masses --      1.0986                 1.0960                 1.1051
 Frc consts  --      6.4819                 6.4866                 6.5585
 IR Inten    --     17.4820                14.2520                24.2542

                    121                    122                    123
                      A                      A                      A
 Frequencies --   3192.1768              3194.7257              3198.1265
 Red. masses --      1.0856                 1.0859                 1.0884
 Frc consts  --      6.5174                 6.5298                 6.5588
 IR Inten    --      4.7563                 1.5336                 3.7845

                    124                    125                    126
                      A                      A                      A
 Frequencies --   3202.4709              3207.8319              3211.2805
 Red. masses --      1.0889                 1.0926                 1.0935
 Frc consts  --      6.5795                 6.6243                 6.6440
 IR Inten    --      4.4545                32.2360                24.9803

                    127                    128                    129
                      A                      A                      A
 Frequencies --   3218.6801              3220.9908              3225.4613
 Red. masses --      1.0957                 1.0976                 1.0954
 Frc consts  --      6.6877                 6.7092                 6.7143
 IR Inten    --     25.8077                27.2734                12.3703

                    130                    131                    132
                      A                      A                      A
 Frequencies --   3239.9619              3286.3095              3576.9672
 Red. masses --      1.0921                 1.0709                 1.0799
 Frc consts  --      6.7542                 6.8141                 8.1407
 IR Inten    --     17.4812               274.2272                44.4055

 - Thermochemistry -
 -------------------
 Temperature   298.150 Kelvin.  Pressure   1.00000 Atm.
 Atom     1 has atomic number  6 and mass  12.00000

 Molecular mass:   296.18886 amu.
 Principal axes and moments of inertia in atomic units:
                           1         2         3
     Eigenvalues --  5013.658397212.643889100.46900
           X            0.99969  -0.01899  -0.01615
           Y            0.01897   0.99982  -0.00169
           Z            0.01618   0.00139   0.99987
 This molecule is an asymmetric top.
 Rotational symmetry number  1.
 Warning -- assumption of classical behavior for rotation
           may cause significant error
 Rotational temperatures (Kelvin)      0.01728     0.01201     0.00952
 Rotational constants (GHZ):           0.35996     0.25022     0.19831
    1 imaginary frequencies ignored.
 Zero-point vibrational energy    1039042.0 (Joules/Mol)
                                  248.33700 (Kcal/Mol)
 Warning -- explicit consideration of  31 degrees of freedom as
           vibrations may cause significant error
 Vibrational temperatures:     56.97    71.49    78.40    87.94   102.46
          (Kelvin)            115.55   161.31   177.23   199.86   225.10
                              243.21   247.41   286.91   317.06   322.16
                              358.46   369.21   384.56   394.29   416.69
                              447.33   473.37   498.73   551.50   571.20
                              611.50   613.38   632.63   712.58   771.60
                              808.22   903.93   912.20   918.15   943.94
                              948.54  1035.70  1045.81  1051.54  1085.34
                             1118.91  1136.24  1161.67  1188.87  1261.19
                             1263.80  1327.42  1380.94  1385.03  1429.35
                             1453.04  1459.56  1468.36  1475.84  1478.18
                             1479.38  1482.70  1493.72  1537.10  1537.87
                             1541.57  1561.19  1565.69  1605.24  1616.22
                             1630.04  1632.01  1647.79  1679.95  1701.83
                             1705.26  1727.99  1750.94  1760.30  1796.45
                             1841.17  1867.47  1891.40  1904.42  1906.12
                             1953.87  1969.54  1986.43  2012.45  2027.10
                             2059.57  2077.61  2089.66  2119.04  2134.16
                             2140.53  2141.22  2146.09  2149.67  2150.84
                             2160.45  2164.97  2177.29  2202.81  2217.97
                             2224.57  2241.83  2359.11  2375.75  2380.21
                             2405.97  2413.91  4321.39  4323.90  4346.57
                             4410.96  4417.02  4424.14  4441.47  4473.06
                             4533.62  4553.02  4559.99  4566.36  4592.83
                             4596.50  4601.39  4607.64  4615.35  4620.32
                             4630.96  4634.29  4640.72  4661.58  4728.27
                             5146.46

 Zero-point correction=                           0.395750 (Hartree/Particle)
 Thermal correction to Energy=                    0.417087
 Thermal correction to Enthalpy=                  0.418031
 Thermal correction to Gibbs Free Energy=         0.345955
 Sum of electronic and zero-point Energies=           -922.796882
 Sum of electronic and thermal Energies=              -922.775545
 Sum of electronic and thermal Enthalpies=            -922.774601
 Sum of electronic and thermal Free Energies=         -922.846678

                     E (Thermal)             CV                S
                      KCal/Mol        Cal/Mol-Kelvin    Cal/Mol-Kelvin
 Total                  261.726             81.900            151.698
 Electronic               0.000              0.000              0.000
 Translational            0.889              2.981             42.955
 Rotational               0.889              2.981             34.153
 Vibrational            259.949             75.939             74.591
 Vibration     1          0.594              1.981              5.279
 Vibration     2          0.595              1.978              4.830
 Vibration     3          0.596              1.976              4.647
 Vibration     4          0.597              1.973              4.421
 Vibration     5          0.598              1.968              4.120
 Vibration     6          0.600              1.963              3.883
 Vibration     7          0.607              1.939              3.232
 Vibration     8          0.610              1.930              3.050
 Vibration     9          0.615              1.914              2.819
 Vibration    10          0.620              1.895              2.592
 Vibration    11          0.625              1.881              2.446
 Vibration    12          0.626              1.877              2.414
 Vibration    13          0.638              1.841              2.139
 Vibration    14          0.647              1.810              1.956
 Vibration    15          0.649              1.805              1.927
 Vibration    16          0.662              1.764              1.737
 Vibration    17          0.666              1.752              1.685
 Vibration    18          0.672              1.733              1.614
 Vibration    19          0.676              1.721              1.571
 Vibration    20          0.686              1.693              1.476
 Vibration    21          0.700              1.653              1.357
 Vibration    22          0.712              1.618              1.265
 Vibration    23          0.725              1.582              1.181
 Vibration    24          0.753              1.506              1.026
 Vibration    25          0.764              1.477              0.974
 Vibration    26          0.787              1.416              0.875
 Vibration    27          0.788              1.413              0.871
 Vibration    28          0.800              1.384              0.828
 Vibration    29          0.851              1.261              0.670
 Vibration    30          0.891              1.170              0.573
 Vibration    31          0.917              1.114              0.520

 Optimization completed.
    -- Stationary point found.
 Normal termination of Gaussian 16 at Sat Apr 17 11:33:34 2021.
