 Gaussian 16, Revision A.03,
 Gaussian 16:  ES64L-G16RevA.03 25-Dec-2016

 ----------------------------------------------------------------------
 # wB97XD def2tzvp, opt=(ts, noeigen, calcfc, maxcycles=70, maxstep=8),
  freq=noraman, scrf=(iefpcm, solvent=water)
 ----------------------------------------------------------------------

 ------------------------
 1_iteration/TS-247-1.out
 ------------------------
 Symbolic Z-matrix:
 Charge =  0 Multiplicity = 1

 SCF Done:  E(RwB97XD) =  -805.275995065     A.U. after   14 cycles
 SCF Done:  E(RwB97XD) =  -805.276342573     A.U. after   14 cycles
 SCF Done:  E(RwB97XD) =  -805.276448790     A.U. after   12 cycles
 SCF Done:  E(RwB97XD) =  -805.276269811     A.U. after   12 cycles
 SCF Done:  E(RwB97XD) =  -805.276290566     A.U. after   12 cycles
 SCF Done:  E(RwB97XD) =  -805.276469994     A.U. after   12 cycles
 SCF Done:  E(RwB97XD) =  -805.276481233     A.U. after   10 cycles
 SCF Done:  E(RwB97XD) =  -805.276474772     A.U. after   11 cycles
 SCF Done:  E(RwB97XD) =  -805.276486153     A.U. after   11 cycles
 SCF Done:  E(RwB97XD) =  -805.276486335     A.U. after    8 cycles
 SCF Done:  E(RwB97XD) =  -805.276487562     A.U. after    9 cycles
 SCF Done:  E(RwB97XD) =  -805.276486676     A.U. after    9 cycles
 Optimization completed.
    -- Stationary point found.
 Normal termination of Gaussian 16 at Wed Feb 10 12:09:10 2021.

 ---------------------------------------------------------------------
 #N Geom=AllCheck Guess=TCheck SCRF=Check GenChk RwB97XD/def2TZVP Freq
 ---------------------------------------------------------------------

 Structure from the checkpoint file:  "/beegfs/scratch/user/q/tla25/Gau-47413.chk"
 ------------------------
 1_iteration/TS-247-1.out
 ------------------------
 Charge =  0 Multiplicity = 1

                         Standard orientation:
 ---------------------------------------------------------------------
 Center     Atomic      Atomic             Coordinates (Angstroms)
 Number     Number       Type             X           Y           Z
 ---------------------------------------------------------------------
      1          6           0       -1.228502   -0.522650    0.574590
      2          6           0        0.172785   -0.904084    0.516211
      3          8           0        0.572246   -2.039996    0.797519
      4          6           0       -2.125173   -1.564273    0.787717
      5          6           0       -3.552650   -3.597270   -0.610266
      6          1           0       -3.700757   -4.216085   -1.496069
      7          1           0       -3.260587   -4.235831    0.222615
      8          1           0       -4.491154   -3.105088   -0.359662
      9          7           0       -2.523230   -2.582171   -0.810379
     10          1           0       -1.627170   -2.990014   -1.047748
     11          1           0       -2.768879   -1.929581   -1.544040
     12          1           0       -3.158500   -1.321040    1.006749
     13          1           0       -1.752360   -2.448027    1.288738
     14          6           0       -1.731378    0.839811    0.309064
     15          6           0       -2.871327    1.050022   -0.477925
     16          6           0       -3.384666    2.319307   -0.694707
     17          6           0       -2.766930    3.432053   -0.142476
     18          6           0       -1.640490    3.250113    0.647230
     19          6           0       -1.140309    1.978218    0.878062
     20          1           0       -3.370269    0.204621   -0.934764
     21          1           0       -4.268307    2.438543   -1.310001
     22          1           0       -3.161207    4.424610   -0.318717
     23          1           0       -1.155505    4.103519    1.105509
     24          1           0       -0.288398    1.862671    1.537504
     25          7           0        1.054121    0.061341    0.067350
     26          6           0        2.440631    0.013111   -0.068934
     27          6           0        3.242773   -1.027470    0.405093
     28          6           0        4.619344   -0.969080    0.236389
     29          6           0        5.224663    0.106391   -0.394801
     30          6           0        4.427765    1.142744   -0.863810
     31          6           0        3.055019    1.098328   -0.704788
     32          1           0        0.631871    0.914582   -0.257928
     33          1           0        2.782758   -1.869663    0.894892
     34          1           0        5.225340   -1.785470    0.610469
     35          1           0        6.299078    0.138747   -0.520144
     36          1           0        4.876635    1.994518   -1.359626
     37          1           0        2.443885    1.913142   -1.076614
 ---------------------------------------------------------------------

 SCF Done:  E(RwB97XD) =  -805.276486676     A.U. after    1 cycles

 The electronic state is 1-A.
 Alpha  occ. eigenvalues --  -19.19963 -14.47634 -14.45797 -10.37927 -10.33607
 Alpha  occ. eigenvalues --  -10.32116 -10.31654 -10.30054 -10.28921 -10.28762
 Alpha  occ. eigenvalues --  -10.28716 -10.28714 -10.28650 -10.28343 -10.28309
 Alpha  occ. eigenvalues --  -10.28244 -10.28081 -10.27982 -10.25890  -1.12857
 Alpha  occ. eigenvalues --   -1.03529  -1.03085  -0.96468  -0.95154  -0.89608
 Alpha  occ. eigenvalues --   -0.84950  -0.84854  -0.84242  -0.82899  -0.78559
 Alpha  occ. eigenvalues --   -0.75167  -0.71553  -0.70651  -0.69760  -0.67947
 Alpha  occ. eigenvalues --   -0.64545  -0.63279  -0.62314  -0.61302  -0.58262
 Alpha  occ. eigenvalues --   -0.56943  -0.56240  -0.54449  -0.53578  -0.53368
 Alpha  occ. eigenvalues --   -0.52568  -0.52211  -0.51547  -0.51126  -0.50321
 Alpha  occ. eigenvalues --   -0.49802  -0.48827  -0.47825  -0.46996  -0.46801
 Alpha  occ. eigenvalues --   -0.45980  -0.44460  -0.43157  -0.42703  -0.42246
 Alpha  occ. eigenvalues --   -0.42049  -0.39087  -0.35082  -0.33735  -0.33495
 Alpha  occ. eigenvalues --   -0.33072  -0.29868  -0.25392
 Alpha virt. eigenvalues --    0.04312   0.05198   0.05393   0.05604   0.09039
 Alpha virt. eigenvalues --    0.10169   0.12557   0.13611   0.14124   0.14642
 Alpha virt. eigenvalues --    0.14893   0.16280   0.16614   0.17283   0.17637

 Mulliken charges:
               1
     1  C   -0.108902
     2  C    0.356754
     3  O   -0.552768
     4  C   -0.254656
     5  C   -0.268309
     6  H    0.149912
     7  H    0.147422
     8  H    0.149068
     9  N   -0.334397
    10  H    0.281343
    11  H    0.268507
    12  H    0.182571
    13  H    0.166170
    14  C    0.203863
    15  C   -0.288541
    16  C   -0.144366
    17  C   -0.174530
    18  C   -0.121353
    19  C   -0.346514
    20  H    0.134263
    21  H    0.138373
    22  H    0.139748
    23  H    0.138918
    24  H    0.169687
    25  N   -0.268999
    26  C    0.294963
    27  C   -0.302386
    28  C   -0.109033
    29  C   -0.201138
    30  C   -0.097324
    31  C   -0.317388
    32  H    0.251208
    33  H    0.156073
    34  H    0.139907
    35  H    0.139397
    36  H    0.142019
    37  H    0.140438
 Sum of Mulliken charges =  -0.00000

 Dipole moment (field-independent basis, Debye):
    X=             -6.8404    Y=             -1.7367    Z=             -4.2492  Tot=              8.2379
 Quadrupole moment (field-independent basis, Debye-Ang):
   XX=            -94.2166   YY=            -96.5397   ZZ=           -114.3807
   XY=             20.9551   XZ=              7.3946   YZ=              5.6879

  Exact polarizability: 374.308  12.113 343.558  20.393 -16.200 203.434
 Approx polarizability: 270.994   3.434 267.382  16.911 -14.794 179.750

 ******    1 imaginary frequencies (negative Signs) ******

                      1                      2                      3
                      A                      A                      A
 Frequencies --   -381.3741                26.2726                27.7662
 Red. masses --      6.1675                 4.0569                 3.7131
 Frc consts  --      0.5285                 0.0016                 0.0017
 IR Inten    --   1268.7342                 2.4676                 1.2427

                      4                      5                      6
                      A                      A                      A
 Frequencies --     38.3109                48.2040                53.2776
 Red. masses --      3.1403                 4.1284                 5.2280
 Frc consts  --      0.0027                 0.0057                 0.0087
 IR Inten    --      2.4462                 2.7910                 8.0368

                      7                      8                      9
                      A                      A                      A
 Frequencies --     87.6659                98.8786               124.0408
 Red. masses --      5.6769                 2.4125                 2.7469
 Frc consts  --      0.0257                 0.0139                 0.0249
 IR Inten    --     13.4981                 5.7751                 6.6359

                     10                     11                     12
                      A                      A                      A
 Frequencies --    154.9141               174.8529               190.2165
 Red. masses --      3.7891                 1.6969                 2.2692
 Frc consts  --      0.0536                 0.0306                 0.0484
 IR Inten    --      9.1068                 5.5692                 9.2402

                     13                     14                     15
                      A                      A                      A
 Frequencies --    218.5589               259.9366               293.8663
 Red. masses --      4.8775                 5.2443                 4.1612
 Frc consts  --      0.1373                 0.2088                 0.2117
 IR Inten    --      5.5440                 9.0936                98.8630

                     16                     17                     18
                      A                      A                      A
 Frequencies --    318.3012               372.7069               391.8490
 Red. masses --      3.6008                 4.2437                 5.5164
 Frc consts  --      0.2149                 0.3473                 0.4991
 IR Inten    --      7.5477                 4.9021                36.0550

                     19                     20                     21
                      A                      A                      A
 Frequencies --    417.4922               424.4168               426.4959
 Red. masses --      4.9615                 3.0150                 2.9695
 Frc consts  --      0.5095                 0.3200                 0.3182
 IR Inten    --     14.4163                 0.4679                 4.0265

                     22                     23                     24
                      A                      A                      A
 Frequencies --    525.6396               552.3028               559.1282
 Red. masses --      2.8585                 4.5057                 3.1309
 Frc consts  --      0.4653                 0.8098                 0.5767
 IR Inten    --     15.5719                34.0260                41.7883

                     25                     26                     27
                      A                      A                      A
 Frequencies --    615.1678               618.7037               631.0224
 Red. masses --      1.3559                 1.2458                 3.9976
 Frc consts  --      0.3023                 0.2810                 0.9379
 IR Inten    --     13.5845               121.5755                12.0568

                     28                     29                     30
                      A                      A                      A
 Frequencies --    638.3890               642.2184               680.4708
 Red. masses --      4.5552                 5.1581                 5.2908
 Frc consts  --      1.0938                 1.2534                 1.4434
 IR Inten    --      9.8767                12.7229                 7.1421

                     31                     32                     33
                      A                      A                      A
 Frequencies --    719.0563               732.3641               781.4270
 Red. masses --      1.8792                 1.5669                 2.2280
 Frc consts  --      0.5725                 0.4952                 0.8016
 IR Inten    --     68.9963                71.6048                44.8774

                     34                     35                     36
                      A                      A                      A
 Frequencies --    785.6946               799.4649               816.5799
 Red. masses --      3.0304                 2.7929                 3.4498
 Frc consts  --      1.1022                 1.0517                 1.3553
 IR Inten    --     41.6009                98.9622                 9.1610

                     37                     38                     39
                      A                      A                      A
 Frequencies --    861.5044               873.1785               875.9721
 Red. masses --      1.2616                 4.2271                 1.3239
 Frc consts  --      0.5517                 1.8989                 0.5985
 IR Inten    --      0.4847                 6.1343                 5.9666

                     40                     41                     42
                      A                      A                      A
 Frequencies --    929.9140               936.7483               945.3931
 Red. masses --      1.5362                 2.2408                 1.4428
 Frc consts  --      0.7827                 1.1585                 0.7598
 IR Inten    --     14.4182                 7.6671                 6.1867

                     43                     44                     45
                      A                      A                      A
 Frequencies --    995.3208              1000.8116              1008.6504
 Red. masses --      1.2608                 1.3435                 1.3574
 Frc consts  --      0.7359                 0.7929                 0.8137
 IR Inten    --      2.6514                 0.0495                10.1467

                     46                     47                     48
                      A                      A                      A
 Frequencies --   1013.3840              1015.2871              1018.6755
 Red. masses --      1.2005                 1.2866                 5.2920
 Frc consts  --      0.7264                 0.7814                 3.2355
 IR Inten    --    110.6492                 0.8226                13.0742

                     49                     50                     51
                      A                      A                      A
 Frequencies --   1020.3716              1021.3935              1055.5817
 Red. masses --      3.2712                 1.4614                 2.5614
 Frc consts  --      2.0067                 0.8982                 1.6816
 IR Inten    --      4.8647                 4.1332                32.2112

                     52                     53                     54
                      A                      A                      A
 Frequencies --   1062.4777              1073.6378              1078.4063
 Red. masses --      2.1097                 3.5168                 1.9157
 Frc consts  --      1.4032                 2.3884                 1.3126
 IR Inten    --     13.5359               245.3288                44.1009

                     55                     56                     57
                      A                      A                      A
 Frequencies --   1118.7466              1120.3073              1155.2959
 Red. masses --      1.5875                 1.5333                 1.3555
 Frc consts  --      1.1707                 1.1338                 1.0660
 IR Inten    --      9.5520                15.7844               166.2133

                     58                     59                     60
                      A                      A                      A
 Frequencies --   1181.1488              1182.6644              1194.6416
 Red. masses --      1.1384                 1.1245                 1.4199
 Frc consts  --      0.9357                 0.9267                 1.1939
 IR Inten    --      7.1091                 2.1437               369.7481

                     61                     62                     63
                      A                      A                      A
 Frequencies --   1207.1561              1212.1500              1215.8780
 Red. masses --      1.2818                 1.5400                 1.3481
 Frc consts  --      1.1005                 1.3332                 1.1743
 IR Inten    --     62.6031                37.3189                97.2652

                     64                     65                     66
                      A                      A                      A
 Frequencies --   1222.1867              1276.7598              1299.3474
 Red. masses --      1.3175                 2.5520                 3.8900
 Frc consts  --      1.1595                 2.4511                 3.8695
 IR Inten    --     12.9618               487.0914                50.7781

                     67                     68                     69
                      A                      A                      A
 Frequencies --   1340.9517              1343.5002              1346.8895
 Red. masses --      1.4172                 3.0152                 3.1470
 Frc consts  --      1.5014                 3.2065                 3.3636
 IR Inten    --      3.3777               113.7815               565.8081

                     70                     71                     72
                      A                      A                      A
 Frequencies --   1362.8369              1375.1812              1387.8897
 Red. masses --      1.7349                 1.5814                 2.0124
 Frc consts  --      1.8985                 1.7620                 2.2839
 IR Inten    --      0.1684               162.9264               105.6048

                     73                     74                     75
                      A                      A                      A
 Frequencies --   1463.2270              1478.6334              1481.9438
 Red. masses --      1.1930                 2.0962                 1.9630
 Frc consts  --      1.5049                 2.7003                 2.5400
 IR Inten    --     13.4291               112.1227                72.2444

                     76                     77                     78
                      A                      A                      A
 Frequencies --   1491.1858              1505.7779              1507.7628
 Red. masses --      1.0428                 1.7935                 1.1534
 Frc consts  --      1.3661                 2.3959                 1.5449
 IR Inten    --     15.0319               216.8252                31.2679

                     79                     80                     81
                      A                      A                      A
 Frequencies --   1543.4339              1545.9182              1577.0626
 Red. masses --      2.3611                 2.4617                 2.0854
 Frc consts  --      3.3140                 3.4662                 3.0559
 IR Inten    --    103.9456               258.8910               596.7380

                     82                     83                     84
                      A                      A                      A
 Frequencies --   1635.9526              1650.4087              1655.2689
 Red. masses --      4.9594                 1.1541                 5.7614
 Frc consts  --      7.8203                 1.8521                 9.3007
 IR Inten    --     62.7581                46.0276               389.9500

                     85                     86                     87
                      A                      A                      A
 Frequencies --   1666.0765              1672.5671              1684.4323
 Red. masses --      4.7369                 4.3165                 4.7784
 Frc consts  --      7.7470                 7.1145                 7.9881
 IR Inten    --    220.4312                 6.3477               506.0926

                     88                     89                     90
                      A                      A                      A
 Frequencies --   3063.7102              3140.3685              3151.8868
 Red. masses --      1.0336                 1.1045                 1.0600
 Frc consts  --      5.7159                 6.4174                 6.2042
 IR Inten    --     70.4260                22.5937                46.1926

                     91                     92                     93
                      A                      A                      A
 Frequencies --   3157.6185              3184.4546              3187.5809
 Red. masses --      1.1054                 1.0880                 1.0855
 Frc consts  --      6.4936                 6.5007                 6.4982
 IR Inten    --     21.1270                15.5402                12.1461

                     94                     95                     96
                      A                      A                      A
 Frequencies --   3192.4582              3194.5427              3203.2964
 Red. masses --      1.0873                 1.0882                 1.0918
 Frc consts  --      6.5293                 6.5427                 6.6005
 IR Inten    --      0.5675                 3.5334                20.1249

                     97                     98                     99
                      A                      A                      A
 Frequencies --   3204.6408              3209.3368              3219.9489
 Red. masses --      1.0930                 1.0935                 1.0984
 Frc consts  --      6.6132                 6.6356                 6.7097
 IR Inten    --     30.6855                60.7250                17.4564

                    100                    101                    102
                      A                      A                      A
 Frequencies --   3220.2734              3240.3031              3269.1894
 Red. masses --      1.0979                 1.1161                 1.0924
 Frc consts  --      6.7078                 6.9045                 6.8788
 IR Inten    --     23.3219                 2.8441                 4.8559

                    103                    104                    105
                      A                      A                      A
 Frequencies --   3537.0133              3618.9440              3641.4600
 Red. masses --      1.0505                 1.0962                 1.0760
 Frc consts  --      7.7435                 8.4590                 8.4066
 IR Inten    --     17.2144                42.4937               109.9630

 - Thermochemistry -
 -------------------
 Temperature   298.150 Kelvin.  Pressure   1.00000 Atm.
 Atom     1 has atomic number  6 and mass  12.00000

 Molecular mass:   254.14191 amu.
 Principal axes and moments of inertia in atomic units:
                           1         2         3
     Eigenvalues --  3719.642767828.90920**********
           X            0.99958   0.02862   0.00411
           Y           -0.02863   0.99958   0.00363
           Z           -0.00401  -0.00375   0.99998
 This molecule is an asymmetric top.
 Rotational symmetry number  1.
 Warning -- assumption of classical behavior for rotation
           may cause significant error
 Rotational temperatures (Kelvin)      0.02329     0.01106     0.00800
 Rotational constants (GHZ):           0.48519     0.23052     0.16675
    1 imaginary frequencies ignored.
 Zero-point vibrational energy     818081.7 (Joules/Mol)
                                  195.52621 (Kcal/Mol)
 Warning -- explicit consideration of  25 degrees of freedom as
           vibrations may cause significant error
 Vibrational temperatures:     37.80    39.95    55.12    69.35    76.65
          (Kelvin)            126.13   142.26   178.47   222.89   251.57
                              273.68   314.46   373.99   422.81   457.96
                              536.24   563.78   600.68   610.64   613.63
                              756.28   794.64   804.46   885.09   890.18
                              907.90   918.50   924.01   979.05  1034.56
                             1053.71  1124.30  1130.44  1150.25  1174.88
                             1239.51  1256.31  1260.33  1337.94  1347.77
                             1360.21  1432.04  1439.94  1451.22  1458.03
                             1460.77  1465.65  1468.09  1469.56  1518.75
                             1528.67  1544.73  1551.59  1609.63  1611.87
                             1662.21  1699.41  1701.59  1718.82  1736.83
                             1744.01  1749.38  1758.45  1836.97  1869.47
                             1929.33  1933.00  1937.87  1960.82  1978.58
                             1996.86  2105.26  2127.42  2132.19  2145.48
                             2166.48  2169.33  2220.66  2224.23  2269.04
                             2353.77  2374.57  2381.56  2397.11  2406.45
                             2423.52  4408.00  4518.29  4534.86  4543.11
                             4581.72  4586.22  4593.24  4596.23  4608.83
                             4610.76  4617.52  4632.79  4633.26  4662.07
                             4703.63  5088.97  5206.85  5239.25

 Zero-point correction=                           0.311591 (Hartree/Particle)
 Thermal correction to Energy=                    0.329044
 Thermal correction to Enthalpy=                  0.329988
 Thermal correction to Gibbs Free Energy=         0.263385
 Sum of electronic and zero-point Energies=           -804.964896
 Sum of electronic and thermal Energies=              -804.947443
 Sum of electronic and thermal Enthalpies=            -804.946499
 Sum of electronic and thermal Free Energies=         -805.013102

                     E (Thermal)             CV                S
                      KCal/Mol        Cal/Mol-Kelvin    Cal/Mol-Kelvin
 Total                  206.478             66.118            140.177
 Electronic               0.000              0.000              0.000
 Translational            0.889              2.981             42.498
 Rotational               0.889              2.981             34.110
 Vibrational            204.701             60.156             63.569
 Vibration     1          0.593              1.985              6.093
 Vibration     2          0.593              1.984              5.983
 Vibration     3          0.594              1.982              5.345
 Vibration     4          0.595              1.978              4.890
 Vibration     5          0.596              1.976              4.692
 Vibration     6          0.601              1.958              3.711
 Vibration     7          0.604              1.950              3.476
 Vibration     8          0.610              1.929              3.036
 Vibration     9          0.620              1.897              2.611
 Vibration    10          0.627              1.873              2.383
 Vibration    11          0.634              1.853              2.226
 Vibration    12          0.646              1.813              1.971
 Vibration    13          0.668              1.746              1.662
 Vibration    14          0.689              1.685              1.452
 Vibration    15          0.705              1.639              1.319
 Vibration    16          0.744              1.528              1.069
 Vibration    17          0.759              1.488              0.993
 Vibration    18          0.781              1.432              0.901
 Vibration    19          0.786              1.417              0.877
 Vibration    20          0.788              1.413              0.870
 Vibration    21          0.881              1.193              0.597
 Vibration    22          0.908              1.135              0.539
 Vibration    23          0.915              1.120              0.526
 Vibration    24          0.975              1.000              0.424
 Vibration    25          0.979              0.992              0.419

 Optimization completed.
    -- Stationary point found.
 Normal termination of Gaussian 16 at Wed Feb 10 13:52:19 2021.
