 Gaussian 16, Revision A.03,
 Gaussian 16:  ES64L-G16RevA.03 25-Dec-2016

 ----------------------------------------------------------------------
 # wB97XD def2tzvp, opt=(ts, noeigen, calcfc, maxcycles=70, maxstep=1),
  freq=noraman, scrf=(iefpcm, solvent=water)
 ----------------------------------------------------------------------

 ------------------------
 0_iteration/TS-271-0.out
 ------------------------
 Symbolic Z-matrix:
 Charge =  0 Multiplicity = 1

 SCF Done:  E(RwB97XD) =  -3147.83910455     A.U. after   14 cycles
 SCF Done:  E(RwB97XD) =  -3147.83909355     A.U. after   10 cycles
 SCF Done:  E(RwB97XD) =  -3147.83908544     A.U. after   10 cycles
 SCF Done:  E(RwB97XD) =  -3147.83908050     A.U. after   10 cycles
 SCF Done:  E(RwB97XD) =  -3147.83907967     A.U. after   10 cycles
 SCF Done:  E(RwB97XD) =  -3147.83908668     A.U. after    9 cycles
 SCF Done:  E(RwB97XD) =  -3147.83910706     A.U. after    9 cycles
 SCF Done:  E(RwB97XD) =  -3147.83912847     A.U. after   10 cycles
 SCF Done:  E(RwB97XD) =  -3147.83915031     A.U. after   10 cycles
 SCF Done:  E(RwB97XD) =  -3147.83917698     A.U. after   10 cycles
 SCF Done:  E(RwB97XD) =  -3147.83937376     A.U. after   11 cycles
 SCF Done:  E(RwB97XD) =  -3147.83937667     A.U. after   10 cycles
 SCF Done:  E(RwB97XD) =  -3147.83937929     A.U. after   10 cycles
 SCF Done:  E(RwB97XD) =  -3147.83937941     A.U. after   10 cycles
 SCF Done:  E(RwB97XD) =  -3147.83937842     A.U. after   10 cycles
 SCF Done:  E(RwB97XD) =  -3147.83937727     A.U. after   10 cycles
 SCF Done:  E(RwB97XD) =  -3147.83937980     A.U. after    9 cycles
 SCF Done:  E(RwB97XD) =  -3147.83937982     A.U. after    7 cycles
 SCF Done:  E(RwB97XD) =  -3147.83937982     A.U. after    6 cycles
 Optimization completed.
    -- Stationary point found.
 Normal termination of Gaussian 16 at Tue Feb  9 10:48:51 2021.

 ---------------------------------------------------------------------
 #N Geom=AllCheck Guess=TCheck SCRF=Check GenChk RwB97XD/def2TZVP Freq
 ---------------------------------------------------------------------

 Structure from the checkpoint file:  "/beegfs/scratch/user/q/tla25/Gau-70791.chk"
 ------------------------
 0_iteration/TS-271-0.out
 ------------------------
 Charge =  0 Multiplicity = 1

                         Standard orientation:
 ---------------------------------------------------------------------
 Center     Atomic      Atomic             Coordinates (Angstroms)
 Number     Number       Type             X           Y           Z
 ---------------------------------------------------------------------
      1          6           0       -1.514732    0.105400   -0.645450
      2          6           0       -0.165546    0.613365   -0.572468
      3          8           0        0.075379    1.797423   -0.832920
      4          6           0       -2.554849    0.926779   -1.034892
      5          6           0       -3.109770    1.420446    1.687535
      6          1           0       -3.270635    2.127944    2.501000
      7          1           0       -3.852116    0.626919    1.744282
      8          1           0       -2.118316    0.977955    1.789125
      9          7           0       -3.194512    2.065378    0.382917
     10          1           0       -4.137120    2.364764    0.164682
     11          1           0       -2.589287    2.876185    0.338155
     12          1           0       -3.515211    0.479347   -1.252660
     13          1           0       -2.289563    1.766527   -1.663878
     14         35           0       -1.938976   -1.663770   -0.026395
     15          7           0        0.824688   -0.272385   -0.216089
     16          6           0        2.194429   -0.056705   -0.050188
     17          6           0        2.812680    1.190658   -0.153417
     18          6           0        4.183127    1.298262    0.040764
     19          6           0        4.959198    0.189081    0.337347
     20          6           0        4.343503   -1.051586    0.440737
     21          6           0        2.979845   -1.175094    0.249348
     22          1           0        0.523132   -1.219945   -0.058926
     23          1           0        2.219467    2.059671   -0.384723
     24          1           0        4.646173    2.274006   -0.042993
     25          1           0        6.026652    0.287070    0.485781
     26          1           0        4.928293   -1.933248    0.671743
     27          1           0        2.511131   -2.149206    0.331898
 ---------------------------------------------------------------------

 SCF Done:  E(RwB97XD) =  -3147.83937982     A.U. after    1 cycles

 The electronic state is 1-A.
 Alpha  occ. eigenvalues -- -483.12467 -62.67302 -56.46398 -56.46080 -56.46061
 Alpha  occ. eigenvalues --  -19.20570 -14.47942 -14.46301 -10.38819 -10.33813
 Alpha  occ. eigenvalues --  -10.32958 -10.31427 -10.30314 -10.29013 -10.28856
 Alpha  occ. eigenvalues --  -10.28789 -10.28200 -10.28126  -8.81415  -6.63502
 Alpha  occ. eigenvalues --   -6.62486  -6.62426  -2.73902  -2.73617  -2.73567
 Alpha  occ. eigenvalues --   -2.72745  -2.72745  -1.13505  -1.04020  -1.03311
 Alpha  occ. eigenvalues --   -0.95561  -0.92021  -0.85086  -0.84746  -0.83508
 Alpha  occ. eigenvalues --   -0.78597  -0.75334  -0.71579  -0.68983  -0.64850
 Alpha  occ. eigenvalues --   -0.62897  -0.62500  -0.58419  -0.57750  -0.56589
 Alpha  occ. eigenvalues --   -0.53881  -0.53613  -0.52654  -0.51894  -0.51397
 Alpha  occ. eigenvalues --   -0.50258  -0.50078  -0.47650  -0.46824  -0.45184
 Alpha  occ. eigenvalues --   -0.44652  -0.43023  -0.42783  -0.39511  -0.39431
 Alpha  occ. eigenvalues --   -0.37996  -0.33848  -0.33673  -0.30241  -0.26672
 Alpha virt. eigenvalues --    0.04036   0.05427   0.07895   0.08840   0.10393
 Alpha virt. eigenvalues --    0.12873   0.13870   0.15032   0.15173   0.16533
 Alpha virt. eigenvalues --    0.16918   0.17784   0.18053   0.18570   0.19865

 Mulliken charges:
               1
     1  C   -0.233604
     2  C    0.410523
     3  O   -0.545980
     4  C   -0.190630
     5  C   -0.288603
     6  H    0.153375
     7  H    0.154380
     8  H    0.150229
     9  N   -0.327201
    10  H    0.282148
    11  H    0.281287
    12  H    0.178336
    13  H    0.173739
    14  Br  -0.171370
    15  N   -0.276123
    16  C    0.304208
    17  C   -0.299243
    18  C   -0.108302
    19  C   -0.199751
    20  C   -0.097922
    21  C   -0.310989
    22  H    0.236762
    23  H    0.159962
    24  H    0.140793
    25  H    0.140144
    26  H    0.142997
    27  H    0.140838
 Sum of Mulliken charges =  -0.00000

 Dipole moment (field-independent basis, Debye):
    X=             -6.8142    Y=              2.3462    Z=              2.7878  Tot=              7.7272
 Quadrupole moment (field-independent basis, Debye-Ang):
   XX=            -67.7342   YY=            -86.7439   ZZ=            -99.1400
   XY=            -21.5791   XZ=             -1.4406   YZ=              2.9286

  Exact polarizability: 304.207 -14.385 236.293   6.244 -11.206 149.389
 Approx polarizability: 216.774  -5.393 199.810   5.880 -11.261 131.193

 ******    1 imaginary frequencies (negative Signs) ******

                      1                      2                      3
                      A                      A                      A
 Frequencies --   -366.1828                21.1744                23.3918
 Red. masses --      6.0680                 3.7704                 2.9720
 Frc consts  --      0.4794                 0.0010                 0.0010
 IR Inten    --   1123.0395                 1.4060                 1.6297

                      4                      5                      6
                      A                      A                      A
 Frequencies --     44.9844                67.0560                79.6036
 Red. masses --      3.3309                 4.1679                 6.5156
 Frc consts  --      0.0040                 0.0110                 0.0243
 IR Inten    --     10.8456                15.9328                14.9295

                      7                      8                      9
                      A                      A                      A
 Frequencies --    104.0250               124.8509               187.0172
 Red. masses --      6.6774                 4.5328                 2.4365
 Frc consts  --      0.0426                 0.0416                 0.0502
 IR Inten    --      1.0812                23.3670                 7.1739

                     10                     11                     12
                      A                      A                      A
 Frequencies --    200.6541               232.0734               256.1155
 Red. masses --      1.5415                 3.8009                 4.1505
 Frc consts  --      0.0366                 0.1206                 0.1604
 IR Inten    --      7.4241                 2.5820                 3.3563

                     13                     14                     15
                      A                      A                      A
 Frequencies --    317.5759               370.5149               375.3754
 Red. masses --      3.7272                 4.2005                 5.0278
 Frc consts  --      0.2215                 0.3398                 0.4174
 IR Inten    --      4.3700                56.2124                 3.0117

                     16                     17                     18
                      A                      A                      A
 Frequencies --    400.3354               423.9728               492.2161
 Red. masses --      6.8008                 2.9984                 3.0510
 Frc consts  --      0.6422                 0.3176                 0.4355
 IR Inten    --     20.6010                 0.1108                 1.4638

                     19                     20                     21
                      A                      A                      A
 Frequencies --    528.4081               560.0945               616.2132
 Red. masses --      2.7646                 1.1413                 2.9519
 Frc consts  --      0.4548                 0.2109                 0.6604
 IR Inten    --     33.4773                91.9724                46.4765

                     22                     23                     24
                      A                      A                      A
 Frequencies --    635.5083               670.6134               719.3462
 Red. masses --      6.0303                 1.9205                 1.8904
 Frc consts  --      1.4349                 0.5089                 0.5764
 IR Inten    --      4.3816                24.7550                63.6222

                     25                     26                     27
                      A                      A                      A
 Frequencies --    743.0905               765.0934               783.8467
 Red. masses --      3.4087                 9.5892                 1.8209
 Frc consts  --      1.1090                 3.3072                 0.6592
 IR Inten    --     14.3697                22.0675                96.2734

                     28                     29                     30
                      A                      A                      A
 Frequencies --    862.2553               871.1860               929.1656
 Red. masses --      1.2656                 5.4022                 2.1876
 Frc consts  --      0.5544                 2.4157                 1.1128
 IR Inten    --      0.1805                 7.2532                10.7721

                     31                     32                     33
                      A                      A                      A
 Frequencies --    932.9423              1000.2442              1001.6400
 Red. masses --      1.4892                 1.1007                 1.3459
 Frc consts  --      0.7637                 0.6489                 0.7956
 IR Inten    --     17.4121                74.6970                 0.0497

                     34                     35                     36
                      A                      A                      A
 Frequencies --   1012.8162              1017.1641              1020.3897
 Red. masses --      1.5416                 1.2835                 4.9083
 Frc consts  --      0.9317                 0.7824                 3.0110
 IR Inten    --     58.4728                 0.5767                14.3416

                     37                     38                     39
                      A                      A                      A
 Frequencies --   1054.8129              1062.6498              1081.2770
 Red. masses --      1.9826                 2.1452                 2.0437
 Frc consts  --      1.2997                 1.4272                 1.4078
 IR Inten    --     66.5810                32.0720                73.9131

                     40                     41                     42
                      A                      A                      A
 Frequencies --   1121.1000              1171.7794              1182.4159
 Red. masses --      1.4929                 1.5095                 1.1253
 Frc consts  --      1.1055                 1.2211                 0.9269
 IR Inten    --     15.8825               335.1985                13.2339

                     43                     44                     45
                      A                      A                      A
 Frequencies --   1209.4909              1209.7537              1215.0559
 Red. masses --      1.2110                 1.2510                 1.3264
 Frc consts  --      1.0437                 1.0787                 1.1538
 IR Inten    --     70.6367                49.8072                89.5196

                     46                     47                     48
                      A                      A                      A
 Frequencies --   1251.9956              1277.7906              1348.2723
 Red. masses --      3.1582                 2.4238                 1.3431
 Frc consts  --      2.9167                 2.3316                 1.4385
 IR Inten    --      4.7879               260.1902                 3.2248

                     49                     50                     51
                      A                      A                      A
 Frequencies --   1351.2497              1356.9792              1374.3718
 Red. masses --      3.6492                 1.6803                 1.9315
 Frc consts  --      3.9257                 1.8230                 2.1496
 IR Inten    --    501.3226                83.5070               430.8071

                     52                     53                     54
                      A                      A                      A
 Frequencies --   1455.2976              1480.9990              1491.6975
 Red. masses --      1.1820                 2.1814                 1.0502
 Frc consts  --      1.4749                 2.8190                 1.3769
 IR Inten    --      8.3433               176.5226                50.0421

                     55                     56                     57
                      A                      A                      A
 Frequencies --   1495.2227              1502.0694              1547.2241
 Red. masses --      1.8980                 1.0374                 2.4762
 Frc consts  --      2.5001                 1.3791                 3.4925
 IR Inten    --    384.9166                11.7668               231.5678

                     58                     59                     60
                      A                      A                      A
 Frequencies --   1575.6947              1645.0933              1655.5091
 Red. masses --      2.1431                 1.1257                 6.2375
 Frc consts  --      3.1350                 1.7949                10.0721
 IR Inten    --    802.6688               111.5907               193.7223

                     61                     62                     63
                      A                      A                      A
 Frequencies --   1666.6455              1679.5166              3065.3951
 Red. masses --      3.4141                 6.2381                 1.0331
 Frc consts  --      5.5874                10.3675                 5.7198
 IR Inten    --    139.2167               294.4594                32.3955

                     64                     65                     66
                      A                      A                      A
 Frequencies --   3141.0523              3162.9987              3166.1652
 Red. masses --      1.1049                 1.1043                 1.0601
 Frc consts  --      6.4229                 6.5091                 6.2614
 IR Inten    --     15.7034                20.1591                20.8320

                     67                     68                     69
                      A                      A                      A
 Frequencies --   3186.7131              3196.1388              3205.9901
 Red. masses --      1.0880                 1.0883                 1.0931
 Frc consts  --      6.5095                 6.5500                 6.6199
 IR Inten    --     13.4689                 2.7408                30.8983

                     70                     71                     72
                      A                      A                      A
 Frequencies --   3221.0613              3254.4953              3273.4970
 Red. masses --      1.0980                 1.1170                 1.0921
 Frc consts  --      6.7119                 6.9705                 6.8950
 IR Inten    --     23.2009                 1.0829                 6.0613

                     73                     74                     75
                      A                      A                      A
 Frequencies --   3533.5756              3616.7858              3630.5305
 Red. masses --      1.0503                 1.0965                 1.0762
 Frc consts  --      7.7269                 8.4512                 8.3579
 IR Inten    --     42.0599                47.0524                98.9757

 - Thermochemistry -
 -------------------
 Temperature   298.150 Kelvin.  Pressure   1.00000 Atm.
 Atom     1 has atomic number  6 and mass  12.00000

 Molecular mass:   256.02112 amu.
 Principal axes and moments of inertia in atomic units:
                           1         2         3
     Eigenvalues --  2027.549206866.472738233.27248
           X            0.99901  -0.04426  -0.00386
           Y            0.04429   0.99898   0.00928
           Z            0.00345  -0.00944   0.99995
 This molecule is an asymmetric top.
 Rotational symmetry number  1.
 Warning -- assumption of classical behavior for rotation
           may cause significant error
 Rotational temperatures (Kelvin)      0.04272     0.01261     0.01052
 Rotational constants (GHZ):           0.89011     0.26283     0.21920
    1 imaginary frequencies ignored.
 Zero-point vibrational energy     577253.9 (Joules/Mol)
                                  137.96700 (Kcal/Mol)
 Warning -- explicit consideration of  20 degrees of freedom as
           vibrations may cause significant error
 Vibrational temperatures:     30.47    33.66    64.72    96.48   114.53
          (Kelvin)            149.67   179.63   269.08   288.70   333.90
                              368.49   456.92   533.09   540.08   575.99
                              610.00   708.19   760.26   805.85   886.59
                              914.35   964.86  1034.98  1069.14  1100.80
                             1127.78  1240.59  1253.44  1336.86  1342.30
                             1439.13  1441.14  1457.22  1463.47  1468.11
                             1517.64  1528.92  1555.72  1613.01  1685.93
                             1701.23  1740.19  1740.57  1748.19  1801.34
                             1838.46  1939.86  1944.15  1952.39  1977.41
                             2093.85  2130.83  2146.22  2151.29  2161.14
                             2226.11  2267.07  2366.92  2381.91  2397.93
                             2416.45  4410.42  4519.27  4550.85  4555.41
                             4584.97  4598.53  4612.70  4634.39  4682.49
                             4709.83  5084.03  5203.75  5223.52

 Zero-point correction=                           0.219864 (Hartree/Particle)
 Thermal correction to Energy=                    0.234222
 Thermal correction to Enthalpy=                  0.235166
 Thermal correction to Gibbs Free Energy=         0.174838
 Sum of electronic and zero-point Energies=          -3147.619515
 Sum of electronic and thermal Energies=             -3147.605158
 Sum of electronic and thermal Enthalpies=           -3147.604214
 Sum of electronic and thermal Free Energies=        -3147.664542

                     E (Thermal)             CV                S
                      KCal/Mol        Cal/Mol-Kelvin    Cal/Mol-Kelvin
 Total                  146.976             51.461            126.970
 Electronic               0.000              0.000              0.000
 Translational            0.889              2.981             42.520
 Rotational               0.889              2.981             33.105
 Vibrational            145.199             45.499             51.345
 Vibration     1          0.593              1.985              6.521
 Vibration     2          0.593              1.985              6.323
 Vibration     3          0.595              1.979              5.027
 Vibration     4          0.598              1.970              4.238
 Vibration     5          0.600              1.963              3.901
 Vibration     6          0.605              1.946              3.377
 Vibration     7          0.610              1.928              3.024
 Vibration     8          0.632              1.858              2.257
 Vibration     9          0.638              1.839              2.127
 Vibration    10          0.653              1.792              1.863
 Vibration    11          0.666              1.752              1.688
 Vibration    12          0.704              1.640              1.323
 Vibration    13          0.743              1.533              1.078
 Vibration    14          0.746              1.523              1.058
 Vibration    15          0.766              1.469              0.961
 Vibration    16          0.786              1.418              0.879
 Vibration    17          0.848              1.267              0.678
 Vibration    18          0.883              1.187              0.591
 Vibration    19          0.916              1.118              0.524
 Vibration    20          0.976              0.998              0.423

 Optimization completed.
    -- Stationary point found.
 Normal termination of Gaussian 16 at Tue Feb  9 11:29:48 2021.
