 Gaussian 16, Revision A.03,
 Gaussian 16:  ES64L-G16RevA.03 25-Dec-2016

 ----------------------------------------------------------------------
 # wB97XD def2tzvp, opt=(ts, noeigen, calcfc, maxcycles=70, maxstep=1),
  freq=noraman, scrf=(iefpcm, solvent=water)
 ----------------------------------------------------------------------

 ------------------------
 0_iteration/TS-267-0.out
 ------------------------
 Symbolic Z-matrix:
 Charge =  0 Multiplicity = 1

 SCF Done:  E(RwB97XD) =  -2916.79304013     A.U. after   15 cycles
 SCF Done:  E(RwB97XD) =  -2916.79300085     A.U. after   10 cycles
 SCF Done:  E(RwB97XD) =  -2916.79296518     A.U. after   10 cycles
 SCF Done:  E(RwB97XD) =  -2916.79293319     A.U. after   10 cycles
 SCF Done:  E(RwB97XD) =  -2916.79290488     A.U. after   10 cycles
 SCF Done:  E(RwB97XD) =  -2916.79288032     A.U. after   10 cycles
 SCF Done:  E(RwB97XD) =  -2916.79285954     A.U. after   10 cycles
 SCF Done:  E(RwB97XD) =  -2916.79284266     A.U. after   10 cycles
 SCF Done:  E(RwB97XD) =  -2916.79282987     A.U. after   10 cycles
 SCF Done:  E(RwB97XD) =  -2916.79282174     A.U. after   10 cycles
 SCF Done:  E(RwB97XD) =  -2916.79281992     A.U. after   10 cycles
 SCF Done:  E(RwB97XD) =  -2916.79282825     A.U. after   11 cycles
 SCF Done:  E(RwB97XD) =  -2916.79284536     A.U. after   10 cycles
 SCF Done:  E(RwB97XD) =  -2916.79286179     A.U. after   10 cycles
 SCF Done:  E(RwB97XD) =  -2916.79287399     A.U. after   10 cycles
 SCF Done:  E(RwB97XD) =  -2916.79288087     A.U. after   10 cycles
 SCF Done:  E(RwB97XD) =  -2916.79288292     A.U. after   10 cycles
 SCF Done:  E(RwB97XD) =  -2916.79288303     A.U. after    9 cycles
 Optimization completed.
    -- Stationary point found.
 Normal termination of Gaussian 16 at Tue Feb  9 16:33:20 2021.

 ---------------------------------------------------------------------
 #N Geom=AllCheck Guess=TCheck SCRF=Check GenChk RwB97XD/def2TZVP Freq
 ---------------------------------------------------------------------

 Structure from the checkpoint file:  "/beegfs/scratch/user/q/tla25/Gau-14038.chk"
 ------------------------
 0_iteration/TS-267-0.out
 ------------------------
 Charge =  0 Multiplicity = 1

                         Standard orientation:
 ---------------------------------------------------------------------
 Center     Atomic      Atomic             Coordinates (Angstroms)
 Number     Number       Type             X           Y           Z
 ---------------------------------------------------------------------
      1          6           0       -0.164209    0.285625    0.403813
      2          6           0       -0.584301    1.621631    0.049891
      3          8           0        0.183828    2.587540    0.171410
      4          6           0        1.112005    0.028393    0.853315
      5          6           0        3.752398   -0.466389   -0.126646
      6          1           0        4.449185   -0.580318   -0.958000
      7          1           0        4.078866    0.364373    0.497391
      8          1           0        3.762766   -1.376645    0.471239
      9          7           0        2.388654   -0.211693   -0.580118
     10          1           0        2.316650    0.645326   -1.114481
     11          1           0        2.028620   -0.967868   -1.149193
     12          1           0        1.334635   -0.927394    1.309991
     13          1           0        1.642880    0.873293    1.274604
     14         35           0       -1.282973   -1.216930   -0.021842
     15          7           0       -1.842971    1.811318   -0.435930
     16          1           0       -2.536877    1.088024   -0.382295
     17          1           0       -2.158440    2.760517   -0.525971
 ---------------------------------------------------------------------

 SCF Done:  E(RwB97XD) =  -2916.79288303     A.U. after    1 cycles

 The electronic state is 1-A.
 Alpha  occ. eigenvalues -- -483.12145 -62.66992 -56.46083 -56.45768 -56.45754
 Alpha  occ. eigenvalues --  -19.19817 -14.47590 -14.43765 -10.38076 -10.32842
 Alpha  occ. eigenvalues --  -10.31662 -10.29967  -8.81116  -6.63194  -6.62183
 Alpha  occ. eigenvalues --   -6.62141  -2.73596  -2.73306  -2.73271  -2.72454
 Alpha  occ. eigenvalues --   -2.72453  -1.12390  -1.03076  -0.99366  -0.91604
 Alpha  occ. eigenvalues --   -0.83252  -0.78506  -0.74078  -0.64671  -0.62955
 Alpha  occ. eigenvalues --   -0.61254  -0.56921  -0.55608  -0.53170  -0.51084
 Alpha  occ. eigenvalues --   -0.50367  -0.49527  -0.47829  -0.44646  -0.43551
 Alpha  occ. eigenvalues --   -0.38887  -0.37792  -0.35008  -0.33565  -0.26844
 Alpha virt. eigenvalues --    0.06325   0.08469   0.10351   0.13276   0.14764
 Alpha virt. eigenvalues --    0.15650   0.16420   0.17917   0.18534   0.18795
 Alpha virt. eigenvalues --    0.21145   0.21819   0.22285   0.23645   0.26152

 Mulliken charges:
               1
     1  C   -0.158088
     2  C    0.294056
     3  O   -0.549954
     4  C   -0.190156
     5  C   -0.269044
     6  H    0.149399
     7  H    0.148720
     8  H    0.148767
     9  N   -0.347607
    10  H    0.280422
    11  H    0.278654
    12  H    0.174394
    13  H    0.165109
    14  Br  -0.182067
    15  N   -0.476245
    16  H    0.266706
    17  H    0.266934
 Sum of Mulliken charges =  -0.00000

 Dipole moment (field-independent basis, Debye):
    X=              4.7620    Y=             -3.5586    Z=             -1.9325  Tot=              6.2510
 Quadrupole moment (field-independent basis, Debye-Ang):
   XX=            -38.4130   YY=            -71.8065   ZZ=            -60.8533
   XY=             -9.5953   XZ=             -1.5874   YZ=             -1.5177

  Exact polarizability: 163.641  -6.323 131.311   4.379   1.244  92.043
 Approx polarizability: 120.906   0.694 107.896   3.884   1.570  81.538

 ******    1 imaginary frequencies (negative Signs) ******

                      1                      2                      3
                      A                      A                      A
 Frequencies --   -358.4256                39.7327                74.4811
 Red. masses --      5.9074                 3.1913                 4.0234
 Frc consts  --      0.4471                 0.0030                 0.0132
 IR Inten    --    966.2218                 0.8936                17.5408

                      4                      5                      6
                      A                      A                      A
 Frequencies --     76.7394               109.4865               171.0879
 Red. masses --      2.0418                 4.6906                 1.2634
 Frc consts  --      0.0071                 0.0331                 0.0218
 IR Inten    --     17.3069                19.5005                 5.0567

                      7                      8                      9
                      A                      A                      A
 Frequencies --    180.6361               217.2568               261.7483
 Red. masses --      3.6369                 4.9875                 1.2885
 Frc consts  --      0.0699                 0.1387                 0.0520
 IR Inten    --     31.7334                 8.7659               329.3673

                     10                     11                     12
                      A                      A                      A
 Frequencies --    343.5856               380.3023               414.3766
 Red. masses --      2.3504                 9.0630                 3.8792
 Frc consts  --      0.1635                 0.7723                 0.3924
 IR Inten    --      1.7208                50.3274               132.9157

                     13                     14                     15
                      A                      A                      A
 Frequencies --    531.5898               551.0526               615.3710
 Red. masses --      1.1431                 3.2661                 1.1470
 Frc consts  --      0.1903                 0.5843                 0.2559
 IR Inten    --      9.9226                12.4440                18.5223

                     16                     17                     18
                      A                      A                      A
 Frequencies --    670.7215               775.8675               865.8038
 Red. masses --      3.7942                 9.1778                 2.0192
 Frc consts  --      1.0057                 3.2551                 0.8918
 IR Inten    --     53.5068                46.1607                 2.7731

                     19                     20                     21
                      A                      A                      A
 Frequencies --    988.5405              1012.9587              1060.0055
 Red. masses --      1.1748                 1.1158                 1.5122
 Frc consts  --      0.6764                 0.6746                 1.0011
 IR Inten    --      3.5311               102.5610                28.4904

                     22                     23                     24
                      A                      A                      A
 Frequencies --   1074.1204              1095.2903              1180.7731
 Red. masses --      4.1180                 1.9627                 1.3630
 Frc consts  --      2.7992                 1.3873                 1.1197
 IR Inten    --    207.0152                18.3509                67.7090

                     25                     26                     27
                      A                      A                      A
 Frequencies --   1186.5182              1212.9337              1326.1811
 Red. masses --      1.1328                 1.4408                 2.0854
 Frc consts  --      0.9396                 1.2489                 2.1610
 IR Inten    --    238.6592                20.1349                29.6814

                     28                     29                     30
                      A                      A                      A
 Frequencies --   1343.3914              1412.4032              1462.5893
 Red. masses --      1.3298                 2.8584                 1.2005
 Frc consts  --      1.4140                 3.3597                 1.5131
 IR Inten    --      0.4444               738.7641                24.1269

                     31                     32                     33
                      A                      A                      A
 Frequencies --   1491.2085              1498.6474              1507.7901
 Red. masses --      1.0492                 2.1343                 1.0317
 Frc consts  --      1.3746                 2.8243                 1.3819
 IR Inten    --     14.6637               386.7583                14.6998

                     34                     35                     36
                      A                      A                      A
 Frequencies --   1604.2787              1648.7682              1653.3902
 Red. masses --      1.5000                 1.2737                 2.4893
 Frc consts  --      2.2745                 2.0400                 4.0094
 IR Inten    --    344.7525                88.1942               482.8394

                     37                     38                     39
                      A                      A                      A
 Frequencies --   3064.9079              3141.1416              3157.0997
 Red. masses --      1.0337                 1.1043                 1.0596
 Frc consts  --      5.7211                 6.4194                 6.2226
 IR Inten    --     61.9528                22.2605                23.0427

                     40                     41                     42
                      A                      A                      A
 Frequencies --   3158.9117              3246.2198              3536.7611
 Red. masses --      1.1052                 1.1172                 1.0504
 Frc consts  --      6.4978                 6.9367                 7.7414
 IR Inten    --     19.9218                 1.0989                20.9515

                     43                     44                     45
                      A                      A                      A
 Frequencies --   3620.4152              3624.2135              3748.6672
 Red. masses --      1.0969                 1.0456                 1.1044
 Frc consts  --      8.4707                 8.0921                 9.1439
 IR Inten    --     44.0422                76.8989                85.5063

 - Thermochemistry -
 -------------------
 Temperature   298.150 Kelvin.  Pressure   1.00000 Atm.
 Atom     1 has atomic number  6 and mass  12.00000

 Molecular mass:   179.98982 amu.
 Principal axes and moments of inertia in atomic units:
                           1         2         3
     Eigenvalues --  1221.207671959.592662991.10233
           X            0.99115  -0.13272   0.00088
           Y            0.13272   0.99114  -0.00602
           Z           -0.00007   0.00608   0.99998
 This molecule is an asymmetric top.
 Rotational symmetry number  1.
 Warning -- assumption of classical behavior for rotation
           may cause significant error
 Rotational temperatures (Kelvin)      0.07092     0.04420     0.02896
 Rotational constants (GHZ):           1.47783     0.92098     0.60337
    1 imaginary frequencies ignored.
 Zero-point vibrational energy     360901.2 (Joules/Mol)
                                   86.25745 (Kcal/Mol)
 Warning -- explicit consideration of  14 degrees of freedom as
           vibrations may cause significant error
 Vibrational temperatures:     57.17   107.16   110.41   157.53   246.16
          (Kelvin)            259.90   312.58   376.60   494.34   547.17
                              596.20   764.84   792.84   885.38   965.02
                             1116.30  1245.70  1422.29  1457.42  1525.11
                             1545.42  1575.88  1698.87  1707.14  1745.14
                             1908.08  1932.84  2032.13  2104.34  2145.52
                             2156.22  2169.37  2308.20  2372.21  2378.86
                             4409.72  4519.40  4542.36  4544.97  4670.59
                             5088.61  5208.97  5214.43  5393.50

 Zero-point correction=                           0.137460 (Hartree/Particle)
 Thermal correction to Energy=                    0.147705
 Thermal correction to Enthalpy=                  0.148649
 Thermal correction to Gibbs Free Energy=         0.099791
 Sum of electronic and zero-point Energies=          -2916.655423
 Sum of electronic and thermal Energies=             -2916.645179
 Sum of electronic and thermal Enthalpies=           -2916.644234
 Sum of electronic and thermal Free Energies=        -2916.693092

                     E (Thermal)             CV                S
                      KCal/Mol        Cal/Mol-Kelvin    Cal/Mol-Kelvin
 Total                   92.686             34.199            102.830
 Electronic               0.000              0.000              0.000
 Translational            0.889              2.981             41.470
 Rotational               0.889              2.981             30.349
 Vibrational             90.909             28.238             31.010
 Vibration     1          0.594              1.981              5.272
 Vibration     2          0.599              1.966              4.031
 Vibration     3          0.599              1.965              3.973
 Vibration     4          0.606              1.942              3.278
 Vibration     5          0.626              1.878              2.423
 Vibration     6          0.630              1.866              2.322
 Vibration     7          0.646              1.815              1.982
 Vibration     8          0.669              1.743              1.650
 Vibration     9          0.722              1.588              1.195
 Vibration    10          0.750              1.512              1.038
 Vibration    11          0.778              1.439              0.911
 Vibration    12          0.887              1.180              0.584
 Vibration    13          0.906              1.137              0.542
 Vibration    14          0.975              0.999              0.424

 Optimization completed.
    -- Stationary point found.
 Normal termination of Gaussian 16 at Tue Feb  9 16:40:54 2021.
