 Gaussian 16, Revision A.03,
 Gaussian 16:  ES64L-G16RevA.03 25-Dec-2016

 ----------------------------------------------------------------------
 # wB97XD def2tzvp, opt=(ts, noeigen, calcfc, maxcycles=70, maxstep=5),
  freq=noraman, scrf=(iefpcm, solvent=water)
 ----------------------------------------------------------------------

 ------------------------
 2_iteration/TS-238-2.out
 ------------------------
 Symbolic Z-matrix:
 Charge =  0 Multiplicity = 1

 SCF Done:  E(RwB97XD) =  -1112.44275499     A.U. after   15 cycles
 Optimization completed.
    -- Stationary point found.
 Normal termination of Gaussian 16 at Thu Feb 11 09:21:17 2021.

 ---------------------------------------------------------------------
 #N Geom=AllCheck Guess=TCheck SCRF=Check GenChk RwB97XD/def2TZVP Freq
 ---------------------------------------------------------------------

 Structure from the checkpoint file:  "/beegfs/scratch/user/q/tla25/Gau-16432.chk"
 ------------------------
 2_iteration/TS-238-2.out
 ------------------------
 Charge =  0 Multiplicity = 1

                         Standard orientation:
 ---------------------------------------------------------------------
 Center     Atomic      Atomic             Coordinates (Angstroms)
 Number     Number       Type             X           Y           Z
 ---------------------------------------------------------------------
      1          6           0       -0.824640    0.398692   -0.546450
      2          6           0       -1.364030   -0.457028    0.493120
      3          8           0       -0.817200   -0.497778    1.614720
      4          6           0        0.469760    0.921722   -0.465930
      5          6           0       -0.309230    3.058512    1.204560
      6          1           0       -0.348710    3.497422    2.202490
      7          1           0       -0.008280    3.821382    0.488140
      8          1           0       -1.301470    2.697152    0.939250
      9          7           0        0.621290    1.939092    1.146130
     10          1           0        1.571740    2.214352    1.359440
     11          1           0        0.329870    1.180582    1.763240
     12          1           0        0.649140    1.740632   -1.155450
     13          6           0        1.689690    0.062312   -0.311280
     14          6           0        1.627020   -1.324808   -0.222010
     15          6           0        2.785080   -2.080498   -0.122680
     16          6           0        4.028170   -1.464138   -0.125590
     17          6           0        4.105160   -0.083638   -0.239050
     18          6           0        2.945270    0.668342   -0.334190
     19          1           0        0.667030   -1.821208   -0.244470
     20          1           0        2.714730   -3.158618   -0.050880
     21          1           0        4.931210   -2.056738   -0.052410
     22          1           0        5.068950    0.409022   -0.260780
     23          1           0        3.018340    1.745262   -0.439030
     24         17           0       -1.981270    1.339272   -1.517660
     25          7           0       -2.480680   -1.197958    0.256490
     26          6           0       -2.884560   -1.638588   -1.062070
     27          6           0       -3.130740   -1.865828    1.362300
     28          1           0       -2.129200   -1.371728   -1.795780
     29          1           0       -2.990960   -2.726818   -1.057430
     30          1           0       -3.839780   -1.199828   -1.361000
     31          1           0       -2.980770   -1.298798    2.276980
     32          1           0       -4.199510   -1.937988    1.154710
     33          1           0       -2.739080   -2.877738    1.512670
 ---------------------------------------------------------------------

 SCF Done:  E(RwB97XD) =  -1112.44275499     A.U. after    1 cycles

 The electronic state is 1-A.
 Alpha  occ. eigenvalues -- -101.68062 -19.20367 -14.47181 -14.45426 -10.37753
 Alpha  occ. eigenvalues --  -10.34197 -10.31216 -10.30540 -10.30537 -10.30304
 Alpha  occ. eigenvalues --  -10.29750 -10.29345 -10.29195 -10.29140 -10.29110
 Alpha  occ. eigenvalues --  -10.29053  -9.56584  -7.31201  -7.30393  -7.30359
 Alpha  occ. eigenvalues --   -1.12954  -1.03201  -1.02628  -0.97208  -0.94947
 Alpha  occ. eigenvalues --   -0.88455  -0.85370  -0.82370  -0.81307  -0.79470
 Alpha  occ. eigenvalues --   -0.78008  -0.72557  -0.70379  -0.68077  -0.63566
 Alpha  occ. eigenvalues --   -0.61913  -0.61221  -0.57329  -0.56637  -0.56319
 Alpha  occ. eigenvalues --   -0.56142  -0.55018  -0.53820  -0.53092  -0.51429
 Alpha  occ. eigenvalues --   -0.50705  -0.50029  -0.48357  -0.48089  -0.47774
 Alpha  occ. eigenvalues --   -0.47481  -0.47243  -0.46194  -0.45543  -0.43650
 Alpha  occ. eigenvalues --   -0.43165  -0.42358  -0.40648  -0.38939  -0.34777
 Alpha  occ. eigenvalues --   -0.33865  -0.32987  -0.31694  -0.25905
 Alpha virt. eigenvalues --    0.02431   0.05185   0.07495   0.10654   0.11734
 Alpha virt. eigenvalues --    0.12096   0.13725   0.14870   0.15530   0.16048
 Alpha virt. eigenvalues --    0.16338   0.16918   0.17622   0.17897   0.18431

 Mulliken charges:
               1
     1  C   -0.237251
     2  C    0.267233
     3  O   -0.576403
     4  C    0.098808
     5  C   -0.287451
     6  H    0.147554
     7  H    0.147878
     8  H    0.150219
     9  N   -0.317508
    10  H    0.270599
    11  H    0.274622
    12  H    0.163531
    13  C    0.109985
    14  C   -0.196580
    15  C   -0.137329
    16  C   -0.151999
    17  C   -0.129344
    18  C   -0.306593
    19  H    0.166437
    20  H    0.142130
    21  H    0.145010
    22  H    0.144269
    23  H    0.160274
    24  Cl  -0.202714
    25  N   -0.096830
    26  C   -0.297674
    27  C   -0.290800
    28  H    0.155699
    29  H    0.134441
    30  H    0.139798
    31  H    0.138792
    32  H    0.138680
    33  H    0.132520
 Sum of Mulliken charges =  -0.00000

 Dipole moment (field-independent basis, Debye):
    X=              2.6715    Y=              2.2357    Z=              1.1823  Tot=              3.6788
 Quadrupole moment (field-independent basis, Debye-Ang):
   XX=            -90.4097   YY=            -85.5622   ZZ=           -110.0537
   XY=             10.6669   XZ=             -0.1238   YZ=              8.3630

  Exact polarizability: 290.676  15.773 258.899  16.213  -0.589 190.060
 Approx polarizability: 220.691  10.154 208.575  13.381  -2.077 166.231

 ******    1 imaginary frequencies (negative Signs) ******

                      1                      2                      3
                      A                      A                      A
 Frequencies --   -400.3398                38.5898                44.8652
 Red. masses --      5.9285                 3.8372                 3.4182
 Frc consts  --      0.5598                 0.0034                 0.0041
 IR Inten    --    857.4744                 0.4878                 1.8212

                      4                      5                      6
                      A                      A                      A
 Frequencies --     62.9756                73.5475               104.7033
 Red. masses --      2.9549                 4.1330                 3.1030
 Frc consts  --      0.0069                 0.0132                 0.0200
 IR Inten    --      2.9653                 1.0457                 3.7497

                      7                      8                      9
                      A                      A                      A
 Frequencies --    107.1009               127.3242               148.7243
 Red. masses --      2.9891                 1.6214                 5.1283
 Frc consts  --      0.0202                 0.0155                 0.0668
 IR Inten    --      5.3333                 2.1598                12.6399

                     10                     11                     12
                      A                      A                      A
 Frequencies --    163.9639               167.7052               207.0462
 Red. masses --      1.2512                 3.0113                 1.6056
 Frc consts  --      0.0198                 0.0499                 0.0406
 IR Inten    --      6.4782                41.2675                 4.0698

                     13                     14                     15
                      A                      A                      A
 Frequencies --    217.5215               225.1777               234.6157
 Red. masses --      2.9008                 3.3059                 2.6748
 Frc consts  --      0.0809                 0.0988                 0.0867
 IR Inten    --      5.7884                 7.3098                 7.5164

                     16                     17                     18
                      A                      A                      A
 Frequencies --    256.8128               277.0863               311.6510
 Red. masses --      2.7629                 2.8186                 6.6166
 Frc consts  --      0.1074                 0.1275                 0.3786
 IR Inten    --     16.6691                 2.0679                14.9842

                     19                     20                     21
                      A                      A                      A
 Frequencies --    344.4834               398.4030               422.5710
 Red. masses --      4.0272                 3.2480                 2.8968
 Frc consts  --      0.2816                 0.3037                 0.3048
 IR Inten    --     45.7499                10.5572                 0.1262

                     22                     23                     24
                      A                      A                      A
 Frequencies --    441.3571               504.4235               539.4441
 Red. masses --      3.1554                 5.9044                 3.1214
 Frc consts  --      0.3621                 0.8852                 0.5352
 IR Inten    --     34.4859                15.2847               126.9695

                     25                     26                     27
                      A                      A                      A
 Frequencies --    597.3831               624.7187               639.1576
 Red. masses --      3.9365                 6.1453                 6.1728
 Frc consts  --      0.8277                 1.4131                 1.4857
 IR Inten    --     27.9231                17.3076                 1.4209

                     28                     29                     30
                      A                      A                      A
 Frequencies --    683.1119               723.9244               743.1407
 Red. masses --      3.3241                 1.5727                 2.1134
 Frc consts  --      0.9139                 0.4856                 0.6877
 IR Inten    --     37.2831               103.1151                55.1379

                     31                     32                     33
                      A                      A                      A
 Frequencies --    786.9386               791.0562               851.5850
 Red. masses --      9.6251                 1.9220                 4.6529
 Frc consts  --      3.5119                 0.7086                 1.9881
 IR Inten    --     41.5755                20.5573                22.2050

                     34                     35                     36
                      A                      A                      A
 Frequencies --    877.9981               935.9687               965.7492
 Red. masses --      1.2474                 3.6518                 1.4932
 Frc consts  --      0.5665                 1.8848                 0.8206
 IR Inten    --      1.8347                33.0224                 6.4817

                     37                     38                     39
                      A                      A                      A
 Frequencies --   1002.3634              1016.6025              1026.8016
 Red. masses --      1.1558                 1.3147                 4.6275
 Frc consts  --      0.6842                 0.8005                 2.8745
 IR Inten    --     83.8855                13.3849                 9.7421

                     40                     41                     42
                      A                      A                      A
 Frequencies --   1028.4174              1030.8254              1064.1287
 Red. masses --      2.1913                 1.4205                 2.0233
 Frc consts  --      1.3655                 0.8893                 1.3499
 IR Inten    --     46.5458                 4.9524                 9.3416

                     43                     44                     45
                      A                      A                      A
 Frequencies --   1069.4581              1086.1550              1097.5129
 Red. masses --      1.6079                 1.3685                 2.7510
 Frc consts  --      1.0835                 0.9512                 1.9523
 IR Inten    --     30.8894                16.0914                93.5784

                     46                     47                     48
                      A                      A                      A
 Frequencies --   1119.9479              1130.0397              1133.5119
 Red. masses --      1.5730                 1.1734                 1.2048
 Frc consts  --      1.1625                 0.8828                 0.9121
 IR Inten    --      5.0014               126.8033                34.7019

                     49                     50                     51
                      A                      A                      A
 Frequencies --   1167.9981              1182.1193              1184.3863
 Red. masses --      1.4607                 1.9813                 1.1860
 Frc consts  --      1.1740                 1.6313                 0.9802
 IR Inten    --      0.7759                83.9753                 9.2330

                     52                     53                     54
                      A                      A                      A
 Frequencies --   1212.8583              1217.4839              1225.2926
 Red. masses --      1.2519                 1.2689                 2.2895
 Frc consts  --      1.0851                 1.1082                 2.0252
 IR Inten    --     30.0867                37.3256                53.8238

                     55                     56                     57
                      A                      A                      A
 Frequencies --   1301.9719              1321.7795              1345.4471
 Red. masses --      3.1542                 4.3633                 2.9081
 Frc consts  --      3.1502                 4.4914                 3.1017
 IR Inten    --     84.9976                66.4108               144.2447

                     58                     59                     60
                      A                      A                      A
 Frequencies --   1355.7998              1366.5441              1424.7300
 Red. masses --      1.3094                 1.4079                 2.3390
 Frc consts  --      1.4181                 1.5491                 2.7973
 IR Inten    --      8.3431                30.1898               730.0128

                     61                     62                     63
                      A                      A                      A
 Frequencies --   1442.4298              1446.1893              1464.5535
 Red. masses --      1.2607                 1.7039                 1.3405
 Frc consts  --      1.5455                 2.0996                 1.6941
 IR Inten    --     19.7521                 6.2877                27.4541

                     64                     65                     66
                      A                      A                      A
 Frequencies --   1472.7851              1483.5830              1485.2532
 Red. masses --      1.2740                 1.0791                 1.0662
 Frc consts  --      1.6281                 1.3993                 1.3858
 IR Inten    --     68.0439                 1.9863                33.7897

                     67                     68                     69
                      A                      A                      A
 Frequencies --   1492.4019              1501.1012              1502.2235
 Red. masses --      1.0410                 1.1517                 1.7773
 Frc consts  --      1.3661                 1.5290                 2.3631
 IR Inten    --     15.5297                 9.6213                94.2257

                     70                     71                     72
                      A                      A                      A
 Frequencies --   1507.3716              1533.3542              1547.6605
 Red. masses --      1.0660                 1.7235                 2.3524
 Frc consts  --      1.4271                 2.3875                 3.3199
 IR Inten    --      3.6649               189.7374                17.7048

                     73                     74                     75
                      A                      A                      A
 Frequencies --   1600.9592              1645.8276              1654.7648
 Red. masses --      3.4786                 1.2393                 5.6531
 Frc consts  --      5.2531                 1.9779                 9.1204
 IR Inten    --    705.9095                20.4300                 3.3167

                     76                     77                     78
                      A                      A                      A
 Frequencies --   1676.4758              3026.7312              3037.8018
 Red. masses --      5.8407                 1.0461                 1.0385
 Frc consts  --      9.6719                 5.6464                 5.6465
 IR Inten    --      1.8996                92.5528               118.9322

                     79                     80                     81
                      A                      A                      A
 Frequencies --   3063.8751              3092.2658              3102.4371
 Red. masses --      1.0345                 1.1020                 1.0949
 Frc consts  --      5.7215                 6.2086                 6.2092
 IR Inten    --     56.0053                72.7153                23.8620

                     82                     83                     84
                      A                      A                      A
 Frequencies --   3139.9969              3163.7315              3169.0377
 Red. masses --      1.1038                 1.1047                 1.0891
 Frc consts  --      6.4124                 6.5145                 6.4444
 IR Inten    --     20.4508                17.5274                 4.5736

                     85                     86                     87
                      A                      A                      A
 Frequencies --   3170.9510              3171.1818              3183.6095
 Red. masses --      1.0993                 1.0993                 1.0887
 Frc consts  --      6.5125                 6.5135                 6.5011
 IR Inten    --     10.9995                13.1975                11.9331

                     88                     89                     90
                      A                      A                      A
 Frequencies --   3197.9632              3208.2825              3220.1463
 Red. masses --      1.0874                 1.0923                 1.0971
 Frc consts  --      6.5520                 6.6243                 6.7029
 IR Inten    --      0.4349                24.7807                26.7603

                     91                     92                     93
                      A                      A                      A
 Frequencies --   3234.9377              3433.3890              3591.5153
 Red. masses --      1.0932                 1.0613                 1.0875
 Frc consts  --      6.7406                 7.3708                 8.2649
 IR Inten    --      8.5747               102.1220                81.8973

 - Thermochemistry -
 -------------------
 Temperature   298.150 Kelvin.  Pressure   1.00000 Atm.
 Atom     1 has atomic number  6 and mass  12.00000

 Molecular mass:   240.10294 amu.
 Principal axes and moments of inertia in atomic units:
                           1         2         3
     Eigenvalues --  2744.443905436.389276503.07873
           X            0.99937   0.03454  -0.00803
           Y           -0.03413   0.99832   0.04692
           Z            0.00964  -0.04662   0.99887
 This molecule is an asymmetric top.
 Rotational symmetry number  1.
 Warning -- assumption of classical behavior for rotation
           may cause significant error
 Rotational temperatures (Kelvin)      0.03156     0.01593     0.01332
 Rotational constants (GHZ):           0.65760     0.33197     0.27752
    1 imaginary frequencies ignored.
 Zero-point vibrational energy     726239.7 (Joules/Mol)
                                  173.57544 (Kcal/Mol)
 Warning -- explicit consideration of  24 degrees of freedom as
           vibrations may cause significant error
 Vibrational temperatures:     55.52    64.55    90.61   105.82   150.64
          (Kelvin)            154.09   183.19   213.98   235.91   241.29
                              297.89   312.96   323.98   337.56   369.50
                              398.67   448.40   495.63   573.21   607.99
                              635.01   725.75   776.14   859.50   898.83
                              919.61   982.85  1041.57  1069.21  1132.23
                             1138.15  1225.24  1263.24  1346.65  1389.50
                             1442.18  1462.66  1477.34  1479.66  1483.13
                             1531.04  1538.71  1562.73  1579.08  1611.36
                             1625.88  1630.87  1680.49  1700.81  1704.07
                             1745.03  1751.69  1762.92  1873.25  1901.75
                             1935.80  1950.69  1966.15  2049.87  2075.33
                             2080.74  2107.17  2119.01  2134.55  2136.95
                             2147.23  2159.75  2161.36  2168.77  2206.15
                             2226.74  2303.42  2367.98  2380.84  2412.07
                             4354.79  4370.72  4408.23  4449.08  4463.72
                             4517.76  4551.90  4559.54  4562.29  4562.62
                             4580.50  4601.16  4616.00  4633.07  4654.35
                             4939.88  5167.39

 Zero-point correction=                           0.276610 (Hartree/Particle)
 Thermal correction to Energy=                    0.293570
 Thermal correction to Enthalpy=                  0.294514
 Thermal correction to Gibbs Free Energy=         0.231143
 Sum of electronic and zero-point Energies=          -1112.166145
 Sum of electronic and thermal Energies=             -1112.149185
 Sum of electronic and thermal Enthalpies=           -1112.148241
 Sum of electronic and thermal Free Energies=        -1112.211612

                     E (Thermal)             CV                S
                      KCal/Mol        Cal/Mol-Kelvin    Cal/Mol-Kelvin
 Total                  184.218             61.482            133.374
 Electronic               0.000              0.000              0.000
 Translational            0.889              2.981             42.329
 Rotational               0.889              2.981             32.939
 Vibrational            182.440             55.520             58.106
 Vibration     1          0.594              1.981              5.330
 Vibration     2          0.595              1.979              5.032
 Vibration     3          0.597              1.972              4.362
 Vibration     4          0.599              1.966              4.056
 Vibration     5          0.605              1.945              3.365
 Vibration     6          0.606              1.944              3.321
 Vibration     7          0.611              1.926              2.986
 Vibration     8          0.618              1.904              2.688
 Vibration     9          0.623              1.887              2.504
 Vibration    10          0.624              1.882              2.461
 Vibration    11          0.641              1.830              2.070
 Vibration    12          0.646              1.814              1.980
 Vibration    13          0.650              1.803              1.917
 Vibration    14          0.654              1.788              1.843
 Vibration    15          0.666              1.751              1.683
 Vibration    16          0.678              1.716              1.552
 Vibration    17          0.700              1.651              1.354
 Vibration    18          0.723              1.586              1.191
 Vibration    19          0.765              1.474              0.969
 Vibration    20          0.785              1.421              0.883
 Vibration    21          0.801              1.380              0.822
 Vibration    22          0.860              1.240              0.647
 Vibration    23          0.894              1.163              0.566
 Vibration    24          0.955              1.037              0.454

 Optimization completed.
    -- Stationary point found.
 Normal termination of Gaussian 16 at Thu Feb 11 10:32:10 2021.
