 Gaussian 16, Revision A.03,
 Gaussian 16:  ES64L-G16RevA.03 25-Dec-2016

 ----------------------------------------------------------------------
 # wB97XD def2tzvp, opt=(ts, noeigen, calcfc, maxcycles=70, maxstep=5),
  freq=noraman, scrf=(iefpcm, solvent=water)
 ----------------------------------------------------------------------

 ------------------------
 2_iteration/TS-248-2.out
 ------------------------
 Symbolic Z-matrix:
 Charge =  0 Multiplicity = 1

 SCF Done:  E(RwB97XD) =  -749.901576528     A.U. after   15 cycles
 SCF Done:  E(RwB97XD) =  -749.901576825     A.U. after    9 cycles
 Optimization completed.
    -- Stationary point found.
 Normal termination of Gaussian 16 at Thu Feb 11 09:56:19 2021.

 ---------------------------------------------------------------------
 #N Geom=AllCheck Guess=TCheck SCRF=Check GenChk RwB97XD/def2TZVP Freq
 ---------------------------------------------------------------------

 Structure from the checkpoint file:  "/beegfs/scratch/user/q/tla25/Gau-101969.chk"
 ------------------------
 2_iteration/TS-248-2.out
 ------------------------
 Charge =  0 Multiplicity = 1

                         Standard orientation:
 ---------------------------------------------------------------------
 Center     Atomic      Atomic             Coordinates (Angstroms)
 Number     Number       Type             X           Y           Z
 ---------------------------------------------------------------------
      1          6           0        0.901860   -0.652287   -0.687937
      2          6           0       -0.275758   -1.451062   -0.462002
      3          8           0       -0.249886   -2.688972   -0.479328
      4          6           0        1.994416   -1.313826   -1.223550
      5          6           0        2.936270   -1.625288    1.482357
      6          1           0        3.300420   -2.231796    2.313311
      7          1           0        3.526746   -0.712691    1.417614
      8          1           0        1.899181   -1.348482    1.673775
      9          7           0        2.999076   -2.329383    0.211322
     10          1           0        3.949338   -2.506587   -0.087461
     11          1           0        2.502337   -3.209920    0.250971
     12          1           0        2.862660   -0.743494   -1.526357
     13          1           0        1.827024   -2.231409   -1.769824
     14          6           0        1.018233    0.762935   -0.264113
     15          6           0        0.530941    1.203114    0.970224
     16          6           0        0.654146    2.525241    1.365822
     17          6           0        1.285652    3.447526    0.542350
     18          6           0        1.786646    3.028395   -0.681826
     19          6           0        1.647626    1.707101   -1.079637
     20          1           0        0.049365    0.494925    1.633725
     21          1           0        0.264291    2.834613    2.328005
     22          1           0        1.386387    4.480156    0.851698
     23          1           0        2.277645    3.736434   -1.338412
     24          1           0        2.019739    1.404123   -2.051426
     25          6           0       -1.605502   -0.785546   -0.233612
     26          6           0       -2.007290    0.317480   -0.981277
     27          6           0       -3.261251    0.876702   -0.790030
     28          6           0       -4.119045    0.350786    0.166519
     29          6           0       -3.724494   -0.748113    0.917752
     30          6           0       -2.479065   -1.319803    0.708226
     31          1           0       -1.336053    0.737108   -1.719975
     32          1           0       -3.568670    1.726799   -1.386049
     33          1           0       -5.094100    0.794553    0.323940
     34          1           0       -4.390299   -1.161835    1.664789
     35          1           0       -2.170752   -2.185166    1.281452
 ---------------------------------------------------------------------

 SCF Done:  E(RwB97XD) =  -749.901576825     A.U. after    1 cycles

 The electronic state is 1-A.
 Alpha  occ. eigenvalues --  -19.21118 -14.46389 -10.35577 -10.31943 -10.30905
 Alpha  occ. eigenvalues --  -10.29650 -10.29414 -10.29141 -10.29112 -10.29040
 Alpha  occ. eigenvalues --  -10.28987 -10.28976 -10.28561 -10.28530 -10.28290
 Alpha  occ. eigenvalues --  -10.28197 -10.28161 -10.26304  -1.11728  -1.01925
 Alpha  occ. eigenvalues --   -0.96750  -0.96149  -0.89782  -0.86008  -0.85119
 Alpha  occ. eigenvalues --   -0.84482  -0.82841  -0.77979  -0.75182  -0.70856
 Alpha  occ. eigenvalues --   -0.70235  -0.69753  -0.67886  -0.63255  -0.62255
 Alpha  occ. eigenvalues --   -0.61401  -0.58184  -0.56793  -0.55750  -0.54836
 Alpha  occ. eigenvalues --   -0.54508  -0.53250  -0.52763  -0.51966  -0.51514
 Alpha  occ. eigenvalues --   -0.50984  -0.50255  -0.49646  -0.47743  -0.47111
 Alpha  occ. eigenvalues --   -0.46683  -0.45985  -0.45100  -0.43853  -0.42567
 Alpha  occ. eigenvalues --   -0.42191  -0.42073  -0.40600  -0.35116  -0.34184
 Alpha  occ. eigenvalues --   -0.33729  -0.32906  -0.31909  -0.26731
 Alpha virt. eigenvalues --    0.01848   0.04467   0.05343   0.06065   0.07601
 Alpha virt. eigenvalues --    0.10781   0.12937   0.13678   0.14163   0.14714
 Alpha virt. eigenvalues --    0.15758   0.16063   0.16913   0.17102   0.17789

 Mulliken charges:
               1
     1  C   -0.141363
     2  C    0.250229
     3  O   -0.497416
     4  C   -0.181505
     5  C   -0.268180
     6  H    0.146997
     7  H    0.143941
     8  H    0.140437
     9  N   -0.374047
    10  H    0.275426
    11  H    0.272217
    12  H    0.163582
    13  H    0.168116
    14  C    0.179976
    15  C   -0.266406
    16  C   -0.151468
    17  C   -0.155671
    18  C   -0.150483
    19  C   -0.265672
    20  H    0.157146
    21  H    0.136109
    22  H    0.139414
    23  H    0.136798
    24  H    0.144245
    25  C    0.148082
    26  C   -0.207544
    27  C   -0.161843
    28  C   -0.129892
    29  C   -0.147914
    30  C   -0.228351
    31  H    0.159906
    32  H    0.141155
    33  H    0.144803
    34  H    0.141788
    35  H    0.137388
 Sum of Mulliken charges =  -0.00000

 Dipole moment (field-independent basis, Debye):
    X=              6.0336    Y=              0.1624    Z=              1.5880  Tot=              6.2411
 Quadrupole moment (field-independent basis, Debye-Ang):
   XX=            -81.0419   YY=           -105.5290   ZZ=           -101.1803
   XY=            -18.1745   XZ=             -4.6736   YZ=             -6.6078

  Exact polarizability: 307.111 -14.987 305.909 -29.921 -13.090 236.913
 Approx polarizability: 230.015  -8.201 245.663 -26.525 -12.231 205.629

 ******    1 imaginary frequencies (negative Signs) ******

                      1                      2                      3
                      A                      A                      A
 Frequencies --   -350.8306                35.6296                42.0940
 Red. masses --      5.7109                 3.6428                 4.5147
 Frc consts  --      0.4141                 0.0027                 0.0047
 IR Inten    --    925.6307                 3.1148                 1.0658

                      4                      5                      6
                      A                      A                      A
 Frequencies --     52.0289                55.2230                63.3028
 Red. masses --      3.6833                 3.8777                 2.5469
 Frc consts  --      0.0059                 0.0070                 0.0060
 IR Inten    --      3.8235                 3.9527                15.1076

                      7                      8                      9
                      A                      A                      A
 Frequencies --     76.1025               106.3627               143.1796
 Red. masses --      3.2669                 4.7832                 3.7107
 Frc consts  --      0.0111                 0.0319                 0.0448
 IR Inten    --      3.1336                16.5653                 1.8018

                     10                     11                     12
                      A                      A                      A
 Frequencies --    178.5497               183.3443               221.2321
 Red. masses --      3.7744                 1.3169                 3.6594
 Frc consts  --      0.0709                 0.0261                 0.1055
 IR Inten    --     23.0324                 0.6881                 5.2485

                     13                     14                     15
                      A                      A                      A
 Frequencies --    259.1021               294.4932               312.8461
 Red. masses --      4.1732                 3.6512                 3.6602
 Frc consts  --      0.1651                 0.1866                 0.2111
 IR Inten    --      2.5015                19.1464                 4.8671

                     16                     17                     18
                      A                      A                      A
 Frequencies --    386.9492               409.0417               420.6818
 Red. masses --      3.9352                 4.5993                 2.9358
 Frc consts  --      0.3472                 0.4534                 0.3061
 IR Inten    --      6.2933                 3.4109                 0.8817

                     19                     20                     21
                      A                      A                      A
 Frequencies --    427.5510               455.5511               499.3036
 Red. masses --      2.9947                 3.5214                 4.0484
 Frc consts  --      0.3225                 0.4306                 0.5946
 IR Inten    --      1.1926                 2.7046                50.7064

                     22                     23                     24
                      A                      A                      A
 Frequencies --    532.8603               575.4021               629.1838
 Red. masses --      3.4017                 1.7972                 2.7038
 Frc consts  --      0.5691                 0.3506                 0.6306
 IR Inten    --      2.5825                14.7221                92.7360

                     25                     26                     27
                      A                      A                      A
 Frequencies --    635.6116               638.3601               665.8834
 Red. masses --      6.1596                 6.3328                 5.0053
 Frc consts  --      1.4662                 1.5205                 1.3076
 IR Inten    --      3.2203                 0.8143                 5.5124

                     28                     29                     30
                      A                      A                      A
 Frequencies --    721.7404               726.1965               729.2460
 Red. masses --      2.6472                 2.4001                 1.5626
 Frc consts  --      0.8125                 0.7457                 0.4896
 IR Inten    --     30.9193                48.1489                92.5131

                     31                     32                     33
                      A                      A                      A
 Frequencies --    756.3736               798.9417               832.8386
 Red. masses --      2.8961                 2.1882                 3.2285
 Frc consts  --      0.9762                 0.8230                 1.3194
 IR Inten    --     53.1669                44.2921                38.4399

                     34                     35                     36
                      A                      A                      A
 Frequencies --    839.7031               877.2400               880.6994
 Red. masses --      2.3598                 1.2472                 1.2495
 Frc consts  --      0.9804                 0.5655                 0.5710
 IR Inten    --      2.3757                 1.1922                 0.5273

                     37                     38                     39
                      A                      A                      A
 Frequencies --    949.0819               955.8876               965.6640
 Red. masses --      1.4595                 1.2397                 1.4535
 Frc consts  --      0.7746                 0.6674                 0.7986
 IR Inten    --      2.7773               147.0676                16.4852

                     40                     41                     42
                      A                      A                      A
 Frequencies --    981.1029              1010.2627              1015.4366
 Red. masses --      1.3831                 1.3717                 1.3847
 Frc consts  --      0.7844                 0.8249                 0.8412
 IR Inten    --     12.0292                 2.0527                 0.9087

                     43                     44                     45
                      A                      A                      A
 Frequencies --   1016.3852              1022.3575              1023.9260
 Red. masses --      1.3345                 1.4113                 4.2454
 Frc consts  --      0.8122                 0.8691                 2.6224
 IR Inten    --     46.5629                 0.4964                 1.9034

                     46                     47                     48
                      A                      A                      A
 Frequencies --   1026.3097              1031.5809              1054.1603
 Red. masses --      5.5823                 1.3289                 2.6099
 Frc consts  --      3.4643                 0.8332                 1.7088
 IR Inten    --      1.0020                 0.6020                16.1218

                     49                     50                     51
                      A                      A                      A
 Frequencies --   1062.4222              1068.9292              1080.2142
 Red. masses --      2.1553                 2.6449                 1.6257
 Frc consts  --      1.4334                 1.7805                 1.1177
 IR Inten    --     11.7524                94.6364                65.4462

                     52                     53                     54
                      A                      A                      A
 Frequencies --   1112.3445              1114.3287              1142.1267
 Red. masses --      1.5836                 1.5878                 1.8730
 Frc consts  --      1.1544                 1.1616                 1.4395
 IR Inten    --      1.5330                21.1563                53.0822

                     55                     56                     57
                      A                      A                      A
 Frequencies --   1167.2739              1181.1650              1183.3633
 Red. masses --      1.3899                 1.1268                 1.1355
 Frc consts  --      1.1158                 0.9263                 0.9369
 IR Inten    --    116.3216                 0.3487                 0.3465

                     58                     59                     60
                      A                      A                      A
 Frequencies --   1194.2238              1206.4375              1214.1888
 Red. masses --      1.3890                 1.1251                 1.1244
 Frc consts  --      1.1671                 0.9648                 0.9767
 IR Inten    --     24.1316                 3.8962                 3.3815

                     61                     62                     63
                      A                      A                      A
 Frequencies --   1250.3586              1308.0571              1326.9304
 Red. masses --      3.4418                 4.2630                 4.2609
 Frc consts  --      3.1703                 4.2976                 4.4203
 IR Inten    --     10.7842                74.7368                 8.2788

                     64                     65                     66
                      A                      A                      A
 Frequencies --   1347.2005              1357.9698              1360.6664
 Red. masses --      1.3407                 1.6002                 1.5743
 Frc consts  --      1.4337                 1.7387                 1.7173
 IR Inten    --      1.6745                29.9480                69.1259

                     67                     68                     69
                      A                      A                      A
 Frequencies --   1385.9893              1392.4559              1456.6919
 Red. masses --      2.2951                 2.8330                 1.1826
 Frc consts  --      2.5976                 3.2363                 1.4785
 IR Inten    --    100.9951               583.2118                 8.2653

                     70                     71                     72
                      A                      A                      A
 Frequencies --   1486.9844              1489.2647              1489.6341
 Red. masses --      1.9088                 1.1579                 1.9363
 Frc consts  --      2.4867                 1.5131                 2.5316
 IR Inten    --     24.1370                16.5920                11.0288

                     73                     74                     75
                      A                      A                      A
 Frequencies --   1502.8294              1507.4076              1540.8087
 Red. masses --      1.0559                 2.0792                 2.3098
 Frc consts  --      1.4051                 2.7836                 3.2309
 IR Inten    --     48.9720               278.9479                 3.3993

                     76                     77                     78
                      A                      A                      A
 Frequencies --   1546.0600              1630.7905              1643.6466
 Red. masses --      2.4402                 5.4532                 1.9637
 Frc consts  --      3.4366                 8.5448                 3.1257
 IR Inten    --     45.0301               482.4797                83.1006

                     79                     80                     81
                      A                      A                      A
 Frequencies --   1645.9784              1658.2218              1672.3966
 Red. masses --      1.9123                 6.0189                 5.8777
 Frc consts  --      3.0525                 9.7510                 9.6858
 IR Inten    --      6.7812               170.7964                 4.4147

                     82                     83                     84
                      A                      A                      A
 Frequencies --   1674.4288              3057.4627              3131.1629
 Red. masses --      5.9619                 1.0344                 1.1030
 Frc consts  --      9.8485                 5.6972                 6.3711
 IR Inten    --     10.2281                47.6877                19.8331

                     85                     86                     87
                      A                      A                      A
 Frequencies --   3153.8244              3170.9243              3185.5532
 Red. masses --      1.1047                 1.0592                 1.0857
 Frc consts  --      6.4741                 6.2745                 6.4912
 IR Inten    --     23.3753                34.0228                13.1890

                     88                     89                     90
                      A                      A                      A
 Frequencies --   3189.0069              3193.2504              3199.6139
 Red. masses --      1.0875                 1.0857                 1.0910
 Frc consts  --      6.5162                 6.5225                 6.5806
 IR Inten    --      1.7778                 0.8793                13.2188

                     91                     92                     93
                      A                      A                      A
 Frequencies --   3200.0098              3205.3437              3207.6765
 Red. masses --      1.0882                 1.0949                 1.0917
 Frc consts  --      6.5654                 6.6280                 6.6180
 IR Inten    --      1.4728                52.1088                13.0228

                     94                     95                     96
                      A                      A                      A
 Frequencies --   3214.1545              3218.2816              3221.7765
 Red. masses --      1.0951                 1.0986                 1.0988
 Frc consts  --      6.6657                 6.7041                 6.7201
 IR Inten    --     38.2745                20.3514                18.6460

                     97                     98                     99
                      A                      A                      A
 Frequencies --   3261.0558              3542.9930              3629.9751
 Red. masses --      1.1175                 1.0497                 1.0967
 Frc consts  --      7.0020                 7.7638                 8.5141
 IR Inten    --      4.4544                38.2366                41.7112

 - Thermochemistry -
 -------------------
 Temperature   298.150 Kelvin.  Pressure   1.00000 Atm.
 Atom     1 has atomic number  6 and mass  12.00000

 Molecular mass:   239.13101 amu.
 Principal axes and moments of inertia in atomic units:
                           1         2         3
     Eigenvalues --  3515.258554926.665577080.06023
           X            0.99879  -0.04924  -0.00089
           Y            0.04922   0.99869  -0.01430
           Z            0.00159   0.01424   0.99990
 This molecule is an asymmetric top.
 Rotational symmetry number  1.
 Warning -- assumption of classical behavior for rotation
           may cause significant error
 Rotational temperatures (Kelvin)      0.02464     0.01758     0.01223
 Rotational constants (GHZ):           0.51340     0.36632     0.25490
    1 imaginary frequencies ignored.
 Zero-point vibrational energy     770986.4 (Joules/Mol)
                                  184.27017 (Kcal/Mol)
 Warning -- explicit consideration of  22 degrees of freedom as
           vibrations may cause significant error
 Vibrational temperatures:     51.26    60.56    74.86    79.45    91.08
          (Kelvin)            109.49   153.03   206.00   256.89   263.79
                              318.30   372.79   423.71   450.12   556.73
                              588.52   605.27   615.15   655.44   718.39
                              766.67   827.88   905.26   914.50   918.46
                              958.06  1038.42  1044.83  1049.22  1088.25
                             1149.50  1198.27  1208.15  1262.15  1267.13
                             1365.52  1375.31  1389.38  1411.59  1453.54
                             1460.99  1462.35  1470.94  1473.20  1476.63
                             1484.21  1516.70  1528.59  1537.95  1554.19
                             1600.42  1603.27  1643.27  1679.45  1699.43
                             1702.60  1718.22  1735.79  1746.95  1798.99
                             1882.00  1909.16  1938.32  1953.82  1957.70
                             1994.13  2003.43  2095.85  2139.44  2142.72
                             2143.25  2162.24  2168.82  2216.88  2224.44
                             2346.34  2364.84  2368.20  2385.81  2406.21
                             2409.13  4399.01  4505.05  4537.65  4562.25
                             4583.30  4588.27  4594.38  4603.53  4604.10
                             4611.77  4615.13  4624.45  4630.39  4635.42
                             4691.93  5097.58  5222.72

 Zero-point correction=                           0.293653 (Hartree/Particle)
 Thermal correction to Energy=                    0.310007
 Thermal correction to Enthalpy=                  0.310951
 Thermal correction to Gibbs Free Energy=         0.247881
 Sum of electronic and zero-point Energies=           -749.607924
 Sum of electronic and thermal Energies=              -749.591570
 Sum of electronic and thermal Enthalpies=            -749.590626
 Sum of electronic and thermal Free Energies=         -749.653695

                     E (Thermal)             CV                S
                      KCal/Mol        Cal/Mol-Kelvin    Cal/Mol-Kelvin
 Total                  194.532             62.028            132.741
 Electronic               0.000              0.000              0.000
 Translational            0.889              2.981             42.317
 Rotational               0.889              2.981             33.172
 Vibrational            192.755             56.067             57.253
 Vibration     1          0.594              1.982              5.488
 Vibration     2          0.595              1.980              5.158
 Vibration     3          0.596              1.977              4.739
 Vibration     4          0.596              1.975              4.621
 Vibration     5          0.597              1.972              4.351
 Vibration     6          0.599              1.965              3.989
 Vibration     7          0.605              1.944              3.334
 Vibration     8          0.616              1.910              2.761
 Vibration     9          0.629              1.869              2.344
 Vibration    10          0.631              1.862              2.294
 Vibration    11          0.648              1.809              1.949
 Vibration    12          0.668              1.747              1.668
 Vibration    13          0.689              1.684              1.448
 Vibration    14          0.701              1.649              1.347
 Vibration    15          0.755              1.498              1.012
 Vibration    16          0.773              1.451              0.930
 Vibration    17          0.783              1.425              0.890
 Vibration    18          0.789              1.410              0.867
 Vibration    19          0.814              1.349              0.779
 Vibration    20          0.855              1.252              0.660
 Vibration    21          0.888              1.177              0.581
 Vibration    22          0.932              1.084              0.494

 Optimization completed.
    -- Stationary point found.
 Normal termination of Gaussian 16 at Thu Feb 11 11:44:03 2021.
