 Gaussian 16, Revision A.03,
 Gaussian 16:  ES64L-G16RevA.03 25-Dec-2016

 ----------------------------------------------------------------------
 # wB97XD def2tzvp, opt=(ts, noeigen, calcfc, maxcycles=70, maxstep=8),
  freq=noraman, scrf=(iefpcm, solvent=water)
 ----------------------------------------------------------------------

 ------------------------
 1_iteration/TS-274-1.out
 ------------------------
 Symbolic Z-matrix:
 Charge =  0 Multiplicity = 1

 SCF Done:  E(RwB97XD) =  -786.721027820     A.U. after   14 cycles
 SCF Done:  E(RwB97XD) =  -786.721411844     A.U. after   14 cycles
 SCF Done:  E(RwB97XD) =  -786.721630904     A.U. after   12 cycles
 SCF Done:  E(RwB97XD) =  -786.721636165     A.U. after   11 cycles
 SCF Done:  E(RwB97XD) =  -786.721636749     A.U. after   10 cycles
 SCF Done:  E(RwB97XD) =  -786.721636906     A.U. after    8 cycles
 Optimization completed.
    -- Stationary point found.
 Normal termination of Gaussian 16 at Wed Feb 10 17:32:44 2021.

 ---------------------------------------------------------------------
 #N Geom=AllCheck Guess=TCheck SCRF=Check GenChk RwB97XD/def2TZVP Freq
 ---------------------------------------------------------------------

 Structure from the checkpoint file:  "/beegfs/scratch/user/q/tla25/Gau-20277.chk"
 ------------------------
 1_iteration/TS-274-1.out
 ------------------------
 Charge =  0 Multiplicity = 1

                         Standard orientation:
 ---------------------------------------------------------------------
 Center     Atomic      Atomic             Coordinates (Angstroms)
 Number     Number       Type             X           Y           Z
 ---------------------------------------------------------------------
      1          6           0        0.456348    0.183151    0.376542
      2          6           0        1.253956   -0.972078    0.065015
      3          8           0        0.799325   -2.110769    0.205322
      4          6           0       -0.822375    0.083067    0.862533
      5          6           0       -3.561545   -0.194592   -0.116468
      6          1           0       -4.287427   -0.296473   -0.925261
      7          1           0       -3.631283   -1.068372    0.530436
      8          1           0       -3.809769    0.689842    0.469129
      9          7           0       -2.193235   -0.073051   -0.605489
     10          1           0       -1.900143   -0.886655   -1.130843
     11          1           0       -2.067005    0.742871   -1.190536
     12          1           0       -1.312619    0.951057    1.281357
     13          1           0       -1.107229   -0.872783    1.281327
     14         17           0        1.062397    1.789255   -0.033136
     15          6           0        2.667246   -0.781407   -0.432328
     16          1           0        3.237712   -0.133267    0.234480
     17          1           0        3.152136   -1.752066   -0.508674
     18          1           0        2.661144   -0.302820   -1.414023
 ---------------------------------------------------------------------

 SCF Done:  E(RwB97XD) =  -786.721636906     A.U. after    1 cycles

 The electronic state is 1-A.
 Alpha  occ. eigenvalues -- -101.68627 -19.21252 -14.46744 -10.36189 -10.32815
 Alpha  occ. eigenvalues --  -10.31407 -10.30812 -10.27387  -9.57169  -7.31781
 Alpha  occ. eigenvalues --   -7.30967  -7.30953  -1.12054  -1.02294  -0.96048
 Alpha  occ. eigenvalues --   -0.84767  -0.83467  -0.78136  -0.72118  -0.62381
 Alpha  occ. eigenvalues --   -0.60241  -0.56822  -0.55817  -0.53851  -0.53084
 Alpha  occ. eigenvalues --   -0.51614  -0.49710  -0.47521  -0.47278  -0.45761
 Alpha  occ. eigenvalues --   -0.45439  -0.42472  -0.40183  -0.39693  -0.32849
 Alpha  occ. eigenvalues --   -0.27575
 Alpha virt. eigenvalues --    0.03680   0.10429   0.11525   0.13237   0.14588
 Alpha virt. eigenvalues --    0.15300   0.16303   0.17423   0.18843   0.19382
 Alpha virt. eigenvalues --    0.20562   0.21539   0.22101   0.22907   0.23790

 Mulliken charges:
               1
     1  C   -0.101711
     2  C    0.257428
     3  O   -0.507721
     4  C   -0.180589
     5  C   -0.262762
     6  H    0.144709
     7  H    0.145809
     8  H    0.145984
     9  N   -0.389450
    10  H    0.277775
    11  H    0.276107
    12  H    0.175805
    13  H    0.166384
    14  Cl  -0.183271
    15  C   -0.371500
    16  H    0.140295
    17  H    0.125210
    18  H    0.141499
 Sum of Mulliken charges =  -0.00000

 Dipole moment (field-independent basis, Debye):
    X=             -6.4853    Y=              2.0992    Z=             -1.8885  Tot=              7.0733
 Quadrupole moment (field-independent basis, Debye-Ang):
   XX=            -40.1918   YY=            -67.9429   ZZ=            -53.4274
   XY=              0.6415   XZ=              1.0967   YZ=              1.2328

  Exact polarizability: 161.823  -3.840 122.491  -1.430  -1.682  90.028
 Approx polarizability: 114.190   0.134 105.074  -0.986  -1.949  79.927

 ******    1 imaginary frequencies (negative Signs) ******

                      1                      2                      3
                      A                      A                      A
 Frequencies --   -325.7794                33.4759                69.5431
 Red. masses --      6.1472                 2.6416                 3.3738
 Frc consts  --      0.3844                 0.0017                 0.0096
 IR Inten    --    865.5983                 0.5931                 6.7165

                      4                      5                      6
                      A                      A                      A
 Frequencies --     83.0409               124.6727               139.7453
 Red. masses --      2.3835                 3.1145                 1.1350
 Frc consts  --      0.0097                 0.0285                 0.0131
 IR Inten    --     10.5012                18.7272                 3.2809

                      7                      8                      9
                      A                      A                      A
 Frequencies --    171.0242               187.3791               238.6344
 Red. masses --      1.2668                 3.6182                 4.6521
 Frc consts  --      0.0218                 0.0748                 0.1561
 IR Inten    --      5.0576                26.9633                 6.0041

                     10                     11                     12
                      A                      A                      A
 Frequencies --    358.8087               399.3357               459.5329
 Red. masses --      2.4419                 4.0508                 7.9681
 Frc consts  --      0.1852                 0.3806                 0.9914
 IR Inten    --      4.5149               117.0054                19.9525

                     13                     14                     15
                      A                      A                      A
 Frequencies --    514.2522               577.0939               620.8263
 Red. masses --      3.9064                 1.1357                 2.8207
 Frc consts  --      0.6087                 0.2228                 0.6405
 IR Inten    --     10.2664                26.8375                45.8844

                     16                     17                     18
                      A                      A                      A
 Frequencies --    677.4088               836.8322               972.1278
 Red. masses --      4.3651                 2.1286                 1.3390
 Frc consts  --      1.1802                 0.8783                 0.7456
 IR Inten    --     34.1095                 8.0738                87.5798

                     19                     20                     21
                      A                      A                      A
 Frequencies --    978.7241               993.7904              1027.4802
 Red. masses --      1.1487                 1.4019                 1.2936
 Frc consts  --      0.6483                 0.8157                 0.8046
 IR Inten    --    107.3825                42.9954                13.5993

                     22                     23                     24
                      A                      A                      A
 Frequencies --   1046.8537              1075.5075              1148.3262
 Red. masses --      1.8116                 4.0275                 1.5676
 Frc consts  --      1.1697                 2.7448                 1.2179
 IR Inten    --     11.6833               173.9522               115.5836

                     25                     26                     27
                      A                      A                      A
 Frequencies --   1148.6457              1197.5596              1276.0903
 Red. masses --      1.1771                 1.4318                 2.7350
 Frc consts  --      0.9150                 1.2098                 2.6240
 IR Inten    --    142.4032                12.3632                23.5572

                     28                     29                     30
                      A                      A                      A
 Frequencies --   1341.5334              1370.0422              1405.3123
 Red. masses --      1.3402                 1.4759                 1.8256
 Frc consts  --      1.4211                 1.6322                 2.1242
 IR Inten    --      0.9429               224.0578               432.0884

                     31                     32                     33
                      A                      A                      A
 Frequencies --   1454.2691              1461.6266              1466.4887
 Red. masses --      1.0880                 1.1899                 1.0489
 Frc consts  --      1.3557                 1.4977                 1.3290
 IR Inten    --     60.5065                36.2967                13.7270

                     34                     35                     36
                      A                      A                      A
 Frequencies --   1491.1515              1501.3598              1508.0974
 Red. masses --      1.0521                 2.1251                 1.0324
 Frc consts  --      1.3784                 2.8222                 1.3834
 IR Inten    --     17.9112               496.0916                11.4686

                     37                     38                     39
                      A                      A                      A
 Frequencies --   1648.5982              1669.1386              3057.5825
 Red. masses --      1.0979                 8.1014                 1.0349
 Frc consts  --      1.7581                13.2982                 5.7007
 IR Inten    --     44.2108               336.9269                72.1866

                     40                     41                     42
                      A                      A                      A
 Frequencies --   3061.2933              3130.6505              3131.6862
 Red. masses --      1.0370                 1.0993                 1.1029
 Frc consts  --      5.7257                 6.3477                 6.3732
 IR Inten    --      5.0857                11.0076                23.9345

                     43                     44                     45
                      A                      A                      A
 Frequencies --   3153.8142              3167.6864              3172.1321
 Red. masses --      1.1054                 1.1039                 1.0592
 Frc consts  --      6.4782                 6.5260                 6.2794
 IR Inten    --     22.5187                26.2927                19.0478

                     46                     47                     48
                      A                      A                      A
 Frequencies --   3265.8143              3542.9317              3627.4308
 Red. masses --      1.1183                 1.0501                 1.0966
 Frc consts  --      7.0272                 7.7662                 8.5014
 IR Inten    --      0.4426                19.4884                38.9168

 - Thermochemistry -
 -------------------
 Temperature   298.150 Kelvin.  Pressure   1.00000 Atm.
 Atom     1 has atomic number  6 and mass  12.00000

 Molecular mass:   135.04509 amu.
 Principal axes and moments of inertia in atomic units:
                           1         2         3
     Eigenvalues --   854.130801775.572862425.34442
           X            0.99973  -0.02255  -0.00624
           Y            0.02261   0.99970   0.00913
           Z            0.00604  -0.00927   0.99994
 This molecule is an asymmetric top.
 Rotational symmetry number  1.
 Warning -- assumption of classical behavior for rotation
           may cause significant error
 Rotational temperatures (Kelvin)      0.10141     0.04878     0.03571
 Rotational constants (GHZ):           2.11296     1.01643     0.74412
    1 imaginary frequencies ignored.
 Zero-point vibrational energy     388698.7 (Joules/Mol)
                                   92.90122 (Kcal/Mol)
 Warning -- explicit consideration of  13 degrees of freedom as
           vibrations may cause significant error
 Vibrational temperatures:     48.16   100.06   119.48   179.38   201.06
          (Kelvin)            246.07   269.60   343.34   516.25   574.56
                              661.17   739.89   830.31   893.23   974.64
                             1204.01  1398.68  1408.17  1429.84  1478.31
                             1506.19  1547.42  1652.19  1652.64  1723.02
                             1836.01  1930.17  1971.19  2021.93  2092.37
                             2102.95  2109.95  2145.43  2160.12  2169.82
                             2371.97  2401.52  4399.18  4404.52  4504.31
                             4505.80  4537.64  4557.59  4563.99  4698.78
                             5097.49  5219.06

 Zero-point correction=                           0.148048 (Hartree/Particle)
 Thermal correction to Energy=                    0.158339
 Thermal correction to Enthalpy=                  0.159284
 Thermal correction to Gibbs Free Energy=         0.110829
 Sum of electronic and zero-point Energies=           -786.573589
 Sum of electronic and thermal Energies=              -786.563298
 Sum of electronic and thermal Enthalpies=            -786.562353
 Sum of electronic and thermal Free Energies=         -786.610808

                     E (Thermal)             CV                S
                      KCal/Mol        Cal/Mol-Kelvin    Cal/Mol-Kelvin
 Total                   99.359             34.293            101.981
 Electronic               0.000              0.000              0.000
 Translational            0.889              2.981             40.614
 Rotational               0.889              2.981             29.688
 Vibrational             97.582             28.331             31.680
 Vibration     1          0.594              1.983              5.612
 Vibration     2          0.598              1.969              4.166
 Vibration     3          0.600              1.961              3.818
 Vibration     4          0.610              1.928              3.027
 Vibration     5          0.615              1.914              2.807
 Vibration     6          0.626              1.878              2.424
 Vibration     7          0.632              1.857              2.254
 Vibration     8          0.657              1.781              1.813
 Vibration     9          0.734              1.557              1.127
 Vibration    10          0.765              1.472              0.965
 Vibration    11          0.817              1.340              0.767
 Vibration    12          0.869              1.218              0.623
 Vibration    13          0.934              1.081              0.491

 Optimization completed.
    -- Stationary point found.
 Normal termination of Gaussian 16 at Wed Feb 10 17:39:26 2021.
