 Gaussian 16, Revision A.03,
 Gaussian 16:  ES64L-G16RevA.03 25-Dec-2016

 ----------------------------------------------------------------------
 # wB97XD def2tzvp, opt=(ts, noeigen, calcfc, maxcycles=70, maxstep=8),
  freq=noraman, scrf=(iefpcm, solvent=water)
 ----------------------------------------------------------------------

 ------------------------
 1_iteration/TS-281-1.out
 ------------------------
 Symbolic Z-matrix:
 Charge =  0 Multiplicity = 1

 SCF Done:  E(RwB97XD) =  -558.159775896     A.U. after   15 cycles
 SCF Done:  E(RwB97XD) =  -558.159780891     A.U. after   11 cycles
 SCF Done:  E(RwB97XD) =  -558.159769505     A.U. after   11 cycles
 SCF Done:  E(RwB97XD) =  -558.159782016     A.U. after   11 cycles
 SCF Done:  E(RwB97XD) =  -558.159781167     A.U. after   11 cycles
 SCF Done:  E(RwB97XD) =  -558.159781819     A.U. after    8 cycles
 Optimization completed.
    -- Stationary point found.
 Normal termination of Gaussian 16 at Wed Feb 10 09:05:27 2021.

 ---------------------------------------------------------------------
 #N Geom=AllCheck Guess=TCheck SCRF=Check GenChk RwB97XD/def2TZVP Freq
 ---------------------------------------------------------------------

 Structure from the checkpoint file:  "/beegfs/scratch/user/q/tla25/Gau-62428.chk"
 ------------------------
 1_iteration/TS-281-1.out
 ------------------------
 Charge =  0 Multiplicity = 1

                         Standard orientation:
 ---------------------------------------------------------------------
 Center     Atomic      Atomic             Coordinates (Angstroms)
 Number     Number       Type             X           Y           Z
 ---------------------------------------------------------------------
      1          6           0        0.479447    0.808705    0.284315
      2          6           0        0.694104    2.164439   -0.070772
      3          8           0       -0.154097    2.998437   -0.408641
      4          6           0        1.558772   -0.009094    0.650039
      5          6           0        2.863208   -2.264564   -0.789492
      6          1           0        2.372427   -2.890676   -0.044807
      7          1           0        2.962902   -2.832027   -1.716301
      8          1           0        3.856995   -2.006792   -0.428761
      9          7           0        2.082806   -1.043691   -0.971192
     10          1           0        2.551250   -0.378270   -1.574826
     11          1           0        1.175835   -1.239125   -1.377467
     12          1           0        1.289056   -0.936460    1.144679
     13          6           0        2.911353    0.495378    1.069249
     14          1           0        2.817805    1.004163    2.030393
     15          1           0        3.605653   -0.332944    1.200151
     16          1           0        3.344177    1.197201    0.358899
     17          6           0       -0.869821    0.199105    0.193125
     18          6           0       -1.354346   -0.641650    1.199431
     19          6           0       -2.598398   -1.246517    1.100339
     20          6           0       -3.400510   -1.017924   -0.008636
     21          6           0       -2.940420   -0.179479   -1.014810
     22          6           0       -1.692961    0.418007   -0.915689
     23          1           0       -0.752251   -0.817099    2.083684
     24          1           0       -2.945657   -1.891731    1.898253
     25          1           0       -4.373800   -1.485878   -0.087019
     26          1           0       -3.554447    0.005738   -1.888032
     27          1           0       -1.344698    1.064729   -1.709858
     28          1           0        1.745327    2.499078   -0.004114
 ---------------------------------------------------------------------

 SCF Done:  E(RwB97XD) =  -558.159781819     A.U. after    1 cycles

 The electronic state is 1-A.
 Alpha  occ. eigenvalues --  -19.20254 -14.47205 -10.34129 -10.33850 -10.31573
 Alpha  occ. eigenvalues --  -10.29418 -10.28475 -10.28406 -10.28349 -10.28215
 Alpha  occ. eigenvalues --  -10.28191 -10.27959 -10.25945  -1.10317  -1.02801
 Alpha  occ. eigenvalues --   -0.96157  -0.91133  -0.85312  -0.84364  -0.79679
 Alpha  occ. eigenvalues --   -0.78437  -0.72180  -0.69651  -0.68992  -0.62818
 Alpha  occ. eigenvalues --   -0.62238  -0.58967  -0.57507  -0.55050  -0.54617
 Alpha  occ. eigenvalues --   -0.54364  -0.52903  -0.51819  -0.50175  -0.49709
 Alpha  occ. eigenvalues --   -0.48975  -0.48033  -0.47000  -0.46131  -0.45296
 Alpha  occ. eigenvalues --   -0.45087  -0.42189  -0.41827  -0.40525  -0.34150
 Alpha  occ. eigenvalues --   -0.33300  -0.31463  -0.26581
 Alpha virt. eigenvalues --    0.04392   0.05364   0.05874   0.10080   0.13313
 Alpha virt. eigenvalues --    0.13463   0.13614   0.15467   0.16222   0.16899
 Alpha virt. eigenvalues --    0.17469   0.18022   0.18046   0.18828   0.19511

 Mulliken charges:
               1
     1  C   -0.045135
     2  C    0.094496
     3  O   -0.517859
     4  C   -0.058409
     5  C   -0.276065
     6  H    0.146887
     7  H    0.149794
     8  H    0.148870
     9  N   -0.359630
    10  H    0.274289
    11  H    0.276608
    12  H    0.148438
    13  C   -0.353009
    14  H    0.153541
    15  H    0.142692
    16  H    0.140994
    17  C    0.119055
    18  C   -0.245401
    19  C   -0.148281
    20  C   -0.160245
    21  C   -0.132606
    22  C   -0.248353
    23  H    0.144020
    24  H    0.137251
    25  H    0.139451
    26  H    0.136751
    27  H    0.135465
    28  H    0.056392
 Sum of Mulliken charges =  -0.00000

 Dipole moment (field-independent basis, Debye):
    X=              7.4976    Y=             -8.9932    Z=             -1.1033  Tot=             11.7605
 Quadrupole moment (field-independent basis, Debye-Ang):
   XX=            -61.7620   YY=            -94.8553   ZZ=            -72.1283
   XY=              0.2121   XZ=             -2.4755   YZ=              2.5778

  Exact polarizability: 234.854  -1.459 212.320   9.684 -14.823 173.838
 Approx polarizability: 176.403  -0.295 167.797   8.743 -15.467 150.020

 ******    1 imaginary frequencies (negative Signs) ******

                      1                      2                      3
                      A                      A                      A
 Frequencies --   -326.2774                25.4832                52.2154
 Red. masses --      5.8481                 2.2687                 3.1216
 Frc consts  --      0.3668                 0.0009                 0.0050
 IR Inten    --    923.3542                 0.5394                 0.5567

                      4                      5                      6
                      A                      A                      A
 Frequencies --     59.2758                83.6490               133.8948
 Red. masses --      2.7699                 5.0977                 3.7497
 Frc consts  --      0.0057                 0.0210                 0.0396
 IR Inten    --      6.9774                 7.6147                 7.2833

                      7                      8                      9
                      A                      A                      A
 Frequencies --    159.0943               183.7127               210.2269
 Red. masses --      1.2846                 2.9457                 1.8971
 Frc consts  --      0.0192                 0.0586                 0.0494
 IR Inten    --      3.7492                 3.2759                14.9317

                     10                     11                     12
                      A                      A                      A
 Frequencies --    228.5703               246.7272               276.1020
 Red. masses --      2.2647                 2.0814                 2.4717
 Frc consts  --      0.0697                 0.0747                 0.1110
 IR Inten    --     12.7674                10.9990                12.8389

                     13                     14                     15
                      A                      A                      A
 Frequencies --    318.4041               361.7033               383.7565
 Red. masses --      3.0142                 4.1676                 3.0948
 Frc consts  --      0.1800                 0.3212                 0.2685
 IR Inten    --      0.2220                74.0236                10.5936

                     16                     17                     18
                      A                      A                      A
 Frequencies --    423.8884               488.6663               577.4115
 Red. masses --      2.9172                 3.9853                 3.3781
 Frc consts  --      0.3088                 0.5607                 0.6636
 IR Inten    --      0.8940                70.8938                64.7300

                     19                     20                     21
                      A                      A                      A
 Frequencies --    582.6683               619.7869               639.3264
 Red. masses --      3.3375                 1.5149                 6.1591
 Frc consts  --      0.6676                 0.3429                 1.4832
 IR Inten    --     19.0919                63.4433                 0.1685

                     22                     23                     24
                      A                      A                      A
 Frequencies --    676.5069               726.7389               758.9425
 Red. masses --      3.2606                 1.5849                 4.4839
 Frc consts  --      0.8792                 0.4932                 1.5217
 IR Inten    --     21.9955                90.1821                10.9702

                     25                     26                     27
                      A                      A                      A
 Frequencies --    799.9892               876.4272               947.2744
 Red. masses --      2.2345                 1.2477                 1.5008
 Frc consts  --      0.8425                 0.5647                 0.7935
 IR Inten    --     30.7873                 1.5478                 1.5459

                     28                     29                     30
                      A                      A                      A
 Frequencies --    964.5053               997.5485              1008.7098
 Red. masses --      1.4270                 1.2290                 1.3780
 Frc consts  --      0.7821                 0.7206                 0.8261
 IR Inten    --     57.0495                 9.2841                 3.2843

                     31                     32                     33
                      A                      A                      A
 Frequencies --   1015.0700              1019.7010              1023.3065
 Red. masses --      1.2593                 1.2960                 5.0437
 Frc consts  --      0.7645                 0.7940                 3.1118
 IR Inten    --    119.8106                 2.5581                 2.5766

                     34                     35                     36
                      A                      A                      A
 Frequencies --   1028.0352              1049.3353              1063.9419
 Red. masses --      1.6092                 2.0551                 1.8086
 Frc consts  --      1.0020                 1.3332                 1.2062
 IR Inten    --     31.0436                30.2494                14.4234

                     37                     38                     39
                      A                      A                      A
 Frequencies --   1069.6891              1080.7050              1114.2405
 Red. masses --      3.1174                 2.1135                 1.5770
 Frc consts  --      2.1016                 1.4544                 1.1536
 IR Inten    --    154.7618                43.3725                 8.3388

                     40                     41                     42
                      A                      A                      A
 Frequencies --   1160.4688              1172.9730              1181.9681
 Red. masses --      1.6454                 1.7000                 1.1280
 Frc consts  --      1.3055                 1.3781                 0.9285
 IR Inten    --    110.8706                90.8060                 3.8003

                     43                     44                     45
                      A                      A                      A
 Frequencies --   1210.0875              1214.9111              1305.1930
 Red. masses --      1.4133                 1.1436                 2.5223
 Frc consts  --      1.2193                 0.9945                 2.5316
 IR Inten    --     16.4807                 3.1428                57.9177

                     46                     47                     48
                      A                      A                      A
 Frequencies --   1319.5079              1343.4467              1359.0709
 Red. masses --      2.3897                 1.3256                 1.7354
 Frc consts  --      2.4515                 1.4096                 1.8886
 IR Inten    --     34.4092                 0.2057               165.5065

                     49                     50                     51
                      A                      A                      A
 Frequencies --   1386.1694              1412.5574              1460.7937
 Red. masses --      1.9729                 1.2455                 1.1814
 Frc consts  --      2.2336                 1.4642                 1.4853
 IR Inten    --    403.3689                 8.9561                 7.6844

                     52                     53                     54
                      A                      A                      A
 Frequencies --   1463.6000              1478.2514              1489.2878
 Red. masses --      1.6344                 1.1618                 2.0656
 Frc consts  --      2.0628                 1.4958                 2.6993
 IR Inten    --     35.8550                25.6019                19.2638

                     55                     56                     57
                      A                      A                      A
 Frequencies --   1492.1832              1495.2615              1508.9554
 Red. masses --      1.0557                 1.1381                 1.0520
 Frc consts  --      1.3849                 1.4992                 1.4113
 IR Inten    --     10.5013                36.9792                23.2860

                     58                     59                     60
                      A                      A                      A
 Frequencies --   1533.1592              1550.5797              1640.9929
 Red. masses --      2.0191                 2.5109                 4.4218
 Frc consts  --      2.7963                 3.5569                 7.0156
 IR Inten    --     74.9641               134.1137               124.6859

                     61                     62                     63
                      A                      A                      A
 Frequencies --   1644.0724              1653.4188              1674.8054
 Red. masses --      1.1732                 5.0647                 5.7783
 Frc consts  --      1.8684                 8.1577                 9.5494
 IR Inten    --     82.3211               731.2383               257.7552

                     64                     65                     66
                      A                      A                      A
 Frequencies --   2946.5076              3060.7040              3070.4823
 Red. masses --      1.0801                 1.0355                 1.0383
 Frc consts  --      5.5251                 5.7156                 5.7673
 IR Inten    --    175.1104                66.4272                18.6802

                     67                     68                     69
                      A                      A                      A
 Frequencies --   3134.1075              3140.4791              3153.1248
 Red. masses --      1.1031                 1.0992                 1.0983
 Frc consts  --      6.3837                 6.3874                 6.4334
 IR Inten    --     21.9797                21.6887                 3.2110

                     70                     71                     72
                      A                      A                      A
 Frequencies --   3162.0236              3170.7258              3183.5247
 Red. masses --      1.1041                 1.0949                 1.0862
 Frc consts  --      6.5040                 6.4854                 6.4861
 IR Inten    --     24.9904                32.6080                12.3886

                     73                     74                     75
                      A                      A                      A
 Frequencies --   3190.7432              3200.7341              3214.0659
 Red. masses --      1.0877                 1.0926                 1.0960
 Frc consts  --      6.5245                 6.5951                 6.6704
 IR Inten    --      0.6245                37.1773                36.4779

                     76                     77                     78
                      A                      A                      A
 Frequencies --   3223.2359              3527.4884              3610.3683
 Red. masses --      1.0950                 1.0507                 1.0963
 Frc consts  --      6.7027                 7.7032                 8.4197
 IR Inten    --     10.6800                13.6443                41.4831

 - Thermochemistry -
 -------------------
 Temperature   298.150 Kelvin.  Pressure   1.00000 Atm.
 Atom     1 has atomic number  6 and mass  12.00000

 Molecular mass:   177.11536 amu.
 Principal axes and moments of inertia in atomic units:
                           1         2         3
     Eigenvalues --  1759.517533327.674674180.20806
           X            0.99990  -0.01367   0.00353
           Y            0.01364   0.99987   0.00880
           Z           -0.00365  -0.00876   0.99996
 This molecule is an asymmetric top.
 Rotational symmetry number  1.
 Warning -- assumption of classical behavior for rotation
           may cause significant error
 Rotational temperatures (Kelvin)      0.04923     0.02603     0.02072
 Rotational constants (GHZ):           1.02570     0.54234     0.43173
    1 imaginary frequencies ignored.
 Zero-point vibrational energy     630523.3 (Joules/Mol)
                                  150.69868 (Kcal/Mol)
 Warning -- explicit consideration of  19 degrees of freedom as
           vibrations may cause significant error
 Vibrational temperatures:     36.66    75.13    85.28   120.35   192.64
          (Kelvin)            228.90   264.32   302.47   328.86   354.99
                              397.25   458.11   520.41   552.14   609.88
                              703.08   830.77   838.33   891.74   919.85
                              973.34  1045.62  1091.95  1151.01  1260.98
                             1362.92  1387.71  1435.25  1451.31  1460.46
                             1467.12  1472.31  1479.11  1509.76  1530.78
                             1539.04  1554.89  1603.14  1669.66  1687.65
                             1700.59  1741.05  1747.99  1877.88  1898.48
                             1932.92  1955.40  1994.39  2032.36  2101.76
                             2105.79  2126.87  2142.75  2146.92  2151.35
                             2171.05  2205.87  2230.94  2361.02  2365.45
                             2378.90  2409.67  4239.37  4403.67  4417.74
                             4509.28  4518.45  4536.64  4549.45  4561.97
                             4580.38  4590.77  4605.14  4624.32  4637.52
                             5075.27  5194.51

 Zero-point correction=                           0.240154 (Hartree/Particle)
 Thermal correction to Energy=                    0.253484
 Thermal correction to Enthalpy=                  0.254428
 Thermal correction to Gibbs Free Energy=         0.198962
 Sum of electronic and zero-point Energies=           -557.919628
 Sum of electronic and thermal Energies=              -557.906298
 Sum of electronic and thermal Enthalpies=            -557.905354
 Sum of electronic and thermal Free Energies=         -557.960820

                     E (Thermal)             CV                S
                      KCal/Mol        Cal/Mol-Kelvin    Cal/Mol-Kelvin
 Total                  159.063             48.878            116.738
 Electronic               0.000              0.000              0.000
 Translational            0.889              2.981             41.422
 Rotational               0.889              2.981             31.571
 Vibrational            157.286             42.916             43.745
 Vibration     1          0.593              1.985              6.153
 Vibration     2          0.596              1.977              4.732
 Vibration     3          0.597              1.974              4.481
 Vibration     4          0.601              1.960              3.803
 Vibration     5          0.613              1.919              2.889
 Vibration     6          0.621              1.892              2.561
 Vibration     7          0.631              1.862              2.290
 Vibration     8          0.642              1.825              2.042
 Vibration     9          0.651              1.797              1.890
 Vibration    10          0.661              1.768              1.754
 Vibration    11          0.678              1.718              1.558
 Vibration    12          0.705              1.638              1.318
 Vibration    13          0.736              1.551              1.115
 Vibration    14          0.753              1.505              1.024
 Vibration    15          0.786              1.418              0.879
 Vibration    16          0.845              1.275              0.687
 Vibration    17          0.934              1.080              0.490
 Vibration    18          0.939              1.069              0.480
 Vibration    19          0.980              0.990              0.417

 Optimization completed.
    -- Stationary point found.
 Normal termination of Gaussian 16 at Wed Feb 10 09:44:53 2021.
