 Gaussian 16, Revision A.03,
 Gaussian 16:  ES64L-G16RevA.03 25-Dec-2016

 ----------------------------------------------------------------------
 # wB97XD def2tzvp, opt=(ts, noeigen, calcfc, maxcycles=70, maxstep=3),
  freq=noraman, scrf=(iefpcm, solvent=water)
 ----------------------------------------------------------------------

 -----------------------
 0_iteration/TS-29-0.out
 -----------------------
 Symbolic Z-matrix:
 Charge =  0 Multiplicity = 1

 SCF Done:  E(RwB97XD) =  -3418.19245181     A.U. after   15 cycles
 Optimization completed.
    -- Stationary point found.
 Normal termination of Gaussian 16 at Wed Apr 14 08:32:35 2021.

 ---------------------------------------------------------------------
 #N Geom=AllCheck Guess=TCheck SCRF=Check GenChk RwB97XD/def2TZVP Freq
 ---------------------------------------------------------------------

 Structure from the checkpoint file:  "/beegfs/scratch/user/q/tla25/Gau-221737.chk"
 -----------------------
 0_iteration/TS-29-0.out
 -----------------------
 Charge =  0 Multiplicity = 1

                         Standard orientation:
 ---------------------------------------------------------------------
 Center     Atomic      Atomic             Coordinates (Angstroms)
 Number     Number       Type             X           Y           Z
 ---------------------------------------------------------------------
      1          6           0        0.989610   -0.349149   -0.159901
      2          6           0        2.230278    0.339913    0.088599
      3          8           0        2.264437    1.365413    0.803199
      4          6           0       -0.235711    0.174799    0.321799
      5          6           0        0.609330   -0.815960    2.833599
      6          1           0        1.096310   -0.518739    3.761999
      7          1           0       -0.142339   -1.571491    3.046799
      8          1           0        1.356751   -1.238929    2.163899
      9          7           0        0.006478    0.340709    2.175799
     10          1           0       -0.783642    0.704078    2.694399
     11          1           0        0.713047    1.073041    2.083499
     12          6           0       -1.486480   -0.649353    0.097399
     13          6           0       -1.910170   -0.796573   -1.224701
     14          6           0       -3.063439   -1.494825   -1.528801
     15          6           0       -3.827718   -2.057156   -0.513501
     16          6           0       -3.424428   -1.904236    0.800499
     17          6           0       -2.263059   -1.201984    1.104399
     18          1           0       -1.322090   -0.356843   -2.020601
     19          1           0       -3.369239   -1.598836   -2.562201
     20          1           0       -4.731797   -2.604098   -0.748401
     21          1           0       -4.012008   -2.329167    1.604299
     22          1           0       -1.988659   -1.099174    2.143099
     23          6           0       -0.561383    1.633189    0.004199
     24          6           0        0.038496    2.272009   -1.075201
     25          6           0       -0.320566    3.563799   -1.426801
     26          6           0       -1.295997    4.239857   -0.709601
     27          6           0       -1.920966    3.603427    0.352299
     28          6           0       -1.563704    2.309247    0.696199
     29          1           0        0.790316    1.746651   -1.647801
     30          1           0        0.164213    4.041620   -2.268901
     31          1           0       -1.576739    5.248847   -0.983701
     32          1           0       -2.699387    4.108995    0.909599
     33          1           0       -2.102684    1.823016    1.499899
     34         35           0        1.101692   -2.201739   -0.668801
     35          7           0        3.382899   -0.139735   -0.440801
     36          6           0        4.653368    0.503616   -0.212101
     37          1           0        3.341230   -0.918246   -1.072001
     38          1           0        4.837168    0.631227    0.855599
     39          1           0        5.439399   -0.123252   -0.628401
     40          1           0        4.705027    1.488316   -0.683901
 ---------------------------------------------------------------------

 SCF Done:  E(RwB97XD) =  -3418.19245181     A.U. after    1 cycles

 The electronic state is 1-A.
 Alpha  occ. eigenvalues -- -483.11985 -62.66795 -56.45898 -56.45572 -56.45560
 Alpha  occ. eigenvalues --  -19.20070 -14.48671 -14.44326 -10.37607 -10.36750
 Alpha  occ. eigenvalues --  -10.31635 -10.31155 -10.30784 -10.30577 -10.29627
 Alpha  occ. eigenvalues --  -10.29594 -10.29427 -10.29312 -10.29308 -10.29238
 Alpha  occ. eigenvalues --  -10.29187 -10.29120 -10.29084 -10.29026 -10.28956
 Alpha  occ. eigenvalues --   -8.80891  -6.62985  -6.61947  -6.61908  -2.73382
 Alpha  occ. eigenvalues --   -2.73086  -2.73054  -2.72215  -2.72214  -1.12625
 Alpha  occ. eigenvalues --   -1.04458  -1.01057  -0.98227  -0.96636  -0.92614
 Alpha  occ. eigenvalues --   -0.88322  -0.85643  -0.85350  -0.85217  -0.81525
 Alpha  occ. eigenvalues --   -0.80145  -0.78756  -0.73476  -0.71227  -0.70306
 Alpha  occ. eigenvalues --   -0.70093  -0.67630  -0.65931  -0.63730  -0.62423
 Alpha  occ. eigenvalues --   -0.60554  -0.58153  -0.57330  -0.55964  -0.55798
 Alpha  occ. eigenvalues --   -0.54477  -0.54413  -0.53832  -0.53358  -0.52410
 Alpha  occ. eigenvalues --   -0.51197  -0.51068  -0.50921  -0.50290  -0.48548
 Alpha  occ. eigenvalues --   -0.47500  -0.47286  -0.46580  -0.46320  -0.45796
 Alpha  occ. eigenvalues --   -0.45008  -0.43891  -0.42793  -0.42349  -0.41935
 Alpha  occ. eigenvalues --   -0.39180  -0.37836  -0.35133  -0.34415  -0.34007
 Alpha  occ. eigenvalues --   -0.33455  -0.32837  -0.31839  -0.26185
 Alpha virt. eigenvalues --    0.02779   0.04297   0.04992   0.05879   0.07245
 Alpha virt. eigenvalues --    0.09480   0.10685   0.12346   0.13456   0.13546
 Alpha virt. eigenvalues --    0.14664   0.15038   0.15427   0.15724   0.16394

 Mulliken charges:
               1
     1  C   -0.427769
     2  C    0.379020
     3  O   -0.587275
     4  C    0.509471
     5  C   -0.284897
     6  H    0.159030
     7  H    0.147711
     8  H    0.154997
     9  N   -0.319927
    10  H    0.276693
    11  H    0.285414
    12  C    0.130757
    13  C   -0.291959
    14  C   -0.122838
    15  C   -0.143773
    16  C   -0.169755
    17  C   -0.223953
    18  H    0.158323
    19  H    0.142824
    20  H    0.144385
    21  H    0.142841
    22  H    0.141547
    23  C    0.119068
    24  C   -0.240545
    25  C   -0.148017
    26  C   -0.136975
    27  C   -0.173745
    28  C   -0.258155
    29  H    0.162197
    30  H    0.141369
    31  H    0.144064
    32  H    0.142352
    33  H    0.155729
    34  Br  -0.174529
    35  N   -0.322823
    36  C   -0.249338
    37  H    0.249787
    38  H    0.126178
    39  H    0.139327
    40  H    0.123187
 Sum of Mulliken charges =  -0.00000

 Dipole moment (field-independent basis, Debye):
    X=             -2.6594    Y=             -0.2029    Z=              3.3242  Tot=              4.2619
 Quadrupole moment (field-independent basis, Debye-Ang):
   XX=           -125.0589   YY=           -139.2164   ZZ=           -117.1722
   XY=             -4.0232   XZ=             -9.1397   YZ=             -4.2250

  Exact polarizability: 346.125  10.903 333.701 -29.055  -3.709 310.587
 Approx polarizability: 267.903   7.279 266.053 -24.341  -0.132 270.186

 ******    1 imaginary frequencies (negative Signs) ******

                      1                      2                      3
                      A                      A                      A
 Frequencies --   -357.0174                33.3039                47.8070
 Red. masses --      5.2561                 3.9466                 4.4930
 Frc consts  --      0.3947                 0.0026                 0.0061
 IR Inten    --    514.0811                 0.6543                 2.7572

                      4                      5                      6
                      A                      A                      A
 Frequencies --     53.5155                60.6975                62.6849
 Red. masses --      4.0965                 4.7625                 4.3756
 Frc consts  --      0.0069                 0.0103                 0.0101
 IR Inten    --      0.2813                 4.0056                 7.3530

                      7                      8                      9
                      A                      A                      A
 Frequencies --     80.3813                81.5843               125.3243
 Red. masses --      1.8335                 5.1461                 1.9603
 Frc consts  --      0.0070                 0.0202                 0.0181
 IR Inten    --      2.8333                 1.8713                 1.7774

                     10                     11                     12
                      A                      A                      A
 Frequencies --    128.0790               138.3051               148.2681
 Red. masses --      1.8580                 1.7690                 3.4328
 Frc consts  --      0.0180                 0.0199                 0.0445
 IR Inten    --      1.9335                11.5801                12.1910

                     13                     14                     15
                      A                      A                      A
 Frequencies --    156.4974               172.6115               198.6295
 Red. masses --      4.6681                 2.6001                 7.6013
 Frc consts  --      0.0674                 0.0456                 0.1767
 IR Inten    --     32.7940                 2.4575                 0.9035

                     16                     17                     18
                      A                      A                      A
 Frequencies --    241.0512               253.9703               264.1515
 Red. masses --      2.6525                 4.7681                 4.2000
 Frc consts  --      0.0908                 0.1812                 0.1727
 IR Inten    --     19.6751                 9.5714                 3.0514

                     19                     20                     21
                      A                      A                      A
 Frequencies --    281.0470               300.0169               306.8119
 Red. masses --      5.3144                 4.2175                 3.8104
 Frc consts  --      0.2473                 0.2237                 0.2113
 IR Inten    --      5.3808                12.3168                 9.2103

                     22                     23                     24
                      A                      A                      A
 Frequencies --    326.2643               367.7542               395.6519
 Red. masses --      3.7764                 2.1336                 2.3472
 Frc consts  --      0.2368                 0.1700                 0.2165
 IR Inten    --      6.3061                84.8128                59.2498

                     25                     26                     27
                      A                      A                      A
 Frequencies --    420.7354               427.0545               428.5023
 Red. masses --      2.8848                 2.9919                 4.1207
 Frc consts  --      0.3009                 0.3215                 0.4458
 IR Inten    --      0.6675                 2.8121                18.2270

                     28                     29                     30
                      A                      A                      A
 Frequencies --    490.5398               532.3982               601.5715
 Red. masses --      3.7378                 3.6244                 3.5023
 Frc consts  --      0.5299                 0.6053                 0.7468
 IR Inten    --     12.7933                 4.9652               148.4623

                     31                     32                     33
                      A                      A                      A
 Frequencies --    632.5495               638.3865               646.9206
 Red. masses --      5.7194                 6.3115                 4.1424
 Frc consts  --      1.3483                 1.5155                 1.0214
 IR Inten    --     11.7612                 1.8763                51.2110

                     34                     35                     36
                      A                      A                      A
 Frequencies --    655.4233               710.9825               725.6505
 Red. masses --      6.7774                 1.9502                 1.6862
 Frc consts  --      1.7154                 0.5808                 0.5231
 IR Inten    --     84.4761                79.4741                93.2469

                     37                     38                     39
                      A                      A                      A
 Frequencies --    729.5074               750.6811               778.0090
 Red. masses --      1.5569                 3.9738                 2.9174
 Frc consts  --      0.4882                 1.3194                 1.0404
 IR Inten    --    109.4598                16.4691                51.3952

                     40                     41                     42
                      A                      A                      A
 Frequencies --    786.2613               797.5953               852.6043
 Red. masses --      3.6265                 2.5936                 3.5766
 Frc consts  --      1.3209                 0.9721                 1.5318
 IR Inten    --     27.6505                61.6185                15.2296

                     43                     44                     45
                      A                      A                      A
 Frequencies --    872.3303               879.8388               915.4550
 Red. masses --      1.2492                 1.2533                 3.6888
 Frc consts  --      0.5601                 0.5716                 1.8214
 IR Inten    --      0.4054                 1.1411                 1.6073

                     46                     47                     48
                      A                      A                      A
 Frequencies --    953.4944               965.4104              1009.0108
 Red. masses --      1.4978                 1.4580                 1.3577
 Frc consts  --      0.8023                 0.8006                 0.8144
 IR Inten    --      1.2105                 7.3197                11.6072

                     49                     50                     51
                      A                      A                      A
 Frequencies --   1013.1023              1020.9638              1022.6546
 Red. masses --      1.3783                 2.8653                 1.7798
 Frc consts  --      0.8335                 1.7597                 1.0967
 IR Inten    --     10.0884                 9.3992                28.5293

                     52                     53                     54
                      A                      A                      A
 Frequencies --   1026.6057              1028.8098              1030.6881
 Red. masses --      5.2011                 2.4692                 1.3456
 Frc consts  --      3.2297                 1.5398                 0.8422
 IR Inten    --      1.9216                19.4509                 5.2104

                     55                     56                     57
                      A                      A                      A
 Frequencies --   1033.0450              1065.4280              1069.5275
 Red. masses --      1.3850                 2.6140                 2.0485
 Frc consts  --      0.8708                 1.7483                 1.3806
 IR Inten    --     15.0535                18.5949                18.1417

                     58                     59                     60
                      A                      A                      A
 Frequencies --   1077.6911              1117.3357              1121.5716
 Red. masses --      3.9918                 1.2785                 1.8844
 Frc consts  --      2.7315                 0.9404                 1.3966
 IR Inten    --     27.4683                69.4764                15.8063

                     61                     62                     63
                      A                      A                      A
 Frequencies --   1124.5961              1141.5880              1157.1131
 Red. masses --      1.5903                 2.7260                 1.2872
 Frc consts  --      1.1850                 2.0931                 1.0154
 IR Inten    --      0.7434                15.8847                 3.3143

                     64                     65                     66
                      A                      A                      A
 Frequencies --   1184.0775              1186.1052              1186.3927
 Red. masses --      1.6408                 1.1744                 1.1460
 Frc consts  --      1.3554                 0.9735                 0.9504
 IR Inten    --     24.1321                 3.8905                 1.7983

                     67                     68                     69
                      A                      A                      A
 Frequencies --   1197.7556              1219.4848              1221.9496
 Red. masses --      3.4133                 1.1450                 1.1369
 Frc consts  --      2.8851                 1.0033                 1.0001
 IR Inten    --     29.6777                 4.5527                 2.7065

                     70                     71                     72
                      A                      A                      A
 Frequencies --   1247.2399              1261.7855              1312.0181
 Red. masses --      2.3293                 1.8129                 2.6212
 Frc consts  --      2.1349                 1.7005                 2.6585
 IR Inten    --     37.2068                71.4699               210.3944

                     73                     74                     75
                      A                      A                      A
 Frequencies --   1321.7966              1325.1456              1360.5480
 Red. masses --      4.4189                 3.8756                 1.6638
 Frc consts  --      4.5487                 4.0098                 1.8146
 IR Inten    --      5.9039               189.0671                85.6639

                     76                     77                     78
                      A                      A                      A
 Frequencies --   1367.1817              1377.3043              1391.2203
 Red. masses --      1.4668                 1.4916                 2.2522
 Frc consts  --      1.6154                 1.6671                 2.5684
 IR Inten    --     18.8173               113.0054               327.6970

                     79                     80                     81
                      A                      A                      A
 Frequencies --   1454.9230              1456.9610              1477.6031
 Red. masses --      1.2269                 1.2142                 1.0618
 Frc consts  --      1.5302                 1.5186                 1.3659
 IR Inten    --     34.1095                 4.4902                25.4159

                     82                     83                     84
                      A                      A                      A
 Frequencies --   1488.6383              1492.2460              1493.4591
 Red. masses --      2.2062                 1.0490                 2.2055
 Frc consts  --      2.8805                 1.3763                 2.8983
 IR Inten    --      9.4245                14.5677                62.1341

                     85                     86                     87
                      A                      A                      A
 Frequencies --   1501.7702              1508.2248              1542.5446
 Red. masses --      1.0475                 1.0758                 2.2012
 Frc consts  --      1.3919                 1.4419                 3.0860
 IR Inten    --      7.5773                14.4534                26.6917

                     88                     89                     90
                      A                      A                      A
 Frequencies --   1546.0931              1561.4150              1591.8142
 Red. masses --      2.2944                 2.0995                 2.6335
 Frc consts  --      3.2315                 3.0158                 3.9316
 IR Inten    --      9.6897               827.7027               479.6562

                     91                     92                     93
                      A                      A                      A
 Frequencies --   1640.3782              1653.4099              1655.8914
 Red. masses --      1.4529                 5.6205                 5.2401
 Frc consts  --      2.3034                 9.0529                 8.4655
 IR Inten    --     21.9989                 0.9005                 3.0360

                     94                     95                     96
                      A                      A                      A
 Frequencies --   1672.9825              1677.5853              3044.0933
 Red. masses --      5.8809                 5.8677                 1.0390
 Frc consts  --      9.6979                 9.7295                 5.6724
 IR Inten    --      8.3025                 2.2284                96.1901

                     97                     98                     99
                      A                      A                      A
 Frequencies --   3076.4669              3105.0395              3152.3790
 Red. masses --      1.0342                 1.0999                 1.1034
 Frc consts  --      5.7672                 6.2480                 6.4605
 IR Inten    --     43.7902                44.3583                 8.6905

                    100                    101                    102
                      A                      A                      A
 Frequencies --   3155.2517              3178.0336              3194.0339
 Red. masses --      1.1020                 1.1051                 1.0858
 Frc consts  --      6.4642                 6.5762                 6.5264
 IR Inten    --     25.6063                17.7913                 4.0653

                    103                    104                    105
                      A                      A                      A
 Frequencies --   3196.5069              3200.2240              3203.9818
 Red. masses --      1.0861                 1.0886                 1.0891
 Frc consts  --      6.5385                 6.5684                 6.5869
 IR Inten    --      1.3630                 3.2138                 3.9770

                    106                    107                    108
                      A                      A                      A
 Frequencies --   3209.6900              3212.6252              3220.6176
 Red. masses --      1.0928                 1.0939                 1.0966
 Frc consts  --      6.6334                 6.6516                 6.7016
 IR Inten    --     28.7407                25.0871                24.8200

                    109                    110                    111
                      A                      A                      A
 Frequencies --   3222.8626              3229.2895              3250.4570
 Red. masses --      1.0980                 1.0946                 1.0916
 Frc consts  --      6.7197                 6.7254                 6.7951
 IR Inten    --     22.9549                 9.2989                13.7336

                    112                    113                    114
                      A                      A                      A
 Frequencies --   3413.0378              3585.8098              3686.3934
 Red. masses --      1.0641                 1.0841                 1.0777
 Frc consts  --      7.3033                 8.2132                 8.6289
 IR Inten    --    124.6242                60.5057                77.9243

 - Thermochemistry -
 -------------------
 Temperature   298.150 Kelvin.  Pressure   1.00000 Atm.
 Atom     1 has atomic number  6 and mass  12.00000

 Molecular mass:   346.06807 amu.
 Principal axes and moments of inertia in atomic units:
                           1         2         3
     Eigenvalues --  6264.270056828.27767**********
           X            0.97549   0.22004   0.00328
           Y           -0.21986   0.97513  -0.02809
           Z           -0.00938   0.02668   0.99960
 This molecule is an asymmetric top.
 Rotational symmetry number  1.
 Warning -- assumption of classical behavior for rotation
           may cause significant error
 Rotational temperatures (Kelvin)      0.01383     0.01268     0.00851
 Rotational constants (GHZ):           0.28810     0.26430     0.17736
    1 imaginary frequencies ignored.
 Zero-point vibrational energy     864833.0 (Joules/Mol)
                                  206.70004 (Kcal/Mol)
 Warning -- explicit consideration of  29 degrees of freedom as
           vibrations may cause significant error
 Vibrational temperatures:     47.92    68.78    77.00    87.33    90.19
          (Kelvin)            115.65   117.38   180.31   184.28   198.99
                              213.32   225.16   248.35   285.78   346.82
                              365.41   380.06   404.36   431.66   441.43
                              469.42   529.12   569.25   605.34   614.44
                              616.52   705.78   766.00   865.53   910.10
                              918.50   930.77   943.01  1022.95  1044.05
                             1049.60  1080.06  1119.38  1131.25  1147.56
                             1226.71  1255.09  1265.89  1317.14  1371.87
                             1389.01  1451.74  1457.63  1468.94  1471.37
                             1477.06  1480.23  1482.93  1486.32  1532.91
                             1538.81  1550.56  1607.60  1613.69  1618.04
                             1642.49  1664.83  1703.62  1706.54  1706.95
                             1723.30  1754.57  1758.11  1794.50  1815.43
                             1887.70  1901.77  1906.59  1957.53  1967.07
                             1981.63  2001.66  2093.31  2096.24  2125.94
                             2141.82  2147.01  2148.75  2160.71  2170.00
                             2219.38  2224.48  2246.53  2290.27  2360.14
                             2378.89  2382.46  2407.05  2413.67  4379.77
                             4426.35  4467.46  4535.57  4539.70  4572.48
                             4595.50  4599.06  4604.41  4609.82  4618.03
                             4622.25  4633.75  4636.98  4646.23  4676.68
                             4910.60  5159.18  5303.90

 Zero-point correction=                           0.329397 (Hartree/Particle)
 Thermal correction to Energy=                    0.349876
 Thermal correction to Enthalpy=                  0.350820
 Thermal correction to Gibbs Free Energy=         0.278934
 Sum of electronic and zero-point Energies=          -3417.863054
 Sum of electronic and thermal Energies=             -3417.842576
 Sum of electronic and thermal Enthalpies=           -3417.841632
 Sum of electronic and thermal Free Energies=        -3417.913518

                     E (Thermal)             CV                S
                      KCal/Mol        Cal/Mol-Kelvin    Cal/Mol-Kelvin
 Total                  219.550             76.129            151.296
 Electronic               0.000              0.000              0.000
 Translational            0.889              2.981             43.419
 Rotational               0.889              2.981             34.431
 Vibrational            217.773             70.168             73.447
 Vibration     1          0.594              1.983              5.622
 Vibration     2          0.595              1.978              4.906
 Vibration     3          0.596              1.976              4.683
 Vibration     4          0.597              1.973              4.434
 Vibration     5          0.597              1.972              4.371
 Vibration     6          0.600              1.962              3.882
 Vibration     7          0.600              1.962              3.852
 Vibration     8          0.610              1.928              3.017
 Vibration     9          0.611              1.925              2.975
 Vibration    10          0.614              1.915              2.827
 Vibration    11          0.618              1.905              2.694
 Vibration    12          0.620              1.895              2.592
 Vibration    13          0.626              1.876              2.407
 Vibration    14          0.637              1.842              2.146
 Vibration    15          0.658              1.778              1.795
 Vibration    16          0.665              1.756              1.703
 Vibration    17          0.671              1.739              1.634
 Vibration    18          0.681              1.709              1.527
 Vibration    19          0.693              1.674              1.417
 Vibration    20          0.697              1.661              1.379
 Vibration    21          0.710              1.623              1.279
 Vibration    22          0.740              1.539              1.089
 Vibration    23          0.762              1.479              0.979
 Vibration    24          0.783              1.425              0.889
 Vibration    25          0.789              1.411              0.868
 Vibration    26          0.790              1.408              0.864
 Vibration    27          0.846              1.271              0.682
 Vibration    28          0.887              1.178              0.582
 Vibration    29          0.960              1.028              0.447

 Optimization completed.
    -- Stationary point found.
 Normal termination of Gaussian 16 at Wed Apr 14 09:55:44 2021.
