 Gaussian 16, Revision A.03,
 Gaussian 16:  ES64L-G16RevA.03 25-Dec-2016

 ----------------------------------------------------------------------
 # wB97XD def2tzvp, opt=(ts, noeigen, calcfc, maxcycles=70, maxstep=8),
  freq=noraman, scrf=(iefpcm, solvent=water)
 ----------------------------------------------------------------------

 ------------------------
 1_iteration/TS-295-1.out
 ------------------------
 Symbolic Z-matrix:
 Charge =  0 Multiplicity = 1

 SCF Done:  E(RwB97XD) =  -613.532998437     A.U. after   14 cycles
 SCF Done:  E(RwB97XD) =  -613.532964300     A.U. after   12 cycles
 SCF Done:  E(RwB97XD) =  -613.532986211     A.U. after   10 cycles
 SCF Done:  E(RwB97XD) =  -613.532996606     A.U. after   12 cycles
 SCF Done:  E(RwB97XD) =  -613.532979974     A.U. after   12 cycles
 SCF Done:  E(RwB97XD) =  -613.533022832     A.U. after   12 cycles
 SCF Done:  E(RwB97XD) =  -613.533033437     A.U. after   10 cycles
 SCF Done:  E(RwB97XD) =  -613.532767748     A.U. after   12 cycles
 SCF Done:  E(RwB97XD) =  -613.533028468     A.U. after   12 cycles
 SCF Done:  E(RwB97XD) =  -613.533038304     A.U. after   10 cycles
 SCF Done:  E(RwB97XD) =  -613.533039687     A.U. after   10 cycles
 SCF Done:  E(RwB97XD) =  -613.533040055     A.U. after    9 cycles
 SCF Done:  E(RwB97XD) =  -613.533039819     A.U. after    8 cycles
 SCF Done:  E(RwB97XD) =  -613.533040045     A.U. after    8 cycles
 Optimization completed on the basis of negligible forces.
    -- Stationary point found.
 Normal termination of Gaussian 16 at Thu Feb 11 04:22:11 2021.

 ---------------------------------------------------------------------
 #N Geom=AllCheck Guess=TCheck SCRF=Check GenChk RwB97XD/def2TZVP Freq
 ---------------------------------------------------------------------

 Structure from the checkpoint file:  "/beegfs/scratch/user/q/tla25/Gau-8154.chk"
 ------------------------
 1_iteration/TS-295-1.out
 ------------------------
 Charge =  0 Multiplicity = 1

                         Standard orientation:
 ---------------------------------------------------------------------
 Center     Atomic      Atomic             Coordinates (Angstroms)
 Number     Number       Type             X           Y           Z
 ---------------------------------------------------------------------
      1          6           0        2.080925    1.153576   -0.584120
      2          6           0        0.682389    1.289756   -0.352067
      3          8           0        0.144499    2.393040   -0.153985
      4          6           0        2.906573    0.014262   -0.742240
      5          6           0        2.554921   -0.721478    1.890415
      6          1           0        2.995470   -0.814349    2.881632
      7          1           0        1.890681    0.142109    1.867219
      8          1           0        1.986186   -1.621237    1.666638
      9          7           0        3.584228   -0.526563    0.870402
     10          1           0        4.200558    0.233638    1.134593
     11          1           0        4.156698   -1.356599    0.753342
     12          1           0        3.878089    0.285050   -1.146324
     13          6           0        2.454826   -1.317311   -1.312642
     14          1           0        1.804555   -1.883150   -0.643272
     15          1           0        1.924153   -1.155332   -2.251299
     16          1           0        3.314849   -1.953039   -1.520351
     17          1           0        2.598814    2.103591   -0.531280
     18          7           0       -0.104885    0.137437   -0.369721
     19          6           0       -1.469481   -0.022268   -0.153144
     20          6           0       -2.332025    0.994781    0.266883
     21          6           0       -3.677794    0.721534    0.469979
     22          6           0       -4.198190   -0.547255    0.267147
     23          6           0       -3.342715   -1.560003   -0.147988
     24          6           0       -2.000383   -1.303575   -0.356098
     25          1           0        0.367884   -0.711057   -0.617088
     26          1           0       -1.937870    1.984604    0.426029
     27          1           0       -4.328191    1.524717    0.795591
     28          1           0       -5.249589   -0.745847    0.429291
     29          1           0       -3.722390   -2.560871   -0.313300
     30          1           0       -1.345565   -2.104785   -0.681052
 ---------------------------------------------------------------------

 SCF Done:  E(RwB97XD) =  -613.533040045     A.U. after    1 cycles

 The electronic state is 1-A.
 Alpha  occ. eigenvalues --  -19.18579 -14.49535 -14.45060 -10.36792 -10.34071
 Alpha  occ. eigenvalues --  -10.33352 -10.31907 -10.28794 -10.28740 -10.28559
 Alpha  occ. eigenvalues --  -10.28375 -10.27808 -10.27603 -10.23572  -1.11359
 Alpha  occ. eigenvalues --   -1.04921  -1.02670  -0.94889  -0.89390  -0.84666
 Alpha  occ. eigenvalues --   -0.84223  -0.79913  -0.79442  -0.72834  -0.71085
 Alpha  occ. eigenvalues --   -0.68169  -0.64493  -0.63690  -0.61947  -0.58967
 Alpha  occ. eigenvalues --   -0.57612  -0.56443  -0.54380  -0.53387  -0.52255
 Alpha  occ. eigenvalues --   -0.51454  -0.50967  -0.50508  -0.49815  -0.49293
 Alpha  occ. eigenvalues --   -0.48100  -0.45749  -0.44753  -0.44540  -0.43234
 Alpha  occ. eigenvalues --   -0.42556  -0.42242  -0.38710  -0.33443  -0.32467
 Alpha  occ. eigenvalues --   -0.29641  -0.25662
 Alpha virt. eigenvalues --    0.05417   0.05752   0.09471   0.09869   0.11609
 Alpha virt. eigenvalues --    0.13939   0.14162   0.14819   0.16117   0.16612
 Alpha virt. eigenvalues --    0.17398   0.18040   0.18329   0.18956   0.19223

 Mulliken charges:
               1
     1  C   -0.514107
     2  C    0.368698
     3  O   -0.577578
     4  C    0.018655
     5  C   -0.316039
     6  H    0.164869
     7  H    0.155658
     8  H    0.156678
     9  N   -0.253446
    10  H    0.284935
    11  H    0.288290
    12  H    0.148711
    13  C   -0.416087
    14  H    0.128121
    15  H    0.163729
    16  H    0.161768
    17  H    0.105167
    18  N   -0.220563
    19  C    0.290234
    20  C   -0.312007
    21  C   -0.104189
    22  C   -0.205685
    23  C   -0.110430
    24  C   -0.300627
    25  H    0.184113
    26  H    0.152423
    27  H    0.138019
    28  H    0.137484
    29  H    0.139920
    30  H    0.143284
 Sum of Mulliken charges =  -0.00000

 Dipole moment (field-independent basis, Debye):
    X=              9.9919    Y=             -9.5072    Z=              2.8160  Tot=             14.0768
 Quadrupole moment (field-independent basis, Debye-Ang):
   XX=            -47.0719   YY=            -93.8575   ZZ=            -84.0675
   XY=             -9.5698   XZ=              7.7186   YZ=              3.3688

  Exact polarizability: 286.862  -7.350 216.135  -9.583   5.528 152.754
 Approx polarizability: 206.534  -6.780 181.209  -8.289   6.341 129.529

 ******    1 imaginary frequencies (negative Signs) ******

                      1                      2                      3
                      A                      A                      A
 Frequencies --   -361.3067                18.9604                30.1638
 Red. masses --      5.8631                 3.6904                 3.8680
 Frc consts  --      0.4509                 0.0008                 0.0021
 IR Inten    --   1067.3714                 1.6410                 3.7575

                      4                      5                      6
                      A                      A                      A
 Frequencies --     72.8133                80.8102               114.8520
 Red. masses --      3.9908                 2.8153                 3.9708
 Frc consts  --      0.0125                 0.0108                 0.0309
 IR Inten    --      6.3068                 4.3626                 5.7770

                      7                      8                      9
                      A                      A                      A
 Frequencies --    116.5356               200.6998               209.5154
 Red. masses --      3.0851                 1.6783                 1.7137
 Frc consts  --      0.0247                 0.0398                 0.0443
 IR Inten    --     12.0014                 5.1260                 4.7358

                     10                     11                     12
                      A                      A                      A
 Frequencies --    234.5712               256.4347               297.6300
 Red. masses --      3.5607                 2.8007                 1.7644
 Frc consts  --      0.1154                 0.1085                 0.0921
 IR Inten    --      3.1962                 8.0962                13.7296

                     13                     14                     15
                      A                      A                      A
 Frequencies --    333.0242               350.0676               360.0605
 Red. masses --      1.9543                 4.3806                 3.0758
 Frc consts  --      0.1277                 0.3163                 0.2349
 IR Inten    --     10.4883                 4.7279                 1.6483

                     16                     17                     18
                      A                      A                      A
 Frequencies --    424.5436               488.9991               515.8038
 Red. masses --      3.0129                 2.2077                 5.2756
 Frc consts  --      0.3199                 0.3110                 0.8270
 IR Inten    --      0.0295                17.9694                32.1356

                     19                     20                     21
                      A                      A                      A
 Frequencies --    524.2067               527.9937               628.6930
 Red. masses --      1.4706                 2.5169                 3.7398
 Frc consts  --      0.2381                 0.4134                 0.8709
 IR Inten    --    162.6740                 0.5137                 7.2974

                     22                     23                     24
                      A                      A                      A
 Frequencies --    639.9819               675.1638               716.9090
 Red. masses --      4.3856                 1.3590                 2.9853
 Frc consts  --      1.0583                 0.3650                 0.9040
 IR Inten    --     10.9581                30.8446                 1.7438

                     25                     26                     27
                      A                      A                      A
 Frequencies --    718.3333               731.5141               780.0915
 Red. masses --      1.9361                 1.7433                 1.8096
 Frc consts  --      0.5886                 0.5496                 0.6488
 IR Inten    --     57.7215                63.5353                82.5666

                     28                     29                     30
                      A                      A                      A
 Frequencies --    791.0574               860.0631               883.9309
 Red. masses --      4.7351                 1.2664                 5.2826
 Frc consts  --      1.7458                 0.5519                 2.4319
 IR Inten    --     87.2314                 0.1318                22.2190

                     31                     32                     33
                      A                      A                      A
 Frequencies --    905.0900               925.8588               986.5009
 Red. masses --      3.7551                 1.4741                 2.1441
 Frc consts  --      1.8124                 0.7445                 1.2294
 IR Inten    --     29.3573                12.3547                 7.3377

                     34                     35                     36
                      A                      A                      A
 Frequencies --    997.9582              1011.2722              1012.8655
 Red. masses --      1.3357                 1.2720                 1.4250
 Frc consts  --      0.7837                 0.7664                 0.8613
 IR Inten    --      0.0167                 0.6600                 6.4743

                     37                     38                     39
                      A                      A                      A
 Frequencies --   1017.6584              1033.0550              1056.0528
 Red. masses --      4.0533                 1.5242                 2.3680
 Frc consts  --      2.4732                 0.9584                 1.5560
 IR Inten    --      9.6038                82.9911                68.9499

                     40                     41                     42
                      A                      A                      A
 Frequencies --   1060.6240              1075.0776              1098.5562
 Red. masses --      1.9090                 1.2690                 1.4877
 Frc consts  --      1.2652                 0.8641                 1.0578
 IR Inten    --     27.0554                76.1728                74.0511

                     43                     44                     45
                      A                      A                      A
 Frequencies --   1115.6678              1179.5180              1204.1509
 Red. masses --      1.5109                 1.1178                 1.1498
 Frc consts  --      1.1080                 0.9163                 0.9823
 IR Inten    --     14.0804                 5.2880                37.2892

                     46                     47                     48
                      A                      A                      A
 Frequencies --   1232.2846              1241.0004              1260.3031
 Red. masses --      1.4651                 1.6179                 1.4874
 Frc consts  --      1.3108                 1.4681                 1.3920
 IR Inten    --    177.8985               378.1161               185.6078

                     49                     50                     51
                      A                      A                      A
 Frequencies --   1275.8741              1312.5133              1342.9924
 Red. masses --      1.9735                 1.8048                 2.5405
 Frc consts  --      1.8928                 1.8319                 2.6997
 IR Inten    --    115.1569               120.3209               472.5409

                     52                     53                     54
                      A                      A                      A
 Frequencies --   1353.6077              1359.3062              1409.8316
 Red. masses --      1.2862                 1.9878                 1.2644
 Frc consts  --      1.3885                 2.1640                 1.4807
 IR Inten    --      1.9023                14.1651                15.2685

                     55                     56                     57
                      A                      A                      A
 Frequencies --   1435.5867              1445.3323              1463.2770
 Red. masses --      1.6372                 1.4654                 1.8557
 Frc consts  --      1.9879                 1.8036                 2.3410
 IR Inten    --    138.7991               149.4462               276.4557

                     58                     59                     60
                      A                      A                      A
 Frequencies --   1470.3034              1495.6524              1504.2769
 Red. masses --      2.0275                 1.0432                 1.0974
 Frc consts  --      2.5824                 1.3750                 1.4631
 IR Inten    --    211.6284                16.4878                36.2586

                     61                     62                     63
                      A                      A                      A
 Frequencies --   1509.0498              1524.4388              1543.5341
 Red. masses --      1.0857                 1.0673                 2.5373
 Frc consts  --      1.4567                 1.4614                 3.5616
 IR Inten    --     22.2221                17.6205               334.7124

                     64                     65                     66
                      A                      A                      A
 Frequencies --   1554.9764              1640.2063              1649.4268
 Red. masses --      2.1139                 4.8725                 1.1318
 Frc consts  --      3.0115                 7.7232                 1.8143
 IR Inten    --    244.4078              1008.6591                39.6073

                     67                     68                     69
                      A                      A                      A
 Frequencies --   1660.8846              1673.5401              3061.8342
 Red. masses --      3.4754                 5.9875                 1.0381
 Frc consts  --      5.6485                 9.8802                 5.7337
 IR Inten    --    252.7814               243.4557                15.7352

                     70                     71                     72
                      A                      A                      A
 Frequencies --   3075.3655              3125.8055              3142.6920
 Red. masses --      1.0328                 1.0976                 1.0971
 Frc consts  --      5.7550                 6.3184                 6.3839
 IR Inten    --     28.0438                 9.2814                20.5378

                     73                     74                     75
                      A                      A                      A
 Frequencies --   3148.8042              3156.4427              3171.9532
 Red. masses --      1.0974                 1.1051                 1.1059
 Frc consts  --      6.4106                 6.4868                 6.5556
 IR Inten    --     51.6594                 5.1246                15.7377

                     76                     77                     78
                      A                      A                      A
 Frequencies --   3181.2085              3187.0511              3192.8499
 Red. masses --      1.0879                 1.0876                 1.0881
 Frc consts  --      6.4867                 6.5090                 6.5353
 IR Inten    --     18.0491                28.1796                 4.4828

                     79                     80                     81
                      A                      A                      A
 Frequencies --   3202.1958              3219.3216              3270.8284
 Red. masses --      1.0930                 1.0977                 1.0922
 Frc consts  --      6.6034                 6.7027                 6.8847
 IR Inten    --     33.8445                24.4857                 5.9922

                     82                     83                     84
                      A                      A                      A
 Frequencies --   3514.2688              3595.0078              3699.2100
 Red. masses --      1.0514                 1.0961                 1.0750
 Frc consts  --      7.6503                 8.3466                 8.6670
 IR Inten    --     41.0545                47.4041                89.1983

 - Thermochemistry -
 -------------------
 Temperature   298.150 Kelvin.  Pressure   1.00000 Atm.
 Atom     1 has atomic number  6 and mass  12.00000

 Molecular mass:   192.12626 amu.
 Principal axes and moments of inertia in atomic units:
                           1         2         3
     Eigenvalues --  1391.321655061.959885575.45044
           X            0.99995  -0.01025   0.00185
           Y            0.01019   0.99955   0.02821
           Z           -0.00214  -0.02819   0.99960
 This molecule is an asymmetric top.
 Rotational symmetry number  1.
 Warning -- assumption of classical behavior for rotation
           may cause significant error
 Rotational temperatures (Kelvin)      0.06225     0.01711     0.01553
 Rotational constants (GHZ):           1.29714     0.35653     0.32369
    1 imaginary frequencies ignored.
 Zero-point vibrational energy     679277.7 (Joules/Mol)
                                  162.35127 (Kcal/Mol)
 Warning -- explicit consideration of  19 degrees of freedom as
           vibrations may cause significant error
 Vibrational temperatures:     27.28    43.40   104.76   116.27   165.25
          (Kelvin)            167.67   288.76   301.45   337.50   368.95
                              428.22   479.15   503.67   518.05   610.82
                              703.56   742.13   754.22   759.67   904.55
                              920.79   971.41  1031.47  1033.52  1052.49
                             1122.38  1138.16  1237.44  1271.78  1302.22
                             1332.10  1419.35  1435.84  1455.00  1457.29
                             1464.18  1486.34  1519.42  1526.00  1546.80
                             1580.58  1605.20  1697.06  1732.50  1772.98
                             1785.52  1813.30  1835.70  1888.41  1932.27
                             1947.54  1955.74  2028.43  2065.49  2079.51
                             2105.33  2115.44  2151.91  2164.32  2171.19
                             2193.33  2220.80  2237.26  2359.89  2373.16
                             2389.64  2407.85  4405.30  4424.77  4497.34
                             4521.63  4530.43  4541.42  4563.73  4577.05
                             4585.46  4593.80  4607.25  4631.89  4705.99
                             5056.25  5172.41  5322.34

 Zero-point correction=                           0.258723 (Hartree/Particle)
 Thermal correction to Energy=                    0.272703
 Thermal correction to Enthalpy=                  0.273648
 Thermal correction to Gibbs Free Energy=         0.216190
 Sum of electronic and zero-point Energies=           -613.274317
 Sum of electronic and thermal Energies=              -613.260337
 Sum of electronic and thermal Enthalpies=            -613.259393
 Sum of electronic and thermal Free Energies=         -613.316850

                     E (Thermal)             CV                S
                      KCal/Mol        Cal/Mol-Kelvin    Cal/Mol-Kelvin
 Total                  171.124             52.554            120.930
 Electronic               0.000              0.000              0.000
 Translational            0.889              2.981             41.664
 Rotational               0.889              2.981             32.040
 Vibrational            169.346             46.592             47.225
 Vibration     1          0.593              1.986              6.740
 Vibration     2          0.594              1.984              5.819
 Vibration     3          0.599              1.967              4.076
 Vibration     4          0.600              1.962              3.871
 Vibration     5          0.608              1.937              3.185
 Vibration     6          0.608              1.936              3.157
 Vibration     7          0.638              1.839              2.127
 Vibration     8          0.642              1.826              2.048
 Vibration     9          0.654              1.788              1.844
 Vibration    10          0.666              1.752              1.686
 Vibration    11          0.691              1.678              1.430
 Vibration    12          0.715              1.610              1.245
 Vibration    13          0.727              1.575              1.166
 Vibration    14          0.735              1.555              1.122
 Vibration    15          0.787              1.417              0.877
 Vibration    16          0.845              1.274              0.686
 Vibration    17          0.871              1.215              0.620
 Vibration    18          0.879              1.196              0.600
 Vibration    19          0.883              1.188              0.592

 Optimization completed.
    -- Stationary point found.
 Normal termination of Gaussian 16 at Thu Feb 11 05:09:17 2021.
