 Gaussian 16, Revision A.03,
 Gaussian 16:  ES64L-G16RevA.03 25-Dec-2016

 ----------------------------------------------------------------------
 # wB97XD def2tzvp, opt=(ts, noeigen, calcfc, maxcycles=70, maxstep=1),
  freq=noraman, scrf=(iefpcm, solvent=water)
 ----------------------------------------------------------------------

 ------------------------
 0_iteration/TS-217-0.out
 ------------------------
 Symbolic Z-matrix:
 Charge =  0 Multiplicity = 1

 SCF Done:  E(RwB97XD) =  -558.153609782     A.U. after   15 cycles
 SCF Done:  E(RwB97XD) =  -558.153599106     A.U. after   10 cycles
 SCF Done:  E(RwB97XD) =  -558.153592422     A.U. after   10 cycles
 SCF Done:  E(RwB97XD) =  -558.153590402     A.U. after   10 cycles
 SCF Done:  E(RwB97XD) =  -558.153595887     A.U. after   10 cycles
 SCF Done:  E(RwB97XD) =  -558.153613744     A.U. after   11 cycles
 SCF Done:  E(RwB97XD) =  -558.153634594     A.U. after   10 cycles
 SCF Done:  E(RwB97XD) =  -558.153658595     A.U. after    9 cycles
 SCF Done:  E(RwB97XD) =  -558.153681127     A.U. after   10 cycles
 SCF Done:  E(RwB97XD) =  -558.153692677     A.U. after   11 cycles
 SCF Done:  E(RwB97XD) =  -558.154017941     A.U. after   10 cycles
 SCF Done:  E(RwB97XD) =  -558.154027690     A.U. after   10 cycles
 SCF Done:  E(RwB97XD) =  -558.154042394     A.U. after   10 cycles
 SCF Done:  E(RwB97XD) =  -558.154061664     A.U. after   10 cycles
 SCF Done:  E(RwB97XD) =  -558.154080603     A.U. after   10 cycles
 SCF Done:  E(RwB97XD) =  -558.154092556     A.U. after   10 cycles
 SCF Done:  E(RwB97XD) =  -558.154094315     A.U. after   10 cycles
 SCF Done:  E(RwB97XD) =  -558.154094530     A.U. after    8 cycles
 SCF Done:  E(RwB97XD) =  -558.154094500     A.U. after    7 cycles
 Optimization completed.
    -- Stationary point found.
 Normal termination of Gaussian 16 at Wed Feb 10 09:18:58 2021.

 ---------------------------------------------------------------------
 #N Geom=AllCheck Guess=TCheck SCRF=Check GenChk RwB97XD/def2TZVP Freq
 ---------------------------------------------------------------------

 Structure from the checkpoint file:  "/beegfs/scratch/user/q/tla25/Gau-92040.chk"
 ------------------------
 0_iteration/TS-217-0.out
 ------------------------
 Charge =  0 Multiplicity = 1

                         Standard orientation:
 ---------------------------------------------------------------------
 Center     Atomic      Atomic             Coordinates (Angstroms)
 Number     Number       Type             X           Y           Z
 ---------------------------------------------------------------------
      1          6           0        1.559104   -0.613676    0.333027
      2          6           0        1.311308   -1.770243   -0.425984
      3          8           0        2.117069   -2.700176   -0.615066
      4          6           0        0.592056    0.404114    0.491589
      5          6           0        2.212902    2.508655   -0.386995
      6          1           0        2.380864    3.363656   -1.041423
      7          1           0        2.230490    2.842459    0.649356
      8          1           0        3.005578    1.780369   -0.539172
      9          7           0        0.926126    1.870641   -0.661824
     10          1           0        0.160384    2.530625   -0.574261
     11          1           0        0.906082    1.494455   -1.602689
     12          1           0        0.744006    1.019119    1.376135
     13          6           0       -0.865326    0.183694    0.235872
     14          6           0       -1.403533   -0.011977   -1.033866
     15          6           0       -2.763271   -0.226222   -1.201573
     16          6           0       -3.608326   -0.247132   -0.101880
     17          6           0       -3.084866   -0.042994    1.166670
     18          6           0       -1.726350    0.178232    1.330876
     19          1           0       -0.762125   -0.003230   -1.906103
     20          1           0       -3.162123   -0.376925   -2.196638
     21          1           0       -4.669667   -0.414300   -0.233591
     22          1           0       -3.736014   -0.048809    2.031560
     23          1           0       -1.325451    0.344072    2.323942
     24          6           0        2.898764   -0.490727    1.014672
     25          1           0        2.918587    0.358743    1.700136
     26          1           0        3.131631   -1.392242    1.588170
     27          1           0        3.722017   -0.357791    0.305070
     28          1           0        0.301540   -1.863628   -0.861651
 ---------------------------------------------------------------------

 SCF Done:  E(RwB97XD) =  -558.154094500     A.U. after    1 cycles

 The electronic state is 1-A.
 Alpha  occ. eigenvalues --  -19.19206 -14.48840 -10.34364 -10.32556 -10.31909
 Alpha  occ. eigenvalues --  -10.30784 -10.29545 -10.29416 -10.29352 -10.29307
 Alpha  occ. eigenvalues --  -10.29190 -10.26528 -10.25318  -1.08992  -1.04304
 Alpha  occ. eigenvalues --   -0.97392  -0.90716  -0.85591  -0.85445  -0.79526
 Alpha  occ. eigenvalues --   -0.77591  -0.73938  -0.70698  -0.68913  -0.63717
 Alpha  occ. eigenvalues --   -0.62585  -0.59269  -0.57076  -0.56195  -0.56047
 Alpha  occ. eigenvalues --   -0.54851  -0.52356  -0.51812  -0.51071  -0.49385
 Alpha  occ. eigenvalues --   -0.48029  -0.47720  -0.46870  -0.46096  -0.44979
 Alpha  occ. eigenvalues --   -0.44100  -0.43206  -0.42489  -0.41780  -0.34347
 Alpha  occ. eigenvalues --   -0.33972  -0.30653  -0.26303
 Alpha virt. eigenvalues --    0.03409   0.04883   0.06995   0.10001   0.12555
 Alpha virt. eigenvalues --    0.13309   0.13566   0.15130   0.16006   0.16465
 Alpha virt. eigenvalues --    0.17069   0.17728   0.18549   0.18961   0.20034

 Mulliken charges:
               1
     1  C   -0.099622
     2  C    0.077658
     3  O   -0.554570
     4  C   -0.081958
     5  C   -0.295352
     6  H    0.160863
     7  H    0.153881
     8  H    0.158962
     9  N   -0.294447
    10  H    0.286721
    11  H    0.276086
    12  H    0.175901
    13  C    0.255427
    14  C   -0.308311
    15  C   -0.139239
    16  C   -0.153729
    17  C   -0.141163
    18  C   -0.247356
    19  H    0.172164
    20  H    0.145592
    21  H    0.146085
    22  H    0.144909
    23  H    0.143721
    24  C   -0.420140
    25  H    0.128952
    26  H    0.118527
    27  H    0.118877
    28  H    0.071561
 Sum of Mulliken charges =  -0.00000

 Dipole moment (field-independent basis, Debye):
    X=             -4.0027    Y=             11.9682    Z=             -0.4592  Tot=             12.6282
 Quadrupole moment (field-independent basis, Debye-Ang):
   XX=            -81.7533   YY=            -89.1203   ZZ=            -71.3564
   XY=             22.7258   XZ=              1.3918   YZ=             -5.9800

  Exact polarizability: 230.498 -10.690 200.727   1.535   9.463 182.077
 Approx polarizability: 175.205  -7.091 158.525  -0.211   8.619 158.191

 ******    1 imaginary frequencies (negative Signs) ******

                      1                      2                      3
                      A                      A                      A
 Frequencies --   -363.9696                54.0915                57.7343
 Red. masses --      5.9938                 2.8812                 4.3068
 Frc consts  --      0.4678                 0.0050                 0.0085
 IR Inten    --   1089.0802                 2.5602                 9.3864

                      4                      5                      6
                      A                      A                      A
 Frequencies --     83.9861                96.0257               141.3557
 Red. masses --      2.4333                 3.8235                 3.1581
 Frc consts  --      0.0101                 0.0208                 0.0372
 IR Inten    --      4.1469                 7.1620                 1.5848

                      7                      8                      9
                      A                      A                      A
 Frequencies --    156.3833               171.0097               214.6343
 Red. masses --      2.9888                 1.0747                 1.2225
 Frc consts  --      0.0431                 0.0185                 0.0332
 IR Inten    --      4.2268                 0.7208                 1.4906

                     10                     11                     12
                      A                      A                      A
 Frequencies --    243.5459               260.5847               298.7170
 Red. masses --      4.0899                 3.3521                 3.1451
 Frc consts  --      0.1429                 0.1341                 0.1654
 IR Inten    --     11.2095                22.1247                12.2574

                     13                     14                     15
                      A                      A                      A
 Frequencies --    303.1343               329.1813               395.2654
 Red. masses --      3.5413                 3.9558                 2.8906
 Frc consts  --      0.1917                 0.2526                 0.2661
 IR Inten    --      3.0271                 2.9049                33.1878

                     16                     17                     18
                      A                      A                      A
 Frequencies --    423.9531               470.4907               547.9244
 Red. masses --      2.9230                 2.8557                 2.6542
 Frc consts  --      0.3095                 0.3724                 0.4695
 IR Inten    --      1.5265                91.7396               132.6317

                     19                     20                     21
                      A                      A                      A
 Frequencies --    629.7930               637.0251               643.4681
 Red. masses --      4.0282                 5.9637                 2.4570
 Frc consts  --      0.9414                 1.4259                 0.5994
 IR Inten    --     81.0627                 4.6844                20.5383

                     22                     23                     24
                      A                      A                      A
 Frequencies --    729.5893               759.4300               788.0561
 Red. masses --      1.6236                 2.6518                 2.1330
 Frc consts  --      0.5092                 0.9011                 0.7805
 IR Inten    --     82.6987                31.3747                23.3303

                     25                     26                     27
                      A                      A                      A
 Frequencies --    851.4520               880.0461               894.7140
 Red. masses --      3.3909                 1.2513                 3.4342
 Frc consts  --      1.4484                 0.5710                 1.6197
 IR Inten    --      1.8476                 0.0739                 8.3321

                     28                     29                     30
                      A                      A                      A
 Frequencies --    961.0744              1011.5515              1016.9823
 Red. masses --      1.4420                 1.3396                 1.2906
 Frc consts  --      0.7848                 0.8076                 0.7864
 IR Inten    --      2.1837                 8.4730                82.0303

                     31                     32                     33
                      A                      A                      A
 Frequencies --   1023.1442              1026.0083              1028.4085
 Red. masses --      1.5101                 5.2487                 1.3821
 Frc consts  --      0.9314                 3.2554                 0.8612
 IR Inten    --      1.7307                 4.2759                76.8109

                     34                     35                     36
                      A                      A                      A
 Frequencies --   1031.9901              1042.8874              1064.3251
 Red. masses --      1.3017                 1.1848                 1.4866
 Frc consts  --      0.8168                 0.7592                 0.9922
 IR Inten    --      4.5051                70.5487                 9.9475

                     37                     38                     39
                      A                      A                      A
 Frequencies --   1067.4757              1079.4971              1121.1620
 Red. masses --      1.9657                 4.7081                 1.5730
 Frc consts  --      1.3197                 3.2325                 1.1650
 IR Inten    --      3.2931                51.5130                18.3391

                     40                     41                     42
                      A                      A                      A
 Frequencies --   1185.3988              1201.8268              1216.8857
 Red. masses --      1.1505                 1.1752                 1.1456
 Frc consts  --      0.9525                 1.0001                 0.9995
 IR Inten    --      1.5995               145.7426                 1.4095

                     43                     44                     45
                      A                      A                      A
 Frequencies --   1234.1223              1243.4310              1258.0937
 Red. masses --      1.6362                 1.4861                 2.6097
 Frc consts  --      1.4683                 1.3538                 2.4337
 IR Inten    --    106.4758                50.8469                12.8393

                     46                     47                     48
                      A                      A                      A
 Frequencies --   1333.7804              1352.4146              1370.1057
 Red. masses --      3.9772                 1.3544                 1.4712
 Frc consts  --      4.1686                 1.4595                 1.6271
 IR Inten    --     36.0452                 9.0056               134.3123

                     49                     50                     51
                      A                      A                      A
 Frequencies --   1381.2057              1411.8283              1454.2882
 Red. masses --      1.6051                 1.2612                 2.4444
 Frc consts  --      1.8041                 1.4811                 3.0459
 IR Inten    --    315.5680                21.0723                61.1114

                     52                     53                     54
                      A                      A                      A
 Frequencies --   1461.9809              1466.8962              1481.6738
 Red. masses --      1.2062                 1.0613                 1.6166
 Frc consts  --      1.5189                 1.3455                 2.0910
 IR Inten    --      6.2335                19.3234                 5.9422

                     55                     56                     57
                      A                      A                      A
 Frequencies --   1494.0899              1500.7695              1507.9382
 Red. masses --      1.0747                 1.3897                 1.1072
 Frc consts  --      1.4135                 1.8441                 1.4834
 IR Inten    --     24.7433                25.8264                 5.8720

                     58                     59                     60
                      A                      A                      A
 Frequencies --   1520.1519              1550.8303              1633.2266
 Red. masses --      1.8097                 2.4789                 4.4639
 Frc consts  --      2.4639                 3.5127                 7.0155
 IR Inten    --     86.1572                23.9014              1270.9222

                     61                     62                     63
                      A                      A                      A
 Frequencies --   1644.5081              1653.8238              1678.2803
 Red. masses --      1.1022                 5.6356                 5.8343
 Frc consts  --      1.7563                 9.0818                 9.6821
 IR Inten    --     62.7877                 5.5718                 4.0608

                     64                     65                     66
                      A                      A                      A
 Frequencies --   2966.7725              3024.3805              3072.9405
 Red. masses --      1.0812                 1.0390                 1.0979
 Frc consts  --      5.6069                 5.5995                 6.1085
 IR Inten    --    147.8567                87.7675                54.2478

                     67                     68                     69
                      A                      A                      A
 Frequencies --   3075.1882              3112.7622              3126.0495
 Red. masses --      1.0344                 1.1008                 1.0887
 Frc consts  --      5.7633                 6.2840                 6.2681
 IR Inten    --     45.5349                33.2372                41.8308

                     70                     71                     72
                      A                      A                      A
 Frequencies --   3152.2481              3180.3001              3191.5340
 Red. masses --      1.1054                 1.1044                 1.0874
 Frc consts  --      6.4717                 6.5816                 6.5260
 IR Inten    --     14.3838                10.5604                 6.8925

                     73                     74                     75
                      A                      A                      A
 Frequencies --   3196.3383              3204.9751              3213.0885
 Red. masses --      1.0876                 1.0911                 1.0950
 Frc consts  --      6.5467                 6.6036                 6.6606
 IR Inten    --      3.9870                12.0964                37.4685

                     76                     77                     78
                      A                      A                      A
 Frequencies --   3223.7944              3515.6021              3602.9442
 Red. masses --      1.0989                 1.0507                 1.0961
 Frc consts  --      6.7288                 7.6514                 8.3833
 IR Inten    --     14.7992                33.4577                36.1315

 - Thermochemistry -
 -------------------
 Temperature   298.150 Kelvin.  Pressure   1.00000 Atm.
 Atom     1 has atomic number  6 and mass  12.00000

 Molecular mass:   177.11536 amu.
 Principal axes and moments of inertia in atomic units:
                           1         2         3
     Eigenvalues --  1642.584443438.736714136.57888
           X            0.99916   0.03996   0.00875
           Y           -0.03981   0.99907  -0.01666
           Z           -0.00941   0.01630   0.99982
 This molecule is an asymmetric top.
 Rotational symmetry number  1.
 Warning -- assumption of classical behavior for rotation
           may cause significant error
 Rotational temperatures (Kelvin)      0.05273     0.02519     0.02094
 Rotational constants (GHZ):           1.09872     0.52483     0.43629
    1 imaginary frequencies ignored.
 Zero-point vibrational energy     631823.1 (Joules/Mol)
                                  151.00934 (Kcal/Mol)
 Warning -- explicit consideration of  17 degrees of freedom as
           vibrations may cause significant error
 Vibrational temperatures:     77.83    83.07   120.84   138.16   203.38
          (Kelvin)            225.00   246.04   308.81   350.41   374.92
                              429.79   436.14   473.62   568.70   609.97
                              676.93   788.34   906.13   916.54   925.81
                             1049.72  1092.65  1133.84  1225.05  1266.19
                             1287.29  1382.77  1455.40  1463.21  1472.08
                             1476.20  1479.65  1484.80  1500.48  1531.33
                             1535.86  1553.16  1613.10  1705.52  1729.16
                             1750.83  1775.63  1789.02  1810.12  1919.01
                             1945.82  1971.28  1987.25  2031.31  2092.40
                             2103.46  2110.54  2131.80  2149.66  2159.27
                             2169.59  2187.16  2231.30  2349.85  2366.08
                             2379.48  2414.67  4268.52  4351.41  4421.28
                             4424.51  4478.57  4497.69  4535.38  4575.74
                             4591.91  4598.82  4611.24  4622.92  4638.32
                             5058.17  5183.83

 Zero-point correction=                           0.240649 (Hartree/Particle)
 Thermal correction to Energy=                    0.253748
 Thermal correction to Enthalpy=                  0.254693
 Thermal correction to Gibbs Free Energy=         0.200650
 Sum of electronic and zero-point Energies=           -557.913446
 Sum of electronic and thermal Energies=              -557.900346
 Sum of electronic and thermal Enthalpies=            -557.899402
 Sum of electronic and thermal Free Energies=         -557.953445

                     E (Thermal)             CV                S
                      KCal/Mol        Cal/Mol-Kelvin    Cal/Mol-Kelvin
 Total                  159.230             48.454            113.743
 Electronic               0.000              0.000              0.000
 Translational            0.889              2.981             41.422
 Rotational               0.889              2.981             31.525
 Vibrational            157.452             42.492             40.796
 Vibration     1          0.596              1.976              4.662
 Vibration     2          0.596              1.974              4.533
 Vibration     3          0.601              1.960              3.795
 Vibration     4          0.603              1.952              3.533
 Vibration     5          0.615              1.912              2.785
 Vibration     6          0.620              1.896              2.593
 Vibration     7          0.626              1.878              2.424
 Vibration     8          0.645              1.819              2.004
 Vibration     9          0.659              1.773              1.777
 Vibration    10          0.669              1.745              1.658
 Vibration    11          0.692              1.676              1.424
 Vibration    12          0.695              1.668              1.400
 Vibration    13          0.712              1.617              1.264
 Vibration    14          0.762              1.480              0.980
 Vibration    15          0.786              1.418              0.879
 Vibration    16          0.828              1.316              0.736
 Vibration    17          0.903              1.144              0.548

 Optimization completed.
    -- Stationary point found.
 Normal termination of Gaussian 16 at Wed Feb 10 09:59:44 2021.
