 Gaussian 16, Revision A.03,
 Gaussian 16:  ES64L-G16RevA.03 25-Dec-2016

 ----------------------------------------------------------------------
 # wB97XD def2tzvp, opt=(ts, noeigen, calcfc, maxcycles=70, maxstep=8),
  freq=noraman, scrf=(iefpcm, solvent=water)
 ----------------------------------------------------------------------

 ------------------------
 1_iteration/TS-288-1.out
 ------------------------
 Symbolic Z-matrix:
 Charge =  0 Multiplicity = 1

 SCF Done:  E(RwB97XD) =  -789.215752197     A.U. after   15 cycles
 Optimization completed.
    -- Stationary point found.
 Normal termination of Gaussian 16 at Mon Mar 29 11:26:37 2021.

 ---------------------------------------------------------------------
 #N Geom=AllCheck Guess=TCheck SCRF=Check GenChk RwB97XD/def2TZVP Freq
 ---------------------------------------------------------------------

 Structure from the checkpoint file:  "/beegfs/scratch/user/q/tla25/Gau-86201.chk"
 ------------------------
 1_iteration/TS-288-1.out
 ------------------------
 Charge =  0 Multiplicity = 1

                         Standard orientation:
 ---------------------------------------------------------------------
 Center     Atomic      Atomic             Coordinates (Angstroms)
 Number     Number       Type             X           Y           Z
 ---------------------------------------------------------------------
      1          6           0       -0.851060   -0.247130    0.409671
      2          6           0        0.002160   -1.358029    0.095321
      3          8           0       -0.413099   -2.501430   -0.146899
      4          6           0       -2.181990   -0.455850    0.786191
      5          6           0       -4.641680   -0.901191   -0.959379
      6          1           0       -5.040140   -0.955131   -1.974919
      7          1           0       -4.911389   -1.814291   -0.431959
      8          1           0       -5.099200   -0.055501   -0.446559
      9          7           0       -3.191770   -0.744231   -0.940099
     10          1           0       -2.708600   -1.561930   -1.292319
     11          1           0       -2.890940    0.054239   -1.484039
     12          1           0       -2.728820    0.453640    1.015051
     13          6           0       -2.691209   -1.642040    1.551081
     14          1           0       -2.304120   -1.574270    2.571131
     15          1           0       -3.778400   -1.626821    1.614751
     16          1           0       -2.359099   -2.581610    1.121681
     17          6           0       -0.426401    1.146580    0.127951
     18          6           0        0.227189    1.483511   -1.061689
     19          6           0        0.611799    2.787571   -1.331659
     20          6           0        0.336198    3.801151   -0.424239
     21          6           0       -0.325692    3.491080    0.755701
     22          6           0       -0.694571    2.182440    1.027731
     23          1           0        0.435650    0.707541   -1.788649
     24          1           0        1.119259    3.014991   -2.261379
     25          1           0        0.632428    4.821041   -0.634809
     26          1           0       -0.544092    4.270250    1.475991
     27          1           0       -1.183841    1.953020    1.967421
     28          6           0        1.495800   -1.152179    0.072161
     29          6           0        2.140270   -0.382399    1.035971
     30          6           0        3.520950   -0.256248    1.028501
     31          6           0        4.271420   -0.884188    0.043761
     32          6           0        3.635921   -1.653008   -0.922169
     33          6           0        2.257161   -1.795339   -0.898409
     34          1           0        1.555840    0.117371    1.798331
     35          1           0        4.012350    0.335362    1.790801
     36          1           0        5.348870   -0.777207    0.030831
     37          1           0        4.216761   -2.144578   -1.692679
     38          1           0        1.757071   -2.403459   -1.641759
 ---------------------------------------------------------------------

 SCF Done:  E(RwB97XD) =  -789.215752197     A.U. after    1 cycles

 The electronic state is 1-A.
 Alpha  occ. eigenvalues --  -19.20803 -14.46363 -10.35351 -10.33374 -10.31214
 Alpha  occ. eigenvalues --  -10.29497 -10.29227 -10.29052 -10.28975 -10.28935
 Alpha  occ. eigenvalues --  -10.28897 -10.28858 -10.28531 -10.28497 -10.28264
 Alpha  occ. eigenvalues --  -10.28131 -10.28099 -10.27303 -10.25802  -1.11387
 Alpha  occ. eigenvalues --   -1.02004  -0.96662  -0.96075  -0.90622  -0.86417
 Alpha  occ. eigenvalues --   -0.85028  -0.84706  -0.84416  -0.79339  -0.77996
 Alpha  occ. eigenvalues --   -0.73334  -0.70427  -0.69851  -0.69044  -0.67614
 Alpha  occ. eigenvalues --   -0.63081  -0.61768  -0.61272  -0.58448  -0.55985
 Alpha  occ. eigenvalues --   -0.55727  -0.54755  -0.54509  -0.53499  -0.53040
 Alpha  occ. eigenvalues --   -0.52490  -0.51031  -0.50866  -0.50758  -0.50211
 Alpha  occ. eigenvalues --   -0.48791  -0.47669  -0.47243  -0.46810  -0.45892
 Alpha  occ. eigenvalues --   -0.45172  -0.44513  -0.43845  -0.42419  -0.42061
 Alpha  occ. eigenvalues --   -0.41790  -0.39591  -0.34803  -0.33933  -0.33523
 Alpha  occ. eigenvalues --   -0.32850  -0.31542  -0.26332
 Alpha virt. eigenvalues --    0.01890   0.04594   0.05620   0.05943   0.07522
 Alpha virt. eigenvalues --    0.10358   0.12773   0.13355   0.13772   0.14684
 Alpha virt. eigenvalues --    0.14988   0.15753   0.16357   0.16911   0.17514

 Mulliken charges:
               1
     1  C   -0.079087
     2  C    0.272568
     3  O   -0.514549
     4  C   -0.043420
     5  C   -0.281385
     6  H    0.144242
     7  H    0.150797
     8  H    0.147199
     9  N   -0.379780
    10  H    0.270701
    11  H    0.274070
    12  H    0.152012
    13  C   -0.365042
    14  H    0.137779
    15  H    0.137796
    16  H    0.149426
    17  C    0.115803
    18  C   -0.229159
    19  C   -0.161892
    20  C   -0.149271
    21  C   -0.150334
    22  C   -0.258827
    23  H    0.143946
    24  H    0.135759
    25  H    0.139490
    26  H    0.136493
    27  H    0.147976
    28  C    0.119774
    29  C   -0.215352
    30  C   -0.162546
    31  C   -0.128958
    32  C   -0.147319
    33  C   -0.226573
    34  H    0.157127
    35  H    0.140260
    36  H    0.144102
    37  H    0.140864
    38  H    0.135310
 Sum of Mulliken charges =   0.00000

 Dipole moment (field-independent basis, Debye):
    X=             -5.7225    Y=              2.7605    Z=             -1.5507  Tot=              6.5400
 Quadrupole moment (field-independent basis, Debye-Ang):
   XX=            -83.0803   YY=           -122.9876   ZZ=           -104.1169
   XY=              4.3827   XZ=              2.0796   YZ=              4.7336

  Exact polarizability: 347.513  12.139 302.849 -15.735  25.972 259.575
 Approx polarizability: 253.148   9.801 243.784 -14.301  24.281 224.633

 ******    1 imaginary frequencies (negative Signs) ******

                      1                      2                      3
                      A                      A                      A
 Frequencies --   -335.6910                30.3533                36.5747
 Red. masses --      6.0292                 3.7811                 4.6916
 Frc consts  --      0.4003                 0.0021                 0.0037
 IR Inten    --    950.2238                 6.8415                 5.6051

                      4                      5                      6
                      A                      A                      A
 Frequencies --     45.0446                55.4724                58.1164
 Red. masses --      4.3647                 3.6362                 3.8604
 Frc consts  --      0.0052                 0.0066                 0.0077
 IR Inten    --      1.0950                 1.0850                 0.5400

                      7                      8                      9
                      A                      A                      A
 Frequencies --     73.0596                93.1596               130.0825
 Red. masses --      1.8404                 4.8387                 3.8421
 Frc consts  --      0.0058                 0.0247                 0.0383
 IR Inten    --      7.4314                 7.2099                 3.8675

                     10                     11                     12
                      A                      A                      A
 Frequencies --    152.4364               164.6449               204.4433
 Red. masses --      1.1661                 3.0214                 2.7557
 Frc consts  --      0.0160                 0.0483                 0.0679
 IR Inten    --      1.3240                 5.6601                32.5360

                     13                     14                     15
                      A                      A                      A
 Frequencies --    208.9259               240.0162               264.0457
 Red. masses --      3.4718                 2.9233                 1.9005
 Frc consts  --      0.0893                 0.0992                 0.0781
 IR Inten    --      0.4166                18.7243                10.4857

                     16                     17                     18
                      A                      A                      A
 Frequencies --    269.3949               324.7959               363.1472
 Red. masses --      3.3231                 2.7780                 6.6600
 Frc consts  --      0.1421                 0.1727                 0.5175
 IR Inten    --      7.5794                18.3287                21.8346

                     19                     20                     21
                      A                      A                      A
 Frequencies --    390.2193               417.6399               421.9738
 Red. masses --      3.3436                 3.4578                 3.0930
 Frc consts  --      0.3000                 0.3553                 0.3245
 IR Inten    --      3.5893                 4.1849                 1.8586

                     22                     23                     24
                      A                      A                      A
 Frequencies --    425.8623               489.9852               507.6507
 Red. masses --      3.1787                 3.9370                 4.3680
 Frc consts  --      0.3397                 0.5569                 0.6632
 IR Inten    --      3.9851                25.8987                68.4399

                     25                     26                     27
                      A                      A                      A
 Frequencies --    533.4625               599.2368               607.9342
 Red. masses --      4.0374                 2.3408                 1.6331
 Frc consts  --      0.6770                 0.4952                 0.3556
 IR Inten    --      6.6974                21.6198                30.3106

                     28                     29                     30
                      A                      A                      A
 Frequencies --    635.7758               639.3616               681.4629
 Red. masses --      6.3899                 6.2159                 5.6125
 Frc consts  --      1.5218                 1.4971                 1.5356
 IR Inten    --      0.2522                 1.1542                16.8138

                     31                     32                     33
                      A                      A                      A
 Frequencies --    714.8905               723.3054               725.5968
 Red. masses --      5.2776                 1.6421                 1.5530
 Frc consts  --      1.5891                 0.5062                 0.4817
 IR Inten    --     10.0567                76.3088                95.8174

                     34                     35                     36
                      A                      A                      A
 Frequencies --    754.8209               798.0342               830.9665
 Red. masses --      2.9932                 2.2592                 3.2286
 Frc consts  --      1.0048                 0.8477                 1.3135
 IR Inten    --     80.8350                45.7738                61.7972

                     37                     38                     39
                      A                      A                      A
 Frequencies --    872.0416               879.2517               907.8635
 Red. masses --      1.2517                 1.2508                 2.2668
 Frc consts  --      0.5608                 0.5697                 1.1008
 IR Inten    --      1.2764                 0.9096                26.4169

                     40                     41                     42
                      A                      A                      A
 Frequencies --    943.1368               955.8909               964.8841
 Red. masses --      1.5869                 1.9360                 1.4441
 Frc consts  --      0.8317                 1.0423                 0.7921
 IR Inten    --      6.9185                97.0895                19.7176

                     43                     44                     45
                      A                      A                      A
 Frequencies --    996.0768              1001.9682              1006.8084
 Red. masses --      1.2236                 1.2639                 1.3770
 Frc consts  --      0.7153                 0.7476                 0.8224
 IR Inten    --     32.6083               162.5721                 1.2159

                     46                     47                     48
                      A                      A                      A
 Frequencies --   1014.3753              1020.4222              1023.7606
 Red. masses --      1.3822                 1.3167                 4.9107
 Frc consts  --      0.8379                 0.8078                 3.0324
 IR Inten    --      0.5958                 0.2860                 0.4838

                     49                     50                     51
                      A                      A                      A
 Frequencies --   1026.2849              1029.9361              1034.5678
 Red. masses --      5.5483                 1.3685                 1.6767
 Frc consts  --      3.4431                 0.8553                 1.0574
 IR Inten    --      1.0060                 1.0245                 8.4834

                     52                     53                     54
                      A                      A                      A
 Frequencies --   1056.6222              1065.9332              1069.1415
 Red. masses --      2.2984                 1.9851                 2.9838
 Frc consts  --      1.5119                 1.3289                 2.0095
 IR Inten    --     38.7646                12.8942               182.3980

                     55                     56                     57
                      A                      A                      A
 Frequencies --   1092.6835              1109.7370              1110.8775
 Red. masses --      1.8894                 1.5608                 1.5438
 Frc consts  --      1.3291                 1.1325                 1.1224
 IR Inten    --     42.2415                18.2152                 1.0873

                     58                     59                     60
                      A                      A                      A
 Frequencies --   1134.7489              1164.3117              1180.3612
 Red. masses --      1.5300                 2.1920                 1.1278
 Frc consts  --      1.1608                 1.7508                 0.9258
 IR Inten    --     81.6760                34.7759                 0.8082

                     61                     62                     63
                      A                      A                      A
 Frequencies --   1182.1253              1197.8087              1202.0962
 Red. masses --      1.1334                 1.4054                 1.1249
 Frc consts  --      0.9332                 1.1880                 0.9577
 IR Inten    --      0.4077                19.8137                 6.4574

                     64                     65                     66
                      A                      A                      A
 Frequencies --   1209.4958              1256.7402              1305.3484
 Red. masses --      1.1248                 3.1904                 2.7182
 Frc consts  --      0.9695                 2.9689                 2.7289
 IR Inten    --      2.6578                17.3630                74.9334

                     67                     68                     69
                      A                      A                      A
 Frequencies --   1309.5476              1327.9248              1344.1809
 Red. masses --      3.2096                 3.9746                 1.3287
 Frc consts  --      3.2430                 4.1294                 1.4145
 IR Inten    --     24.9245                 9.9250                 5.9510

                     70                     71                     72
                      A                      A                      A
 Frequencies --   1353.6014              1356.5724              1395.0680
 Red. masses --      1.5761                 1.5752                 1.7098
 Frc consts  --      1.7014                 1.7080                 1.9606
 IR Inten    --     17.7061                55.5995               489.4742

                     73                     74                     75
                      A                      A                      A
 Frequencies --   1401.0870              1451.5777              1469.7635
 Red. masses --      1.9084                 1.4005                 1.2411
 Frc consts  --      2.2072                 1.7387                 1.5797
 IR Inten    --    348.1697               112.6365                67.3286

                     76                     77                     78
                      A                      A                      A
 Frequencies --   1488.0475              1490.2439              1492.9164
 Red. masses --      2.2054                 1.8513                 1.0929
 Frc consts  --      2.8773                 2.4224                 1.4352
 IR Inten    --      8.0474                 3.9621                 8.5093

                     79                     80                     81
                      A                      A                      A
 Frequencies --   1495.0685              1504.0677              1516.1746
 Red. masses --      1.0884                 1.5643                 1.0956
 Frc consts  --      1.4334                 2.0850                 1.4838
 IR Inten    --     22.1410               225.5502                67.3371

                     82                     83                     84
                      A                      A                      A
 Frequencies --   1538.4682              1541.2102              1624.9639
 Red. masses --      2.3250                 2.3870                 7.4684
 Frc consts  --      3.2422                 3.3407                11.6189
 IR Inten    --      4.3743                66.0430               585.2870

                     85                     86                     87
                      A                      A                      A
 Frequencies --   1642.2046              1649.2337              1656.0360
 Red. masses --      5.8153                 1.1103                 6.0448
 Frc consts  --      9.2401                 1.7792                 9.7673
 IR Inten    --     41.3800                51.1955               125.7984

                     88                     89                     90
                      A                      A                      A
 Frequencies --   1670.5282              1673.4124              3054.0336
 Red. masses --      5.8957                 6.0162                 1.0373
 Frc consts  --      9.6938                 9.9261                 5.7005
 IR Inten    --      2.6638                 9.2559                84.1209

                     91                     92                     93
                      A                      A                      A
 Frequencies --   3064.8971              3127.4011              3133.0892
 Red. masses --      1.0443                 1.1007                 1.0953
 Frc consts  --      5.7796                 6.3428                 6.3347
 IR Inten    --     23.6958                25.9584                35.7804

                     94                     95                     96
                      A                      A                      A
 Frequencies --   3158.9957              3166.0927              3184.0923
 Red. masses --      1.1040                 1.0894                 1.0863
 Frc consts  --      6.4913                 6.4342                 6.4886
 IR Inten    --     24.9749                14.5362                12.6269

                     97                     98                     99
                      A                      A                      A
 Frequencies --   3188.0654              3192.4813              3198.5599
 Red. masses --      1.0872                 1.0856                 1.0941
 Frc consts  --      6.5107                 6.5190                 6.5947
 IR Inten    --      2.2461                 0.8743                13.0722

                    100                    101                    102
                      A                      A                      A
 Frequencies --   3199.0174              3199.5382              3204.7058
 Red. masses --      1.0958                 1.0882                 1.0948
 Frc consts  --      6.6074                 6.5633                 6.6248
 IR Inten    --      6.6601                 2.2790                53.2465

                    103                    104                    105
                      A                      A                      A
 Frequencies --   3207.3748              3214.0842              3217.6085
 Red. masses --      1.0916                 1.0948                 1.0986
 Frc consts  --      6.6166                 6.6636                 6.7013
 IR Inten    --     14.5478                35.7294                21.9949

                    106                    107                    108
                      A                      A                      A
 Frequencies --   3221.2351              3532.5372              3616.3595
 Red. masses --      1.0987                 1.0508                 1.0963
 Frc consts  --      6.7172                 7.7261                 8.4477
 IR Inten    --     19.5850                12.2542                40.4932

 - Thermochemistry -
 -------------------
 Temperature   298.150 Kelvin.  Pressure   1.00000 Atm.
 Atom     1 has atomic number  6 and mass  12.00000

 Molecular mass:   253.14666 amu.
 Principal axes and moments of inertia in atomic units:
                           1         2         3
     Eigenvalues --  3866.489705890.702618248.80657
           X            0.99945   0.03311  -0.00156
           Y           -0.03310   0.99944   0.00429
           Z            0.00170  -0.00424   0.99999
 This molecule is an asymmetric top.
 Rotational symmetry number  1.
 Warning -- assumption of classical behavior for rotation
           may cause significant error
 Rotational temperatures (Kelvin)      0.02240     0.01470     0.01050
 Rotational constants (GHZ):           0.46676     0.30637     0.21879
    1 imaginary frequencies ignored.
 Zero-point vibrational energy     843961.0 (Joules/Mol)
                                  201.71152 (Kcal/Mol)
 Warning -- explicit consideration of  26 degrees of freedom as
           vibrations may cause significant error
 Vibrational temperatures:     43.67    52.62    64.81    79.81    83.62
          (Kelvin)            105.12   134.04   187.16   219.32   236.89
                              294.15   300.60   345.33   379.90   387.60
                              467.31   522.49   561.44   600.89   607.13
                              612.72   704.98   730.40   767.53   862.17
                              874.68   914.74   919.90   980.47  1028.57
                             1040.68  1043.97  1086.02  1148.19  1195.58
                             1254.67  1265.05  1306.21  1356.96  1375.31
                             1388.25  1433.13  1441.61  1448.57  1459.46
                             1468.16  1472.96  1476.60  1481.85  1488.51
                             1520.24  1533.64  1538.26  1572.13  1596.66
                             1598.30  1632.65  1675.18  1698.28  1700.81
                             1723.38  1729.55  1740.19  1808.17  1878.11
                             1884.15  1910.59  1933.98  1947.53  1951.81
                             2007.19  2015.85  2088.50  2114.66  2140.97
                             2144.13  2147.97  2151.07  2164.02  2181.44
                             2213.51  2217.46  2337.96  2362.77  2372.88
                             2382.67  2403.52  2407.67  4394.07  4409.70
                             4499.63  4507.82  4545.09  4555.30  4581.20
                             4586.92  4593.27  4602.01  4602.67  4603.42
                             4610.86  4614.70  4624.35  4629.42  4634.64
                             5082.53  5203.13

 Zero-point correction=                           0.321448 (Hartree/Particle)
 Thermal correction to Energy=                    0.339404
 Thermal correction to Enthalpy=                  0.340348
 Thermal correction to Gibbs Free Energy=         0.273595
 Sum of electronic and zero-point Energies=           -788.894304
 Sum of electronic and thermal Energies=              -788.876349
 Sum of electronic and thermal Enthalpies=            -788.875404
 Sum of electronic and thermal Free Energies=         -788.942157

                     E (Thermal)             CV                S
                      KCal/Mol        Cal/Mol-Kelvin    Cal/Mol-Kelvin
 Total                  212.979             67.748            140.492
 Electronic               0.000              0.000              0.000
 Translational            0.889              2.981             42.487
 Rotational               0.889              2.981             33.596
 Vibrational            211.201             61.786             64.410
 Vibration     1          0.594              1.984              5.806
 Vibration     2          0.594              1.982              5.436
 Vibration     3          0.595              1.979              5.024
 Vibration     4          0.596              1.975              4.612
 Vibration     5          0.596              1.974              4.520
 Vibration     6          0.599              1.967              4.069
 Vibration     7          0.602              1.954              3.593
 Vibration     8          0.612              1.923              2.945
 Vibration     9          0.619              1.900              2.642
 Vibration    10          0.623              1.886              2.496
 Vibration    11          0.640              1.834              2.093
 Vibration    12          0.642              1.827              2.053
 Vibration    13          0.657              1.779              1.803
 Vibration    14          0.671              1.739              1.635
 Vibration    15          0.674              1.729              1.600
 Vibration    16          0.709              1.626              1.286
 Vibration    17          0.737              1.548              1.109
 Vibration    18          0.758              1.491              0.999
 Vibration    19          0.781              1.432              0.900
 Vibration    20          0.784              1.422              0.885
 Vibration    21          0.788              1.414              0.872
 Vibration    22          0.846              1.272              0.684
 Vibration    23          0.863              1.233              0.639
 Vibration    24          0.888              1.176              0.580
 Vibration    25          0.957              1.033              0.451
 Vibration    26          0.967              1.015              0.436

 Optimization completed.
    -- Stationary point found.
 Normal termination of Gaussian 16 at Mon Mar 29 13:34:39 2021.
