 Gaussian 16, Revision A.03,
 Gaussian 16:  ES64L-G16RevA.03 25-Dec-2016

 ----------------------------------------------------------------------
 # wB97XD def2tzvp, opt=(ts, noeigen, calcfc, maxcycles=70, maxstep=3),
  freq=noraman, scrf=(iefpcm, solvent=water)
 ----------------------------------------------------------------------

 ------------------------
 3_iteration/TS-224-3.out
 ------------------------
 Symbolic Z-matrix:
 Charge =  0 Multiplicity = 1

 SCF Done:  E(RwB97XD) =  -789.208116918     A.U. after   15 cycles
 SCF Done:  E(RwB97XD) =  -789.208118914     A.U. after   10 cycles
 SCF Done:  E(RwB97XD) =  -789.208118910     A.U. after    6 cycles
 Optimization completed.
    -- Stationary point found.
 Normal termination of Gaussian 16 at Thu Feb 11 12:46:14 2021.

 ---------------------------------------------------------------------
 #N Geom=AllCheck Guess=TCheck SCRF=Check GenChk RwB97XD/def2TZVP Freq
 ---------------------------------------------------------------------

 Structure from the checkpoint file:  "/beegfs/scratch/user/q/tla25/Gau-31156.chk"
 ------------------------
 3_iteration/TS-224-3.out
 ------------------------
 Charge =  0 Multiplicity = 1

                         Standard orientation:
 ---------------------------------------------------------------------
 Center     Atomic      Atomic             Coordinates (Angstroms)
 Number     Number       Type             X           Y           Z
 ---------------------------------------------------------------------
      1          6           0        0.112678    0.633481    0.854713
      2          6           0        0.794957    0.146947   -0.295844
      3          8           0        0.264897    0.059676   -1.423100
      4          6           0       -1.274303    0.818978    0.799554
      5          6           0       -0.730526    3.373914   -0.439316
      6          1           0        0.252126    3.028983   -0.111337
      7          1           0       -0.605621    3.956755   -1.353830
      8          1           0       -1.155594    4.009839    0.335800
      9          7           0       -1.577356    2.211676   -0.636097
     10          1           0       -2.546982    2.449208   -0.794703
     11          1           0       -1.235196    1.621048   -1.389101
     12          1           0       -1.674942    1.422179    1.610287
     13          6           0       -2.277253   -0.181413    0.329519
     14          6           0       -1.929926   -1.498602    0.040665
     15          6           0       -2.895651   -2.424229   -0.320787
     16          6           0       -4.231730   -2.054194   -0.388542
     17          6           0       -4.595790   -0.752456   -0.076297
     18          6           0       -3.626602    0.169249    0.286082
     19          1           0       -0.894768   -1.802186    0.110631
     20          1           0       -2.603410   -3.442803   -0.543722
     21          1           0       -4.985302   -2.779150   -0.669102
     22          1           0       -5.636489   -0.455347   -0.105834
     23          1           0       -3.926307    1.177260    0.549434
     24          6           0        0.863805    1.223829    2.032319
     25          1           0        0.311412    2.073446    2.440835
     26          1           0        1.002091    0.512471    2.852255
     27          1           0        1.853700    1.587763    1.753462
     28          6           0        2.247067   -0.230460   -0.191394
     29          6           0        2.717000   -1.016721    0.855961
     30          6           0        4.046592   -1.409467    0.901202
     31          6           0        4.925471   -1.001123   -0.092230
     32          6           0        4.465795   -0.211790   -1.138442
     33          6           0        3.131629    0.160245   -1.192453
     34          1           0        2.033125   -1.333908    1.633717
     35          1           0        4.397424   -2.033753    1.713414
     36          1           0        5.965683   -1.299331   -0.053231
     37          1           0        5.148387    0.109925   -1.915146
     38          1           0        2.763700    0.761319   -2.014621
 ---------------------------------------------------------------------

 SCF Done:  E(RwB97XD) =  -789.208118910     A.U. after    1 cycles

 The electronic state is 1-A.
 Alpha  occ. eigenvalues --  -19.20418 -14.46095 -10.34794 -10.33418 -10.30836
 Alpha  occ. eigenvalues --  -10.30242 -10.29245 -10.29189 -10.29085 -10.29073
 Alpha  occ. eigenvalues --  -10.29058 -10.29015 -10.28985 -10.28968 -10.28944
 Alpha  occ. eigenvalues --  -10.28919 -10.28884 -10.26976 -10.25844  -1.10841
 Alpha  occ. eigenvalues --   -1.01853  -0.96938  -0.96505  -0.90584  -0.86799
 Alpha  occ. eigenvalues --   -0.85245  -0.85076  -0.84606  -0.78354  -0.77046
 Alpha  occ. eigenvalues --   -0.74647  -0.71110  -0.70292  -0.69823  -0.67596
 Alpha  occ. eigenvalues --   -0.63482  -0.61628  -0.61425  -0.58086  -0.56096
 Alpha  occ. eigenvalues --   -0.55473  -0.55130  -0.54621  -0.53409  -0.53257
 Alpha  occ. eigenvalues --   -0.52013  -0.51757  -0.51001  -0.50918  -0.49691
 Alpha  occ. eigenvalues --   -0.47932  -0.47565  -0.46969  -0.46633  -0.45960
 Alpha  occ. eigenvalues --   -0.45782  -0.44446  -0.43695  -0.42690  -0.42386
 Alpha  occ. eigenvalues --   -0.41945  -0.40700  -0.34328  -0.33801  -0.33624
 Alpha  occ. eigenvalues --   -0.32834  -0.31560  -0.26650
 Alpha virt. eigenvalues --    0.00624   0.04357   0.05290   0.05427   0.08745
 Alpha virt. eigenvalues --    0.10576   0.12328   0.13403   0.13879   0.14746
 Alpha virt. eigenvalues --    0.15227   0.16095   0.16484   0.16824   0.17301

 Mulliken charges:
               1
     1  C   -0.212019
     2  C    0.280239
     3  O   -0.547573
     4  C    0.061958
     5  C   -0.273231
     6  H    0.146156
     7  H    0.143447
     8  H    0.144749
     9  N   -0.366558
    10  H    0.267355
    11  H    0.268697
    12  H    0.160749
    13  C    0.150911
    14  C   -0.189282
    15  C   -0.147416
    16  C   -0.147524
    17  C   -0.141640
    18  C   -0.293950
    19  H    0.154775
    20  H    0.140902
    21  H    0.144275
    22  H    0.142753
    23  H    0.156718
    24  C   -0.400614
    25  H    0.135108
    26  H    0.127274
    27  H    0.134127
    28  C    0.145303
    29  C   -0.232567
    30  C   -0.147601
    31  C   -0.131402
    32  C   -0.143952
    33  C   -0.251740
    34  H    0.157902
    35  H    0.141276
    36  H    0.144547
    37  H    0.141363
    38  H    0.136488
 Sum of Mulliken charges =  -0.00000

 Dipole moment (field-independent basis, Debye):
    X=             -3.0365    Y=              4.3282    Z=              1.8593  Tot=              5.6045
 Quadrupole moment (field-independent basis, Debye-Ang):
   XX=            -93.6145   YY=            -96.8692   ZZ=           -116.8791
   XY=             -9.0166   XZ=              2.1784   YZ=             -4.1482

  Exact polarizability: 379.297 -22.398 281.429   0.993  -8.243 242.028
 Approx polarizability: 278.085 -16.969 229.391   1.363  -6.890 212.490

 ******    1 imaginary frequencies (negative Signs) ******

                      1                      2                      3
                      A                      A                      A
 Frequencies --   -388.6623                29.5593                41.4189
 Red. masses --      5.2572                 4.8799                 3.9715
 Frc consts  --      0.4679                 0.0025                 0.0040
 IR Inten    --    810.0868                 1.0142                 1.1266

                      4                      5                      6
                      A                      A                      A
 Frequencies --     48.1665                68.1563                94.6094
 Red. masses --      3.7095                 3.0310                 3.5869
 Frc consts  --      0.0051                 0.0083                 0.0189
 IR Inten    --      0.1183                 1.6123                 3.7629

                      7                      8                      9
                      A                      A                      A
 Frequencies --    100.3222               131.3323               140.5558
 Red. masses --      3.3417                 3.3097                 4.0479
 Frc consts  --      0.0198                 0.0336                 0.0471
 IR Inten    --      8.3542                10.1473                 6.1104

                     10                     11                     12
                      A                      A                      A
 Frequencies --    165.0102               177.4875               202.9285
 Red. masses --      1.4820                 1.3867                 1.6506
 Frc consts  --      0.0238                 0.0257                 0.0400
 IR Inten    --     12.7798                 7.8531                12.1456

                     13                     14                     15
                      A                      A                      A
 Frequencies --    212.3832               226.9853               257.4991
 Red. masses --      3.3645                 4.4812                 3.2015
 Frc consts  --      0.0894                 0.1360                 0.1251
 IR Inten    --      0.4761                 1.6509                 6.0346

                     16                     17                     18
                      A                      A                      A
 Frequencies --    285.4704               301.9598               346.2143
 Red. masses --      4.0763                 3.9755                 3.8310
 Frc consts  --      0.1957                 0.2136                 0.2706
 IR Inten    --      4.6618                36.8259                 5.6208

                     19                     20                     21
                      A                      A                      A
 Frequencies --    385.2852               422.9241               424.7556
 Red. masses --      5.7356                 2.8916                 2.9049
 Frc consts  --      0.5016                 0.3047                 0.3088
 IR Inten    --      5.5450                 0.6717                 0.1865

                     22                     23                     24
                      A                      A                      A
 Frequencies --    449.0914               480.4652               527.6451
 Red. masses --      3.1401                 3.8047                 2.7680
 Frc consts  --      0.3731                 0.5175                 0.4540
 IR Inten    --     33.7214                18.8135                97.4213

                     25                     26                     27
                      A                      A                      A
 Frequencies --    573.5369               607.8549               634.7636
 Red. masses --      3.7208                 4.4987                 4.1710
 Frc consts  --      0.7211                 0.9793                 0.9902
 IR Inten    --     20.5154                38.5325                23.0622

                     28                     29                     30
                      A                      A                      A
 Frequencies --    638.0019               639.9774               680.5412
 Red. masses --      5.1990                 3.7850                 2.6147
 Frc consts  --      1.2469                 0.9134                 0.7135
 IR Inten    --      7.4972                50.6097                15.9808

                     31                     32                     33
                      A                      A                      A
 Frequencies --    723.6221               726.2412               730.1216
 Red. masses --      1.8745                 1.8364                 3.0122
 Frc consts  --      0.5783                 0.5707                 0.9461
 IR Inten    --     73.0464                47.8302                32.9660

                     34                     35                     36
                      A                      A                      A
 Frequencies --    755.8360               784.0787               830.6021
 Red. masses --      3.3585                 1.8854                 2.9531
 Frc consts  --      1.1304                 0.6829                 1.2004
 IR Inten    --     85.2724                57.2145                25.2636

                     37                     38                     39
                      A                      A                      A
 Frequencies --    867.0934               877.8233               882.9221
 Red. masses --      3.4154                 1.2595                 1.2475
 Frc consts  --      1.5130                 0.5718                 0.5730
 IR Inten    --      1.8497                 2.0805                 0.8504

                     40                     41                     42
                      A                      A                      A
 Frequencies --    958.6880               967.2422               967.8779
 Red. masses --      1.2750                 1.4727                 1.2597
 Frc consts  --      0.6904                 0.8118                 0.6953
 IR Inten    --    102.6966                 8.5677                52.4243

                     43                     44                     45
                      A                      A                      A
 Frequencies --   1014.7339              1014.8845              1016.3709
 Red. masses --      1.5933                 2.1487                 1.3777
 Frc consts  --      0.9666                 1.3039                 0.8385
 IR Inten    --      0.9885                 6.2940                 9.1503

                     46                     47                     48
                      A                      A                      A
 Frequencies --   1026.5821              1027.4989              1028.2410
 Red. masses --      5.8415                 3.8575                 1.5323
 Frc consts  --      3.6271                 2.3995                 0.9545
 IR Inten    --      7.2074                15.8843                58.9011

                     49                     50                     51
                      A                      A                      A
 Frequencies --   1030.1277              1032.6981              1040.2477
 Red. masses --      1.3916                 1.4234                 1.4279
 Frc consts  --      0.8700                 0.8944                 0.9104
 IR Inten    --     71.4137                68.5714                39.0854

                     52                     53                     54
                      A                      A                      A
 Frequencies --   1050.8944              1063.4419              1066.1533
 Red. masses --      1.2919                 1.9130                 1.9546
 Frc consts  --      0.8406                 1.2747                 1.3090
 IR Inten    --     40.1752                 6.7014                 5.1222

                     55                     56                     57
                      A                      A                      A
 Frequencies --   1086.1980              1099.5450              1109.7751
 Red. masses --      1.5728                 2.6358                 1.5200
 Frc consts  --      1.0933                 1.8775                 1.1030
 IR Inten    --     60.9851                 2.0834                14.8999

                     58                     59                     60
                      A                      A                      A
 Frequencies --   1120.1712              1182.8128              1183.1179
 Red. masses --      1.5646                 1.1379                 1.1612
 Frc consts  --      1.1567                 0.9379                 0.9577
 IR Inten    --      8.6412                 0.3109                 1.8423

                     61                     62                     63
                      A                      A                      A
 Frequencies --   1186.2262              1200.7590              1207.8214
 Red. masses --      1.3888                 1.2358                 2.2409
 Frc consts  --      1.1514                 1.0498                 1.9261
 IR Inten    --     20.6724                12.7878                 5.1638

                     64                     65                     66
                      A                      A                      A
 Frequencies --   1212.0159              1231.6863              1274.4658
 Red. masses --      1.1322                 3.6583                 2.0872
 Frc consts  --      0.9800                 3.2699                 1.9974
 IR Inten    --      3.0755                22.9879                19.4721

                     67                     68                     69
                      A                      A                      A
 Frequencies --   1325.9960              1335.1984              1349.7008
 Red. masses --      4.0159                 4.5286                 1.3249
 Frc consts  --      4.1603                 4.7567                 1.4220
 IR Inten    --     14.2310                 4.2996                 6.9222

                     70                     71                     72
                      A                      A                      A
 Frequencies --   1353.9743              1363.5994              1412.2059
 Red. masses --      1.5319                 1.4291                 2.9770
 Frc consts  --      1.6546                 1.5657                 3.4980
 IR Inten    --      4.9320                 5.3290               748.0551

                     73                     74                     75
                      A                      A                      A
 Frequencies --   1426.1477              1445.0220              1459.1476
 Red. masses --      1.3789                 1.5788                 1.6963
 Frc consts  --      1.6524                 1.9423                 2.1279
 IR Inten    --    254.2639                64.7720               137.8151

                     76                     77                     78
                      A                      A                      A
 Frequencies --   1486.0518              1488.8827              1490.1419
 Red. masses --      1.0473                 2.1238                 1.0494
 Frc consts  --      1.3627                 2.7739                 1.3729
 IR Inten    --     17.7800                13.9889                 9.0423

                     79                     80                     81
                      A                      A                      A
 Frequencies --   1500.4854              1503.5499              1505.5595
 Red. masses --      2.3696                 1.0466                 1.0937
 Frc consts  --      3.1433                 1.3940                 1.4606
 IR Inten    --    153.5933                51.4741                87.0483

                     82                     83                     84
                      A                      A                      A
 Frequencies --   1539.9821              1544.9669              1605.4237
 Red. masses --      2.3499                 2.3572                 5.5751
 Frc consts  --      3.2834                 3.3150                 8.4660
 IR Inten    --      8.5628                27.8566               391.1017

                     85                     86                     87
                      A                      A                      A
 Frequencies --   1644.5725              1652.5841              1656.2483
 Red. masses --      1.2185                 5.7465                 4.9145
 Frc consts  --      1.9416                 9.2466                 7.9430
 IR Inten    --     33.8809                 4.3176                20.0151

                     88                     89                     90
                      A                      A                      A
 Frequencies --   1673.6236              1675.3715              3029.1981
 Red. masses --      5.9125                 5.8722                 1.0412
 Frc consts  --      9.7575                 9.7113                 5.6292
 IR Inten    --      7.3520                 0.3905                99.1288

                     91                     92                     93
                      A                      A                      A
 Frequencies --   3050.0228              3084.9647              3117.0653
 Red. masses --      1.0337                 1.0967                 1.1030
 Frc consts  --      5.6657                 6.1495                 6.3142
 IR Inten    --     62.9844                45.5041                19.2933

                     94                     95                     96
                      A                      A                      A
 Frequencies --   3118.9242              3148.6410              3149.9015
 Red. masses --      1.1012                 1.1013                 1.0911
 Frc consts  --      6.3112                 6.4330                 6.3786
 IR Inten    --     37.0543                45.5339                 8.9188

                     97                     98                     99
                      A                      A                      A
 Frequencies --   3188.0176              3192.1694              3197.3064
 Red. masses --      1.0875                 1.0856                 1.0878
 Frc consts  --      6.5124                 6.5176                 6.5518
 IR Inten    --      9.9311                 1.6892                 1.0096

                    100                    101                    102
                      A                      A                      A
 Frequencies --   3198.2109              3206.0693              3207.7464
 Red. masses --      1.0879                 1.0915                 1.0925
 Frc consts  --      6.5563                 6.6106                 6.6231
 IR Inten    --      0.7682                12.1675                27.0912

                    103                    104                    105
                      A                      A                      A
 Frequencies --   3212.7904              3219.5228              3221.0138
 Red. masses --      1.0950                 1.0971                 1.0988
 Frc consts  --      6.6596                 6.6999                 6.7169
 IR Inten    --     39.7726                29.9093                20.6839

                    106                    107                    108
                      A                      A                      A
 Frequencies --   3232.0899              3489.7513              3615.5097
 Red. masses --      1.0940                 1.0564                 1.0913
 Frc consts  --      6.7334                 7.5798                 8.4047
 IR Inten    --      9.6768                33.9542                79.6105

 - Thermochemistry -
 -------------------
 Temperature   298.150 Kelvin.  Pressure   1.00000 Atm.
 Atom     1 has atomic number  6 and mass  12.00000

 Molecular mass:   253.14666 amu.
 Principal axes and moments of inertia in atomic units:
                           1         2         3
     Eigenvalues --  2630.695988216.953919394.62903
           X            0.99998  -0.00456   0.00340
           Y            0.00456   0.99999   0.00021
           Z           -0.00340  -0.00020   0.99999
 This molecule is an asymmetric top.
 Rotational symmetry number  1.
 Warning -- assumption of classical behavior for rotation
           may cause significant error
 Rotational temperatures (Kelvin)      0.03292     0.01054     0.00922
 Rotational constants (GHZ):           0.68603     0.21964     0.19210
    1 imaginary frequencies ignored.
 Zero-point vibrational energy     844508.9 (Joules/Mol)
                                  201.84248 (Kcal/Mol)
 Warning -- explicit consideration of  25 degrees of freedom as
           vibrations may cause significant error
 Vibrational temperatures:     42.53    59.59    69.30    98.06   136.12
          (Kelvin)            144.34   188.96   202.23   237.41   255.36
                              291.97   305.57   326.58   370.48   410.73
                              434.45   498.13   554.34   608.49   611.13
                              646.14   691.28   759.16   825.19   874.57
                              913.28   917.94   920.78   979.15  1041.13
                             1044.90  1050.48  1087.48  1128.11  1195.05
                             1247.55  1262.99  1270.33  1379.34  1391.65
                             1392.56  1459.98  1460.19  1462.33  1477.02
                             1478.34  1479.41  1482.12  1485.82  1496.68
                             1512.00  1530.06  1533.96  1562.80  1582.00
                             1596.72  1611.68  1701.80  1702.24  1706.71
                             1727.62  1737.79  1743.82  1772.12  1833.67
                             1907.81  1921.05  1941.92  1948.07  1961.92
                             2031.85  2051.91  2079.06  2099.39  2138.10
                             2142.17  2143.98  2158.86  2163.27  2166.16
                             2215.69  2222.86  2309.85  2366.17  2377.70
                             2382.97  2407.97  2410.49  4358.34  4388.30
                             4438.58  4484.76  4487.44  4530.19  4532.01
                             4586.85  4592.82  4600.21  4601.51  4612.82
                             4615.23  4622.49  4632.18  4634.32  4650.26
                             5020.97  5201.91

 Zero-point correction=                           0.321656 (Hartree/Particle)
 Thermal correction to Energy=                    0.339279
 Thermal correction to Enthalpy=                  0.340223
 Thermal correction to Gibbs Free Energy=         0.275079
 Sum of electronic and zero-point Energies=           -788.886462
 Sum of electronic and thermal Energies=              -788.868840
 Sum of electronic and thermal Enthalpies=            -788.867896
 Sum of electronic and thermal Free Energies=         -788.933040

                     E (Thermal)             CV                S
                      KCal/Mol        Cal/Mol-Kelvin    Cal/Mol-Kelvin
 Total                  212.901             67.398            137.107
 Electronic               0.000              0.000              0.000
 Translational            0.889              2.981             42.487
 Rotational               0.889              2.981             33.673
 Vibrational            211.123             61.437             60.947
 Vibration     1          0.593              1.984              5.859
 Vibration     2          0.594              1.981              5.190
 Vibration     3          0.595              1.978              4.891
 Vibration     4          0.598              1.969              4.206
 Vibration     5          0.603              1.953              3.562
 Vibration     6          0.604              1.949              3.448
 Vibration     7          0.612              1.922              2.926
 Vibration     8          0.615              1.913              2.796
 Vibration     9          0.623              1.885              2.492
 Vibration    10          0.628              1.870              2.355
 Vibration    11          0.639              1.836              2.106
 Vibration    12          0.643              1.822              2.023
 Vibration    13          0.651              1.800              1.903
 Vibration    14          0.667              1.750              1.679
 Vibration    15          0.683              1.701              1.501
 Vibration    16          0.694              1.670              1.406
 Vibration    17          0.724              1.583              1.183
 Vibration    18          0.754              1.502              1.018
 Vibration    19          0.785              1.420              0.882
 Vibration    20          0.787              1.416              0.876
 Vibration    21          0.808              1.363              0.799
 Vibration    22          0.837              1.293              0.709
 Vibration    23          0.883              1.189              0.592
 Vibration    24          0.930              1.088              0.497
 Vibration    25          0.967              1.015              0.436

 Optimization completed.
    -- Stationary point found.
 Normal termination of Gaussian 16 at Thu Feb 11 14:45:33 2021.
