 Gaussian 16, Revision A.03,
 Gaussian 16:  ES64L-G16RevA.03 25-Dec-2016

 ----------------------------------------------------------------------
 # wB97XD def2tzvp, opt=(ts, noeigen, calcfc, maxcycles=70, maxstep=3),
  freq=noraman, scrf=(iefpcm, solvent=water)
 ----------------------------------------------------------------------

 -----------------------
 0_iteration/TS-20-0.out
 -----------------------
 Symbolic Z-matrix:
 Charge =  0 Multiplicity = 1

 SCF Done:  E(RwB97XD) =  -903.757852716     A.U. after   15 cycles
 Optimization completed.
    -- Stationary point found.
 Normal termination of Gaussian 16 at Mon Apr 12 14:56:12 2021.

 ---------------------------------------------------------------------
 #N Geom=AllCheck Guess=TCheck SCRF=Check GenChk RwB97XD/def2TZVP Freq
 ---------------------------------------------------------------------

 Structure from the checkpoint file:  "/beegfs/scratch/user/q/tla25/Gau-62162.chk"
 -----------------------
 0_iteration/TS-20-0.out
 -----------------------
 Charge =  0 Multiplicity = 1

                         Standard orientation:
 ---------------------------------------------------------------------
 Center     Atomic      Atomic             Coordinates (Angstroms)
 Number     Number       Type             X           Y           Z
 ---------------------------------------------------------------------
      1          6           0        0.902121   -1.037099   -0.442497
      2          6           0        2.257411   -0.726588   -0.179197
      3          8           0        2.673410    0.089812    0.656503
      4          6           0       -0.084790   -0.218600    0.181103
      5          6           0        0.418022   -1.819900    2.443803
      6          1           0        1.057822   -1.869389    3.324203
      7          1           0       -0.535378   -2.293300    2.664103
      8          1           0        0.902822   -2.352299    1.624303
      9          7           0        0.218711   -0.437200    2.022303
     10          1           0       -0.403390    0.066600    2.641803
     11          1           0        1.120410    0.041111    1.997303
     12          6           0       -1.526089   -0.599911   -0.088897
     13          6           0       -2.438289   -1.008512    0.873303
     14          6           0       -3.754779   -1.296023    0.529403
     15          6           0       -4.180089   -1.174424   -0.781297
     16          6           0       -3.277689   -0.755523   -1.751397
     17          6           0       -1.969589   -0.469712   -1.406497
     18          1           0       -2.150079   -1.109912    1.908703
     19          1           0       -4.445878   -1.615424    1.299103
     20          1           0       -5.204879   -1.399035   -1.047597
     21          1           0       -3.595389   -0.649323   -2.780997
     22          1           0       -1.273590   -0.139111   -2.167497
     23          6           0        0.027799    1.300800    0.109103
     24          6           0       -0.715802    2.122899    0.953703
     25          6           0       -0.679713    3.502599    0.825203
     26          6           0        0.085987    4.089800   -0.170997
     27          6           0        0.803587    3.281201   -1.039597
     28          6           0        0.769698    1.902301   -0.902097
     29          1           0       -1.359301    1.694389    1.712003
     30          1           0       -1.262313    4.117789    1.499203
     31          1           0        0.111876    5.166800   -0.277297
     32          1           0        1.392587    3.724311   -1.832997
     33          1           0        1.321499    1.277111   -1.590697
     34          6           0        0.542622   -2.322599   -1.152297
     35          1           0        0.303222   -2.181600   -2.212397
     36          1           0        1.367223   -3.032789   -1.101797
     37          1           0       -0.326877   -2.801100   -0.697097
     38          8           0        3.151821   -1.454177   -0.905997
     39          6           0        4.521721   -1.266776   -0.592397
     40          1           0        4.836310   -0.240476   -0.786797
     41          1           0        4.726021   -1.505276    0.452503
     42          1           0        5.071622   -1.947365   -1.238897
 ---------------------------------------------------------------------

 SCF Done:  E(RwB97XD) =  -903.757852716     A.U. after    1 cycles

 The electronic state is 1-A.
 Alpha  occ. eigenvalues --  -19.27210 -19.20274 -14.48512 -10.38071 -10.35704
 Alpha  occ. eigenvalues --  -10.32163 -10.31455 -10.30820 -10.30427 -10.29447
 Alpha  occ. eigenvalues --  -10.29252 -10.29239 -10.29213 -10.29126 -10.29072
 Alpha  occ. eigenvalues --  -10.29019 -10.28971 -10.28909 -10.28784 -10.26375
 Alpha  occ. eigenvalues --  -10.24955  -1.18280  -1.08636  -1.04174  -0.97929
 Alpha  occ. eigenvalues --   -0.96478  -0.91541  -0.86225  -0.85433  -0.85172
 Alpha  occ. eigenvalues --   -0.85010  -0.80539  -0.79176  -0.77332  -0.72741
 Alpha  occ. eigenvalues --   -0.71074  -0.69972  -0.69913  -0.67016  -0.64898
 Alpha  occ. eigenvalues --   -0.62286  -0.61968  -0.59780  -0.57716  -0.57106
 Alpha  occ. eigenvalues --   -0.55848  -0.55478  -0.55385  -0.54632  -0.54138
 Alpha  occ. eigenvalues --   -0.53267  -0.52459  -0.51098  -0.50975  -0.50833
 Alpha  occ. eigenvalues --   -0.50000  -0.48486  -0.47818  -0.47199  -0.46633
 Alpha  occ. eigenvalues --   -0.46228  -0.45844  -0.45204  -0.44319  -0.43523
 Alpha  occ. eigenvalues --   -0.42763  -0.42350  -0.41526  -0.41431  -0.37358
 Alpha  occ. eigenvalues --   -0.35238  -0.34286  -0.34023  -0.33358  -0.31900
 Alpha  occ. eigenvalues --   -0.25764
 Alpha virt. eigenvalues --    0.02986   0.04456   0.05200   0.06130   0.08187
 Alpha virt. eigenvalues --    0.10459   0.12311   0.13218   0.13538   0.14258
 Alpha virt. eigenvalues --    0.15234   0.15738   0.15980   0.16690   0.17062

 Mulliken charges:
               1
     1  C   -0.426483
     2  C    0.436391
     3  O   -0.572252
     4  C    0.537203
     5  C   -0.287810
     6  H    0.157950
     7  H    0.147223
     8  H    0.157622
     9  N   -0.320282
    10  H    0.275337
    11  H    0.282597
    12  C    0.090549
    13  C   -0.220183
    14  C   -0.169010
    15  C   -0.143021
    16  C   -0.133280
    17  C   -0.290098
    18  H    0.140621
    19  H    0.141837
    20  H    0.143597
    21  H    0.141601
    22  H    0.164997
    23  C    0.151152
    24  C   -0.265671
    25  C   -0.174071
    26  C   -0.138956
    27  C   -0.151131
    28  C   -0.243718
    29  H    0.153363
    30  H    0.141295
    31  H    0.143310
    32  H    0.140414
    33  H    0.159360
    34  C   -0.405501
    35  H    0.114542
    36  H    0.129925
    37  H    0.132318
    38  O   -0.323406
    39  C   -0.191715
    40  H    0.120348
    41  H    0.119649
    42  H    0.133387
 Sum of Mulliken charges =  -0.00000

 Dipole moment (field-independent basis, Debye):
    X=             -3.7648    Y=             -0.6897    Z=              4.0169  Tot=              5.5484
 Quadrupole moment (field-independent basis, Debye-Ang):
   XX=           -121.7081   YY=           -121.2671   ZZ=           -108.7109
   XY=             -0.6346   XZ=             -5.4308   YZ=             -6.6485

  Exact polarizability: 336.274  10.735 295.924 -26.771  -2.672 299.537
 Approx polarizability: 259.920   8.274 236.651 -22.132  -1.096 259.875

 ******    1 imaginary frequencies (negative Signs) ******

                      1                      2                      3
                      A                      A                      A
 Frequencies --   -373.2367                35.5192                57.3059
 Red. masses --      5.2017                 3.3827                 3.9020
 Frc consts  --      0.4269                 0.0025                 0.0075
 IR Inten    --    550.2747                 0.6953                 0.0928

                      4                      5                      6
                      A                      A                      A
 Frequencies --     59.6331                65.1328                78.1924
 Red. masses --      4.3810                 3.8562                 4.1129
 Frc consts  --      0.0092                 0.0096                 0.0148
 IR Inten    --      0.3786                 2.3676                 4.4469

                      7                      8                      9
                      A                      A                      A
 Frequencies --     96.8840               119.1586               127.7604
 Red. masses --      2.7885                 1.3603                 2.5732
 Frc consts  --      0.0154                 0.0114                 0.0247
 IR Inten    --      3.2703                 0.9914                 3.8995

                     10                     11                     12
                      A                      A                      A
 Frequencies --    134.8256               152.0815               168.6120
 Red. masses --      1.8726                 2.3462                 2.4447
 Frc consts  --      0.0201                 0.0320                 0.0410
 IR Inten    --      9.2006                 4.0636                 4.6417

                     13                     14                     15
                      A                      A                      A
 Frequencies --    178.0996               189.3571               205.0738
 Red. masses --      2.2184                 1.5379                 2.4054
 Frc consts  --      0.0415                 0.0325                 0.0596
 IR Inten    --      9.9918                 0.6818                 1.9297

                     16                     17                     18
                      A                      A                      A
 Frequencies --    255.0901               263.6953               270.9299
 Red. masses --      3.9166                 3.2038                 3.8073
 Frc consts  --      0.1502                 0.1313                 0.1647
 IR Inten    --     14.0125                 5.0052                 2.1447

                     19                     20                     21
                      A                      A                      A
 Frequencies --    294.2827               304.9331               323.7217
 Red. masses --      4.2953                 4.0320                 3.4171
 Frc consts  --      0.2192                 0.2209                 0.2110
 IR Inten    --     19.4258                 5.8344                 9.2467

                     22                     23                     24
                      A                      A                      A
 Frequencies --    345.3285               383.8818               391.9105
 Red. masses --      3.0760                 4.6194                 5.2682
 Frc consts  --      0.2161                 0.4011                 0.4767
 IR Inten    --      6.4710                55.6236                 6.8871

                     25                     26                     27
                      A                      A                      A
 Frequencies --    424.5613               428.0678               492.8287
 Red. masses --      2.9053                 2.9511                 3.7588
 Frc consts  --      0.3085                 0.3186                 0.5379
 IR Inten    --      1.2865                 0.2481                 8.2298

                     28                     29                     30
                      A                      A                      A
 Frequencies --    536.7910               565.0122               617.6020
 Red. masses --      3.4991                 5.2021                 2.8215
 Frc consts  --      0.5940                 0.9785                 0.6341
 IR Inten    --      4.2436                50.9468                58.3223

                     31                     32                     33
                      A                      A                      A
 Frequencies --    635.6000               638.1225               656.2678
 Red. masses --      6.3220                 6.3769                 6.1477
 Frc consts  --      1.5048                 1.5299                 1.5600
 IR Inten    --      4.6960                 0.2486                32.7974

                     34                     35                     36
                      A                      A                      A
 Frequencies --    682.3057               718.3996               728.2931
 Red. masses --      4.7849                 2.1890                 1.6827
 Frc consts  --      1.3125                 0.6656                 0.5258
 IR Inten    --    117.3640                73.2470                77.8928

                     37                     38                     39
                      A                      A                      A
 Frequencies --    730.7483               760.3740               780.3234
 Red. masses --      1.4922                 2.8717                 2.1532
 Frc consts  --      0.4695                 0.9782                 0.7725
 IR Inten    --    118.3310                 6.7547                42.9821

                     40                     41                     42
                      A                      A                      A
 Frequencies --    802.5484               805.9240               863.8520
 Red. masses --      2.5563                 6.0074                 3.5303
 Frc consts  --      0.9701                 2.2989                 1.5522
 IR Inten    --     79.1988                67.7755                27.3538

                     43                     44                     45
                      A                      A                      A
 Frequencies --    876.2930               880.1742               923.5705
 Red. masses --      1.2471                 1.2545                 2.9773
 Frc consts  --      0.5642                 0.5726                 1.4963
 IR Inten    --      0.2504                 1.1111                 5.7975

                     46                     47                     48
                      A                      A                      A
 Frequencies --    960.5348               965.3866              1007.9470
 Red. masses --      1.5839                 1.5391                 1.2594
 Frc consts  --      0.8610                 0.8451                 0.7538
 IR Inten    --     18.4589                 5.6573                37.0350

                     49                     50                     51
                      A                      A                      A
 Frequencies --   1013.7075              1020.7574              1025.8585
 Red. masses --      1.3654                 1.5086                 5.0047
 Frc consts  --      0.8267                 0.9261                 3.1031
 IR Inten    --      7.5312                28.9659                17.1878

                     52                     53                     54
                      A                      A                      A
 Frequencies --   1026.9236              1030.4075              1031.0889
 Red. masses --      4.4241                 1.3148                 1.3854
 Frc consts  --      2.7489                 0.8225                 0.8678
 IR Inten    --      8.5181                 4.3908                21.2601

                     55                     56                     57
                      A                      A                      A
 Frequencies --   1035.7291              1057.5822              1067.8559
 Red. masses --      1.6784                 3.6146                 1.9634
 Frc consts  --      1.0608                 2.3820                 1.3191
 IR Inten    --    108.7522                22.1019                11.2982

                     58                     59                     60
                      A                      A                      A
 Frequencies --   1069.0672              1073.9926              1084.0314
 Red. masses --      1.4320                 2.2696                 4.3225
 Frc consts  --      0.9642                 1.5424                 2.9927
 IR Inten    --      6.2715                 9.3030                32.6657

                     61                     62                     63
                      A                      A                      A
 Frequencies --   1114.7110              1121.0542              1127.0480
 Red. masses --      1.2955                 1.5668                 1.5510
 Frc consts  --      0.9484                 1.1602                 1.1608
 IR Inten    --     75.8570                 3.1588                41.8475

                     64                     65                     66
                      A                      A                      A
 Frequencies --   1170.3576              1182.2570              1183.6540
 Red. masses --      3.8618                 1.2965                 1.1268
 Frc consts  --      3.1166                 1.0677                 0.9302
 IR Inten    --    353.0730                 8.9143                 0.0860

                     67                     68                     69
                      A                      A                      A
 Frequencies --   1185.4983              1203.3899              1215.5121
 Red. masses --      1.1356                 2.7435                 1.3403
 Frc consts  --      0.9403                 2.3408                 1.1667
 IR Inten    --      4.4610                21.2050                46.8583

                     70                     71                     72
                      A                      A                      A
 Frequencies --   1216.5479              1220.1773              1245.4303
 Red. masses --      1.5056                 1.1525                 1.6175
 Frc consts  --      1.3129                 1.0110                 1.4782
 IR Inten    --    171.7546                 3.6921                85.0120

                     73                     74                     75
                      A                      A                      A
 Frequencies --   1267.5206              1318.9946              1326.0860
 Red. masses --      2.7727                 4.3137                 4.7197
 Frc consts  --      2.6246                 4.4217                 4.8900
 IR Inten    --    140.2492                 3.0278                18.1103

                     76                     77                     78
                      A                      A                      A
 Frequencies --   1357.0788              1358.6996              1365.7613
 Red. masses --      2.9089                 1.8755                 1.4967
 Frc consts  --      3.1564                 2.0399                 1.6449
 IR Inten    --     87.1236               134.4260                46.6995

                     79                     80                     81
                      A                      A                      A
 Frequencies --   1374.8885              1400.5423              1416.6729
 Red. masses --      1.3204                 3.7512                 1.2271
 Frc consts  --      1.4706                 4.3352                 1.4510
 IR Inten    --     74.7179               547.0886                13.6132

                     82                     83                     84
                      A                      A                      A
 Frequencies --   1458.8207              1478.3250              1480.8299
 Red. masses --      1.2007                 1.0476                 1.1559
 Frc consts  --      1.5055                 1.3489                 1.4935
 IR Inten    --     10.8603                13.2923                66.0377

                     85                     86                     87
                      A                      A                      A
 Frequencies --   1482.0599              1487.3733              1491.3704
 Red. masses --      1.1045                 2.1796                 1.3386
 Frc consts  --      1.4294                 2.8409                 1.7542
 IR Inten    --     38.4741                 9.1261                19.7881

                     88                     89                     90
                      A                      A                      A
 Frequencies --   1492.0682              1499.4702              1506.5208
 Red. masses --      1.5003                 1.0573                 1.1124
 Frc consts  --      1.9680                 1.4006                 1.4875
 IR Inten    --     29.2835                16.4024               123.9151

                     91                     92                     93
                      A                      A                      A
 Frequencies --   1510.9945              1540.5945              1545.7661
 Red. masses --      1.0451                 2.2256                 2.2886
 Frc consts  --      1.4058                 3.1122                 3.2219
 IR Inten    --      2.1573                23.3049                 9.7530

                     94                     95                     96
                      A                      A                      A
 Frequencies --   1615.6308              1651.3998              1651.6112
 Red. masses --      1.9622                 3.4409                 5.7005
 Frc consts  --      3.0177                 5.5288                 9.1617
 IR Inten    --    544.1362                51.9460                 1.6712

                     97                     98                     99
                      A                      A                      A
 Frequencies --   1660.5027              1672.1550              1677.4468
 Red. masses --      2.5595                 5.9296                 5.9378
 Frc consts  --      4.1581                 9.7685                 9.8440
 IR Inten    --    174.5422                10.1929                 0.5923

                    100                    101                    102
                      A                      A                      A
 Frequencies --   3016.2469              3054.9981              3070.2463
 Red. masses --      1.0509                 1.0310                 1.0336
 Frc consts  --      5.6331                 5.6694                 5.7405
 IR Inten    --    130.7868                77.0024                50.0406

                    103                    104                    105
                      A                      A                      A
 Frequencies --   3082.4830              3126.3374              3130.5846
 Red. masses --      1.0871                 1.1060                 1.0990
 Frc consts  --      6.0856                 6.3692                 6.3457
 IR Inten    --     43.4760                46.9504                36.0370

                    106                    107                    108
                      A                      A                      A
 Frequencies --   3143.5860              3160.6195              3173.1606
 Red. masses --      1.1036                 1.1047                 1.1047
 Frc consts  --      6.4255                 6.5017                 6.5537
 IR Inten    --      9.2777                34.2123                19.4067

                    109                    110                    111
                      A                      A                      A
 Frequencies --   3193.0968              3195.5793              3199.1165
 Red. masses --      1.0858                 1.0861                 1.0884
 Frc consts  --      6.5227                 6.5344                 6.5630
 IR Inten    --      5.4113                 1.8717                 2.8927

                    112                    113                    114
                      A                      A                      A
 Frequencies --   3202.7195              3208.7124              3211.5458
 Red. masses --      1.0889                 1.0926                 1.0937
 Frc consts  --      6.5807                 6.6277                 6.6463
 IR Inten    --      2.9048                29.0309                25.8199

                    115                    116                    117
                      A                      A                      A
 Frequencies --   3219.3946              3222.4160              3225.9575
 Red. masses --      1.0954                 1.0979                 1.0961
 Frc consts  --      6.6891                 6.7171                 6.7210
 IR Inten    --     25.8024                24.7881                12.4743

                    118                    119                    120
                      A                      A                      A
 Frequencies --   3247.5858              3428.2110              3589.4307
 Red. masses --      1.0914                 1.0633                 1.0849
 Frc consts  --      6.7821                 7.3629                 8.2356
 IR Inten    --     16.3938               103.9797                58.2204

 - Thermochemistry -
 -------------------
 Temperature   298.150 Kelvin.  Pressure   1.00000 Atm.
 Atom     1 has atomic number  6 and mass  12.00000

 Molecular mass:   283.15723 amu.
 Principal axes and moments of inertia in atomic units:
                           1         2         3
     Eigenvalues --  4696.577486406.082148487.43666
           X            0.99992  -0.01183  -0.00531
           Y            0.01178   0.99988  -0.00978
           Z            0.00542   0.00972   0.99994
 This molecule is an asymmetric top.
 Rotational symmetry number  1.
 Warning -- assumption of classical behavior for rotation
           may cause significant error
 Rotational temperatures (Kelvin)      0.01844     0.01352     0.01020
 Rotational constants (GHZ):           0.38427     0.28172     0.21264
    1 imaginary frequencies ignored.
 Zero-point vibrational energy     932469.9 (Joules/Mol)
                                  222.86565 (Kcal/Mol)
 Warning -- explicit consideration of  29 degrees of freedom as
           vibrations may cause significant error
 Vibrational temperatures:     51.10    82.45    85.80    93.71   112.50
          (Kelvin)            139.39   171.44   183.82   193.98   218.81
                              242.60   256.25   272.44   295.06   367.02
                              379.40   389.81   423.41   438.73   465.76
                              496.85   552.32   563.87   610.85   615.89
                              709.07   772.32   812.93   888.59   914.49
                              918.12   944.22   981.69  1033.62  1047.85
                             1051.38  1094.01  1122.71  1154.69  1159.54
                             1242.89  1260.79  1266.37  1328.81  1382.00
                             1388.98  1450.21  1458.50  1468.64  1475.98
                             1477.51  1482.53  1483.51  1490.18  1521.62
                             1536.41  1538.15  1545.24  1559.68  1603.82
                             1612.95  1621.57  1683.88  1701.00  1703.01
                             1705.67  1731.41  1748.85  1750.34  1755.56
                             1791.90  1823.68  1897.74  1907.94  1952.53
                             1954.87  1965.03  1978.16  2015.07  2038.28
                             2098.92  2126.98  2130.58  2132.35  2140.00
                             2145.75  2146.75  2157.40  2167.55  2173.98
                             2216.57  2224.01  2324.53  2376.00  2376.30
                             2389.09  2405.86  2413.47  4339.71  4395.46
                             4417.40  4435.01  4498.10  4504.21  4522.92
                             4547.43  4565.47  4594.15  4597.73  4602.82
                             4608.00  4616.62  4620.70  4631.99  4636.34
                             4641.43  4672.55  4932.43  5164.39

 Zero-point correction=                           0.355159 (Hartree/Particle)
 Thermal correction to Energy=                    0.375085
 Thermal correction to Enthalpy=                  0.376029
 Thermal correction to Gibbs Free Energy=         0.306739
 Sum of electronic and zero-point Energies=           -903.402694
 Sum of electronic and thermal Energies=              -903.382767
 Sum of electronic and thermal Enthalpies=            -903.381823
 Sum of electronic and thermal Free Energies=         -903.451114

                     E (Thermal)             CV                S
                      KCal/Mol        Cal/Mol-Kelvin    Cal/Mol-Kelvin
 Total                  235.370             75.929            145.835
 Electronic               0.000              0.000              0.000
 Translational            0.889              2.981             42.821
 Rotational               0.889              2.981             33.901
 Vibrational            233.592             69.967             69.114
 Vibration     1          0.594              1.982              5.495
 Vibration     2          0.596              1.975              4.548
 Vibration     3          0.597              1.974              4.469
 Vibration     4          0.597              1.971              4.295
 Vibration     5          0.599              1.964              3.936
 Vibration     6          0.603              1.951              3.516
 Vibration     7          0.609              1.933              3.114
 Vibration     8          0.611              1.925              2.979
 Vibration     9          0.613              1.919              2.876
 Vibration    10          0.619              1.900              2.646
 Vibration    11          0.625              1.881              2.451
 Vibration    12          0.629              1.869              2.348
 Vibration    13          0.633              1.855              2.234
 Vibration    14          0.640              1.833              2.087
 Vibration    15          0.665              1.754              1.695
 Vibration    16          0.670              1.739              1.637
 Vibration    17          0.675              1.727              1.590
 Vibration    18          0.689              1.684              1.449
 Vibration    19          0.696              1.664              1.390
 Vibration    20          0.708              1.628              1.291
 Vibration    21          0.724              1.585              1.187
 Vibration    22          0.753              1.505              1.024
 Vibration    23          0.759              1.487              0.993
 Vibration    24          0.787              1.417              0.877
 Vibration    25          0.790              1.409              0.865
 Vibration    26          0.849              1.266              0.676
 Vibration    27          0.892              1.169              0.572
 Vibration    28          0.921              1.107              0.514
 Vibration    29          0.977              0.995              0.420

 Optimization completed.
    -- Stationary point found.
 Normal termination of Gaussian 16 at Mon Apr 12 16:22:22 2021.
