 Gaussian 16, Revision A.03,
 Gaussian 16:  ES64L-G16RevA.03 25-Dec-2016

 ----------------------------------------------------------------------
 # wB97XD def2tzvp, opt=(ts, noeigen, calcfc, maxcycles=70, maxstep=8),
  freq=noraman, scrf=(iefpcm, solvent=water)
 ----------------------------------------------------------------------

 ------------------------
 1_iteration/TS-214-1.out
 ------------------------
 Symbolic Z-matrix:
 Charge =  0 Multiplicity = 1

 SCF Done:  E(RwB97XD) =  -652.830498689     A.U. after   15 cycles
 SCF Done:  E(RwB97XD) =  -652.832605548     A.U. after   13 cycles
 SCF Done:  E(RwB97XD) =  -652.833439434     A.U. after   13 cycles
 SCF Done:  E(RwB97XD) =  -652.834004925     A.U. after   13 cycles
 SCF Done:  E(RwB97XD) =  -652.834421539     A.U. after   14 cycles
 SCF Done:  E(RwB97XD) =  -652.834785864     A.U. after   12 cycles
 SCF Done:  E(RwB97XD) =  -652.834651332     A.U. after   14 cycles
 SCF Done:  E(RwB97XD) =  -652.835122870     A.U. after   12 cycles
 SCF Done:  E(RwB97XD) =  -652.835383191     A.U. after   12 cycles
 SCF Done:  E(RwB97XD) =  -652.835425411     A.U. after   12 cycles
 SCF Done:  E(RwB97XD) =  -652.835654667     A.U. after   10 cycles
 SCF Done:  E(RwB97XD) =  -652.835616264     A.U. after   11 cycles
 SCF Done:  E(RwB97XD) =  -652.835650117     A.U. after   11 cycles
 SCF Done:  E(RwB97XD) =  -652.835652771     A.U. after   10 cycles
 SCF Done:  E(RwB97XD) =  -652.835657508     A.U. after   10 cycles
 SCF Done:  E(RwB97XD) =  -652.835658089     A.U. after    9 cycles
 SCF Done:  E(RwB97XD) =  -652.835658153     A.U. after    7 cycles
 SCF Done:  E(RwB97XD) =  -652.835657990     A.U. after    8 cycles
 SCF Done:  E(RwB97XD) =  -652.835658147     A.U. after    8 cycles
 Optimization completed.
    -- Stationary point found.
 Normal termination of Gaussian 16 at Thu Feb 11 07:41:31 2021.

 ---------------------------------------------------------------------
 #N Geom=AllCheck Guess=TCheck SCRF=Check GenChk RwB97XD/def2TZVP Freq
 ---------------------------------------------------------------------

 Structure from the checkpoint file:  "/beegfs/scratch/user/q/tla25/Gau-10528.chk"
 ------------------------
 1_iteration/TS-214-1.out
 ------------------------
 Charge =  0 Multiplicity = 1

                         Standard orientation:
 ---------------------------------------------------------------------
 Center     Atomic      Atomic             Coordinates (Angstroms)
 Number     Number       Type             X           Y           Z
 ---------------------------------------------------------------------
      1          6           0        0.964892    0.379651    0.954519
      2          6           0        1.631339   -0.241727   -0.154842
      3          8           0        1.151848   -0.228803   -1.313736
      4          6           0       -0.347965    0.857028    0.846554
      5          6           0        0.551827    3.239481   -0.330085
      6          1           0        0.844628    3.753607   -1.246315
      7          1           0        0.086687    3.951697    0.349764
      8          1           0        1.445862    2.827458    0.143470
      9          7           0       -0.362992    2.141107   -0.586922
     10          1           0       -1.286312    2.451029   -0.860231
     11          1           0        0.009057    1.490448   -1.279419
     12          1           0       -0.625664    1.539877    1.645772
     13          6           0       -1.526663    0.036397    0.414516
     14          6           0       -1.415954   -1.314192    0.099296
     15          6           0       -2.535350   -2.056262   -0.245566
     16          6           0       -3.790145   -1.463838   -0.269459
     17          6           0       -3.918149   -0.123178    0.064532
     18          6           0       -2.795779    0.614480    0.406519
     19          1           0       -0.445312   -1.788543    0.133694
     20          1           0       -2.427165   -3.105616   -0.490525
     21          1           0       -4.663638   -2.045728   -0.535333
     22          1           0       -4.893243    0.347521    0.066046
     23          1           0       -2.909595    1.657563    0.681417
     24          1           0        1.568595    0.781561    1.755616
     25          7           0        2.853350   -0.827442    0.061897
     26          6           0        3.452401   -0.902610    1.373527
     27          6           0        3.721750   -1.146442   -1.047581
     28          1           0        2.695281   -1.106319    2.128733
     29          1           0        4.174213   -1.720255    1.385295
     30          1           0        3.980389    0.019197    1.647033
     31          1           0        3.176268   -1.014192   -1.976657
     32          1           0        4.603377   -0.495424   -1.054691
     33          1           0        4.066051   -2.181844   -0.980195
 ---------------------------------------------------------------------

 SCF Done:  E(RwB97XD) =  -652.835658147     A.U. after    1 cycles

 The electronic state is 1-A.
 Alpha  occ. eigenvalues --  -19.18820 -14.46677 -14.44368 -10.36173 -10.33192
 Alpha  occ. eigenvalues --  -10.30889 -10.30233 -10.29925 -10.29761 -10.29020
 Alpha  occ. eigenvalues --  -10.28951 -10.28894 -10.28819 -10.28665 -10.23691
 Alpha  occ. eigenvalues --   -1.11245  -1.02577  -1.01710  -0.96711  -0.89024
 Alpha  occ. eigenvalues --   -0.85065  -0.83618  -0.80818  -0.78541  -0.77565
 Alpha  occ. eigenvalues --   -0.72280  -0.70210  -0.67182  -0.62943  -0.61531
 Alpha  occ. eigenvalues --   -0.60585  -0.56983  -0.56159  -0.55944  -0.55375
 Alpha  occ. eigenvalues --   -0.54463  -0.53413  -0.52659  -0.50964  -0.50040
 Alpha  occ. eigenvalues --   -0.48706  -0.47853  -0.47521  -0.47163  -0.46618
 Alpha  occ. eigenvalues --   -0.46425  -0.45015  -0.44662  -0.42532  -0.42273
 Alpha  occ. eigenvalues --   -0.41410  -0.33991  -0.33403  -0.32132  -0.30911
 Alpha  occ. eigenvalues --   -0.26160
 Alpha virt. eigenvalues --    0.02877   0.05486   0.09344   0.10484   0.12203
 Alpha virt. eigenvalues --    0.13658   0.14445   0.15390   0.16080   0.16354
 Alpha virt. eigenvalues --    0.16715   0.17410   0.17890   0.18267   0.19149

 Mulliken charges:
               1
     1  C   -0.580363
     2  C    0.330278
     3  O   -0.616171
     4  C    0.149539
     5  C   -0.274075
     6  H    0.144376
     7  H    0.144681
     8  H    0.139576
     9  N   -0.325317
    10  H    0.269088
    11  H    0.270198
    12  H    0.155944
    13  C    0.109981
    14  C   -0.198079
    15  C   -0.132767
    16  C   -0.158029
    17  C   -0.130208
    18  C   -0.308669
    19  H    0.156273
    20  H    0.140680
    21  H    0.143414
    22  H    0.142469
    23  H    0.156920
    24  H    0.151703
    25  N   -0.106775
    26  C   -0.299447
    27  C   -0.276678
    28  H    0.144325
    29  H    0.137675
    30  H    0.129944
    31  H    0.141031
    32  H    0.120414
    33  H    0.128068
 Sum of Mulliken charges =  -0.00000

 Dipole moment (field-independent basis, Debye):
    X=             -0.7209    Y=              4.5816    Z=              1.3180  Tot=              4.8216
 Quadrupole moment (field-independent basis, Debye-Ang):
   XX=            -76.2947   YY=            -74.4599   ZZ=            -96.6725
   XY=             -4.6716   XZ=              4.9637   YZ=             -1.0054

  Exact polarizability: 282.952 -18.008 237.008  11.142   6.518 175.622
 Approx polarizability: 208.299 -13.018 190.901   9.625   6.401 153.244

 ******    1 imaginary frequencies (negative Signs) ******

                      1                      2                      3
                      A                      A                      A
 Frequencies --   -412.1422                35.8683                44.2712
 Red. masses --      5.2897                 3.7063                 3.2162
 Frc consts  --      0.5294                 0.0028                 0.0037
 IR Inten    --    827.3953                 1.2374                 3.9202

                      4                      5                      6
                      A                      A                      A
 Frequencies --     70.9423                77.8256               101.9456
 Red. masses --      2.6904                 3.1545                 2.2166
 Frc consts  --      0.0080                 0.0113                 0.0136
 IR Inten    --      1.9074                 1.2983                 3.2294

                      7                      8                      9
                      A                      A                      A
 Frequencies --    107.7680               144.7127               152.4610
 Red. masses --      1.8405                 4.4564                 1.8388
 Frc consts  --      0.0126                 0.0550                 0.0252
 IR Inten    --      0.9465                20.4355                30.9549

                     10                     11                     12
                      A                      A                      A
 Frequencies --    168.6788               200.8728               215.7946
 Red. masses --      1.2516                 1.5811                 2.3564
 Frc consts  --      0.0210                 0.0376                 0.0647
 IR Inten    --     11.1935                 9.4252                 5.6679

                     13                     14                     15
                      A                      A                      A
 Frequencies --    224.2863               249.7717               290.3194
 Red. masses --      2.3038                 4.0390                 2.7566
 Frc consts  --      0.0683                 0.1485                 0.1369
 IR Inten    --     14.4470                 1.3382                 5.5828

                     16                     17                     18
                      A                      A                      A
 Frequencies --    309.4714               391.7709               413.7414
 Red. masses --      4.0594                 3.8061                 3.5483
 Frc consts  --      0.2291                 0.3442                 0.3579
 IR Inten    --     30.1704                43.4024                 6.6916

                     19                     20                     21
                      A                      A                      A
 Frequencies --    420.5772               458.9262               536.8799
 Red. masses --      2.8903                 2.7773                 2.9796
 Frc consts  --      0.3012                 0.3446                 0.5060
 IR Inten    --      0.3865                 9.1434               100.0241

                     22                     23                     24
                      A                      A                      A
 Frequencies --    566.8442               596.1687               637.5686
 Red. masses --      3.9536                 4.7272                 5.9705
 Frc consts  --      0.7485                 0.9899                 1.4299
 IR Inten    --     29.9960                13.7156                 4.6916

                     25                     26                     27
                      A                      A                      A
 Frequencies --    654.9452               665.5608               719.6470
 Red. masses --      1.3584                 2.1572                 1.5630
 Frc consts  --      0.3433                 0.5630                 0.4769
 IR Inten    --     62.0018                68.2383                94.7705

                     28                     29                     30
                      A                      A                      A
 Frequencies --    741.5582               782.4601               797.2561
 Red. masses --      2.2454                 3.0835                 3.1979
 Frc consts  --      0.7275                 1.1123                 1.1976
 IR Inten    --     72.9656                62.7559                40.4740

                     31                     32                     33
                      A                      A                      A
 Frequencies --    818.2491               873.7489               919.6497
 Red. masses --      4.1854                 1.2537                 3.3734
 Frc consts  --      1.6511                 0.5639                 1.6810
 IR Inten    --     24.2374                 1.8903                 3.5318

                     34                     35                     36
                      A                      A                      A
 Frequencies --    961.6242               992.6382              1010.7655
 Red. masses --      1.5048                 1.1184                 1.3856
 Frc consts  --      0.8199                 0.6493                 0.8340
 IR Inten    --      4.6881               101.0461                 6.7323

                     37                     38                     39
                      A                      A                      A
 Frequencies --   1012.0197              1026.8589              1027.4066
 Red. masses --      2.3384                 1.6873                 2.9304
 Frc consts  --      1.4111                 1.0483                 1.8225
 IR Inten    --     64.8514                 0.2168                 1.8213

                     40                     41                     42
                      A                      A                      A
 Frequencies --   1060.9533              1067.7388              1091.5421
 Red. masses --      1.9353                 1.3126                 1.4083
 Frc consts  --      1.2835                 0.8817                 0.9886
 IR Inten    --     15.8710                35.9677                20.6928

                     43                     44                     45
                      A                      A                      A
 Frequencies --   1096.3070              1113.0160              1128.1151
 Red. masses --      3.6493                 1.5862                 1.1580
 Frc consts  --      2.5842                 1.1578                 0.8683
 IR Inten    --    107.8397                 2.3509               102.4875

                     46                     47                     48
                      A                      A                      A
 Frequencies --   1132.5726              1162.5613              1170.3606
 Red. masses --      1.2278                 1.9365                 1.6549
 Frc consts  --      0.9279                 1.5421                 1.3356
 IR Inten    --     10.8913               125.9869                93.4626

                     49                     50                     51
                      A                      A                      A
 Frequencies --   1182.5563              1194.3496              1202.3477
 Red. masses --      1.1360                 1.7214                 1.3827
 Frc consts  --      0.9360                 1.4467                 1.1777
 IR Inten    --      0.4468               247.1048                49.5610

                     52                     53                     54
                      A                      A                      A
 Frequencies --   1209.4866              1250.1691              1313.7458
 Red. masses --      1.1493                 1.4752                 5.7521
 Frc consts  --      0.9905                 1.3585                 5.8492
 IR Inten    --      5.5729                57.2397                18.6508

                     55                     56                     57
                      A                      A                      A
 Frequencies --   1333.5815              1350.9157              1359.9698
 Red. masses --      3.9755                 1.3310                 1.4630
 Frc consts  --      4.1656                 1.4311                 1.5942
 IR Inten    --     16.8456                 7.7459                23.6523

                     58                     59                     60
                      A                      A                      A
 Frequencies --   1399.1618              1437.4105              1441.9224
 Red. masses --      1.9926                 1.3503                 1.4311
 Frc consts  --      2.2983                 1.6438                 1.7531
 IR Inten    --    167.5101                49.9220                55.5485

                     61                     62                     63
                      A                      A                      A
 Frequencies --   1453.1850              1465.6194              1481.8897
 Red. masses --      1.3353                 1.6447                 1.3916
 Frc consts  --      1.6614                 2.0815                 1.8005
 IR Inten    --    103.0069               207.6782               294.0232

                     64                     65                     66
                      A                      A                      A
 Frequencies --   1490.6060              1493.1579              1494.1571
 Red. masses --      1.0424                 1.0532                 1.1003
 Frc consts  --      1.3646                 1.3834                 1.4473
 IR Inten    --     12.5577                 9.5370                28.8689

                     67                     68                     69
                      A                      A                      A
 Frequencies --   1502.0742              1503.3409              1507.8805
 Red. masses --      1.5862                 1.0380                 1.4578
 Frc consts  --      2.1086                 1.3822                 1.9529
 IR Inten    --    142.2797                11.4062               108.9676

                     70                     71                     72
                      A                      A                      A
 Frequencies --   1534.7650              1545.2401              1592.9466
 Red. masses --      1.4715                 2.3554                 4.3821
 Frc consts  --      2.0422                 3.3137                 6.5513
 IR Inten    --    246.7766                23.6715               657.9631

                     73                     74                     75
                      A                      A                      A
 Frequencies --   1649.7429              1653.8307              1675.4779
 Red. masses --      1.1752                 5.3648                 5.8914
 Frc consts  --      1.8845                 8.6455                 9.7443
 IR Inten    --      9.8960                 4.1319                 1.3135

                     76                     77                     78
                      A                      A                      A
 Frequencies --   3009.2072              3017.5539              3050.3944
 Red. masses --      1.0502                 1.0469                 1.0336
 Frc consts  --      5.6029                 5.6167                 5.6668
 IR Inten    --     89.9919               162.5321                68.8806

                     79                     80                     81
                      A                      A                      A
 Frequencies --   3075.3792              3098.6893              3122.0089
 Red. masses --      1.0967                 1.0857                 1.1034
 Frc consts  --      6.1111                 6.1419                 6.3365
 IR Inten    --     77.7080                44.0195                12.7925

                     82                     83                     84
                      A                      A                      A
 Frequencies --   3146.6625              3148.6850              3149.3976
 Red. masses --      1.0906                 1.1003                 1.1043
 Frc consts  --      6.3621                 6.4272                 6.4533
 IR Inten    --     39.2523                 7.4125                19.7280

                     85                     86                     87
                      A                      A                      A
 Frequencies --   3181.4971              3187.1679              3195.2565
 Red. masses --      1.0884                 1.0949                 1.0872
 Frc consts  --      6.4907                 6.5529                 6.5400
 IR Inten    --     13.5285                 5.3136                 0.2943

                     88                     89                     90
                      A                      A                      A
 Frequencies --   3205.5464              3215.5950              3218.0619
 Red. masses --      1.0922                 1.0889                 1.0965
 Frc consts  --      6.6124                 6.6340                 6.6906
 IR Inten    --     27.2169                16.2316                26.5683

                     91                     92                     93
                      A                      A                      A
 Frequencies --   3228.3028              3427.4951              3599.1903
 Red. masses --      1.0947                 1.0627                 1.0864
 Frc consts  --      6.7218                 7.3552                 8.2922
 IR Inten    --     10.2219                95.9866                79.5990

 - Thermochemistry -
 -------------------
 Temperature   298.150 Kelvin.  Pressure   1.00000 Atm.
 Atom     1 has atomic number  6 and mass  12.00000

 Molecular mass:   206.14191 amu.
 Principal axes and moments of inertia in atomic units:
                           1         2         3
     Eigenvalues --  1928.672594829.258325890.83997
           X            0.99993  -0.00995   0.00566
           Y            0.00994   0.99995   0.00164
           Z           -0.00568  -0.00158   0.99998
 This molecule is an asymmetric top.
 Rotational symmetry number  1.
 Warning -- assumption of classical behavior for rotation
           may cause significant error
 Rotational temperatures (Kelvin)      0.04491     0.01794     0.01470
 Rotational constants (GHZ):           0.93574     0.37371     0.30636
    1 imaginary frequencies ignored.
 Zero-point vibrational energy     750301.7 (Joules/Mol)
                                  179.32640 (Kcal/Mol)
 Warning -- explicit consideration of  22 degrees of freedom as
           vibrations may cause significant error
 Vibrational temperatures:     51.61    63.70   102.07   111.97   146.68
          (Kelvin)            155.05   208.21   219.36   242.69   289.01
                              310.48   322.70   359.37   417.70   445.26
                              563.67   595.28   605.12   660.29   772.45
                              815.56   857.75   917.32   942.32   957.59
                             1035.41  1066.94  1125.79  1147.07  1177.28
                             1257.13  1323.17  1383.56  1428.19  1454.27
                             1456.07  1477.42  1478.21  1526.48  1536.24
                             1570.49  1577.34  1601.38  1623.11  1629.52
                             1672.67  1683.89  1701.43  1718.40  1729.91
                             1740.18  1798.71  1890.19  1918.73  1943.67
                             1956.69  2013.08  2068.11  2074.60  2090.81
                             2108.70  2132.11  2144.65  2148.32  2149.76
                             2161.15  2162.97  2169.50  2208.18  2223.26
                             2291.89  2373.61  2379.49  2410.64  4329.58
                             4341.59  4388.84  4424.78  4458.32  4491.87
                             4527.35  4530.26  4531.28  4577.46  4585.62
                             4597.26  4612.07  4626.52  4630.07  4644.81
                             4931.40  5178.43

 Zero-point correction=                           0.285775 (Hartree/Particle)
 Thermal correction to Energy=                    0.301475
 Thermal correction to Enthalpy=                  0.302419
 Thermal correction to Gibbs Free Energy=         0.241948
 Sum of electronic and zero-point Energies=           -652.549883
 Sum of electronic and thermal Energies=              -652.534184
 Sum of electronic and thermal Enthalpies=            -652.533239
 Sum of electronic and thermal Free Energies=         -652.593710

                     E (Thermal)             CV                S
                      KCal/Mol        Cal/Mol-Kelvin    Cal/Mol-Kelvin
 Total                  189.178             57.783            127.272
 Electronic               0.000              0.000              0.000
 Translational            0.889              2.981             41.874
 Rotational               0.889              2.981             32.373
 Vibrational            187.401             51.821             53.024
 Vibration     1          0.594              1.982              5.475
 Vibration     2          0.595              1.980              5.058
 Vibration     3          0.598              1.968              4.127
 Vibration     4          0.599              1.964              3.945
 Vibration     5          0.604              1.948              3.417
 Vibration     6          0.606              1.943              3.309
 Vibration     7          0.616              1.908              2.741
 Vibration     8          0.619              1.900              2.641
 Vibration     9          0.625              1.881              2.450
 Vibration    10          0.638              1.839              2.125
 Vibration    11          0.645              1.817              1.994
 Vibration    12          0.649              1.804              1.924
 Vibration    13          0.663              1.763              1.732
 Vibration    14          0.686              1.692              1.472
 Vibration    15          0.699              1.656              1.365
 Vibration    16          0.759              1.488              0.993
 Vibration    17          0.777              1.440              0.913
 Vibration    18          0.783              1.426              0.890
 Vibration    19          0.817              1.341              0.769
 Vibration    20          0.892              1.168              0.572
 Vibration    21          0.923              1.103              0.510
 Vibration    22          0.954              1.040              0.456

 Optimization completed.
    -- Stationary point found.
 Normal termination of Gaussian 16 at Thu Feb 11 08:41:39 2021.
