 Gaussian 16, Revision A.03,
 Gaussian 16:  ES64L-G16RevA.03 25-Dec-2016

 ----------------------------------------------------------------------
 # wB97XD def2tzvp, opt=(ts, noeigen, calcfc, maxcycles=70, maxstep=8),
  freq=noraman, scrf=(iefpcm, solvent=water)
 ----------------------------------------------------------------------

 ------------------------
 1_iteration/TS-227-1.out
 ------------------------
 Symbolic Z-matrix:
 Charge =  0 Multiplicity = 1

 SCF Done:  E(RwB97XD) =  -3147.83151879     A.U. after   15 cycles
 SCF Done:  E(RwB97XD) =  -3147.83350482     A.U. after   14 cycles
 SCF Done:  E(RwB97XD) =  -3147.83513286     A.U. after   13 cycles
 SCF Done:  E(RwB97XD) =  -3147.83656080     A.U. after   12 cycles
 SCF Done:  E(RwB97XD) =  -3147.83762197     A.U. after   12 cycles
 SCF Done:  E(RwB97XD) =  -3147.83824925     A.U. after   12 cycles
 SCF Done:  E(RwB97XD) =  -3147.83812627     A.U. after   12 cycles
 SCF Done:  E(RwB97XD) =  -3147.83853289     A.U. after   13 cycles
 SCF Done:  E(RwB97XD) =  -3147.83860601     A.U. after   12 cycles
 SCF Done:  E(RwB97XD) =  -3147.83861802     A.U. after   14 cycles
 SCF Done:  E(RwB97XD) =  -3147.84037412     A.U. after   11 cycles
 SCF Done:  E(RwB97XD) =  -3147.84036840     A.U. after   11 cycles
 SCF Done:  E(RwB97XD) =  -3147.84038498     A.U. after   10 cycles
 SCF Done:  E(RwB97XD) =  -3147.84014464     A.U. after   13 cycles
 SCF Done:  E(RwB97XD) =  -3147.84037834     A.U. after   12 cycles
 SCF Done:  E(RwB97XD) =  -3147.84038044     A.U. after   11 cycles
 SCF Done:  E(RwB97XD) =  -3147.84038477     A.U. after   10 cycles
 SCF Done:  E(RwB97XD) =  -3147.84038465     A.U. after    8 cycles
 SCF Done:  E(RwB97XD) =  -3147.84038495     A.U. after    8 cycles
 Optimization completed.
    -- Stationary point found.
 Normal termination of Gaussian 16 at Wed Feb 10 23:14:38 2021.

 ---------------------------------------------------------------------
 #N Geom=AllCheck Guess=TCheck SCRF=Check GenChk RwB97XD/def2TZVP Freq
 ---------------------------------------------------------------------

 Structure from the checkpoint file:  "/beegfs/scratch/user/q/tla25/Gau-2646.chk"
 ------------------------
 1_iteration/TS-227-1.out
 ------------------------
 Charge =  0 Multiplicity = 1

                         Standard orientation:
 ---------------------------------------------------------------------
 Center     Atomic      Atomic             Coordinates (Angstroms)
 Number     Number       Type             X           Y           Z
 ---------------------------------------------------------------------
      1          6           0        0.890815    0.289773   -0.083535
      2          6           0        0.996978    1.158452    1.062168
      3          8           0        0.150874    1.116797    1.972523
      4          6           0       -0.184650   -0.571987   -0.288165
      5          6           0        1.018069   -2.425408    1.528151
      6          1           0        1.055817   -2.862335    2.527051
      7          1           0        1.196587   -3.202898    0.787364
      8          1           0        1.802990   -1.673246    1.445550
      9          7           0       -0.261222   -1.785893    1.262030
     10          1           0       -1.025556   -2.447686    1.220866
     11          1           0       -0.470153   -1.072033    1.954309
     12          1           0        0.003373   -1.339653   -1.031657
     13          6           0       -1.621981   -0.153760   -0.298855
     14          6           0       -2.602421   -1.116004   -0.539186
     15          6           0       -3.940999   -0.768050   -0.620236
     16          6           0       -4.321665    0.558096   -0.474949
     17          6           0       -3.352165    1.527925   -0.263129
     18          6           0       -2.013894    1.175993   -0.181557
     19          1           0       -2.315522   -2.152306   -0.677739
     20          1           0       -4.685060   -1.532194   -0.805713
     21          1           0       -5.366032    0.835817   -0.539842
     22          1           0       -3.637759    2.567908   -0.166932
     23          1           0       -1.266766    1.942261   -0.034114
     24         35           0        2.482266   -0.064354   -1.110975
     25          7           0        2.037117    2.030234    1.146767
     26          1           0        2.185042    2.490021    2.027144
     27          1           0        2.796939    2.003801    0.491834
 ---------------------------------------------------------------------

 SCF Done:  E(RwB97XD) =  -3147.84038495     A.U. after    1 cycles

 The electronic state is 1-A.
 Alpha  occ. eigenvalues -- -483.12264 -62.67099 -56.46197 -56.45875 -56.45858
 Alpha  occ. eigenvalues --  -19.20346 -14.47153 -14.43997 -10.38431 -10.34639
 Alpha  occ. eigenvalues --  -10.31215 -10.30605 -10.30323 -10.29419 -10.29215
 Alpha  occ. eigenvalues --  -10.29158 -10.29112 -10.29043  -8.81212  -6.63304
 Alpha  occ. eigenvalues --   -6.62277  -6.62222  -2.73702  -2.73413  -2.73368
 Alpha  occ. eigenvalues --   -2.72537  -2.72536  -1.12832  -1.02832  -0.99659
 Alpha  occ. eigenvalues --   -0.97211  -0.92226  -0.87524  -0.85370  -0.81469
 Alpha  occ. eigenvalues --   -0.78253  -0.75100  -0.70772  -0.69400  -0.65127
 Alpha  occ. eigenvalues --   -0.62703  -0.62121  -0.60145  -0.56463  -0.56228
 Alpha  occ. eigenvalues --   -0.55438  -0.53662  -0.53113  -0.51672  -0.50839
 Alpha  occ. eigenvalues --   -0.50018  -0.48977  -0.47709  -0.47291  -0.46365
 Alpha  occ. eigenvalues --   -0.43503  -0.42928  -0.42196  -0.39249  -0.37870
 Alpha  occ. eigenvalues --   -0.35288  -0.34492  -0.33747  -0.32780  -0.26888
 Alpha virt. eigenvalues --    0.01643   0.05240   0.06907   0.09610   0.10877
 Alpha virt. eigenvalues --    0.12870   0.13717   0.14737   0.15485   0.16228
 Alpha virt. eigenvalues --    0.16816   0.17425   0.18062   0.18773   0.19307

 Mulliken charges:
               1
     1  C   -0.233197
     2  C    0.302499
     3  O   -0.551235
     4  C    0.079905
     5  C   -0.279627
     6  H    0.148482
     7  H    0.149846
     8  H    0.150473
     9  N   -0.350269
    10  H    0.272926
    11  H    0.275023
    12  H    0.173201
    13  C    0.137027
    14  C   -0.298512
    15  C   -0.135041
    16  C   -0.153182
    17  C   -0.125541
    18  C   -0.204972
    19  H    0.160383
    20  H    0.144320
    21  H    0.145284
    22  H    0.142923
    23  H    0.160698
    24  Br  -0.175575
    25  N   -0.472085
    26  H    0.269224
    27  H    0.267023
 Sum of Mulliken charges =  -0.00000

 Dipole moment (field-independent basis, Debye):
    X=             -1.0575    Y=             -4.7408    Z=              1.0028  Tot=              4.9598
 Quadrupole moment (field-independent basis, Debye-Ang):
   XX=            -85.5779   YY=            -79.9918   ZZ=           -101.5756
   XY=              6.8889   XZ=              6.4692   YZ=             -4.6567

  Exact polarizability: 270.485  14.046 232.423  -3.634   6.274 170.225
 Approx polarizability: 204.805   9.606 191.956  -6.102   6.612 147.540

 ******    1 imaginary frequencies (negative Signs) ******

                      1                      2                      3
                      A                      A                      A
 Frequencies --   -368.4369                41.0953                58.9624
 Red. masses --      5.4008                 4.0981                 3.5250
 Frc consts  --      0.4320                 0.0041                 0.0072
 IR Inten    --    783.4254                 0.8907                 1.3140

                      4                      5                      6
                      A                      A                      A
 Frequencies --     70.0751                79.6424                94.9458
 Red. masses --      4.3518                 3.8481                 3.2301
 Frc consts  --      0.0126                 0.0144                 0.0172
 IR Inten    --      5.9717                 6.9751                 9.5383

                      7                      8                      9
                      A                      A                      A
 Frequencies --    134.2921               158.9162               189.8401
 Red. masses --      3.8941                 3.8870                 5.1647
 Frc consts  --      0.0414                 0.0578                 0.1097
 IR Inten    --     57.5596                16.4288                 2.4333

                     10                     11                     12
                      A                      A                      A
 Frequencies --    202.5223               208.8542               228.0402
 Red. masses --      2.1385                 2.0474                 1.3149
 Frc consts  --      0.0517                 0.0526                 0.0403
 IR Inten    --      4.5898                17.3878               285.0369

                     13                     14                     15
                      A                      A                      A
 Frequencies --    249.2656               289.4895               321.8780
 Red. masses --      3.1529                 5.7716                 4.9396
 Frc consts  --      0.1154                 0.2850                 0.3015
 IR Inten    --      6.2471                 8.6112                10.0674

                     16                     17                     18
                      A                      A                      A
 Frequencies --    396.0492               422.1242               424.6417
 Red. masses --      4.3772                 3.3765                 3.0045
 Frc consts  --      0.4045                 0.3545                 0.3192
 IR Inten    --     18.3600                37.8315                 6.8197

                     19                     20                     21
                      A                      A                      A
 Frequencies --    520.5709               531.1638               552.0414
 Red. masses --      1.5089                 2.4667                 2.1407
 Frc consts  --      0.2409                 0.4100                 0.3844
 IR Inten    --     14.8094                90.4038                13.6817

                     22                     23                     24
                      A                      A                      A
 Frequencies --    614.3243               638.1128               661.7419
 Red. masses --      5.9182                 6.3130                 1.6325
 Frc consts  --      1.3159                 1.5145                 0.4212
 IR Inten    --     27.3894                 0.4733                74.8724

                     25                     26                     27
                      A                      A                      A
 Frequencies --    725.7924               768.6896               779.1782
 Red. masses --      1.6889                 2.4534                 8.5290
 Frc consts  --      0.5242                 0.8541                 3.0509
 IR Inten    --     73.9290                26.6638                66.1157

                     28                     29                     30
                      A                      A                      A
 Frequencies --    811.0406               838.7104               878.4315
 Red. masses --      2.8848                 4.4992                 1.2443
 Frc consts  --      1.1180                 1.8647                 0.5657
 IR Inten    --     45.4567                13.7727                 1.1199

                     31                     32                     33
                      A                      A                      A
 Frequencies --    962.6942               985.5127               994.2040
 Red. masses --      1.4257                 2.1056                 1.2624
 Frc consts  --      0.7785                 1.2049                 0.7352
 IR Inten    --     16.8864                39.0412                64.3187

                     34                     35                     36
                      A                      A                      A
 Frequencies --   1016.8138              1027.7522              1031.2776
 Red. masses --      1.3434                 4.7134                 1.3816
 Frc consts  --      0.8183                 2.9333                 0.8657
 IR Inten    --      6.4929                 0.9008                 2.8494

                     37                     38                     39
                      A                      A                      A
 Frequencies --   1047.6352              1065.8035              1084.2201
 Red. masses --      1.2244                 2.0573                 2.7513
 Frc consts  --      0.7917                 1.3769                 1.9055
 IR Inten    --     53.5227                12.0643                94.0937

                     40                     41                     42
                      A                      A                      A
 Frequencies --   1087.9443              1105.6775              1120.3045
 Red. masses --      1.8649                 1.4726                 1.5743
 Frc consts  --      1.3005                 1.0607                 1.1642
 IR Inten    --     42.5817                21.1854                20.4183

                     43                     44                     45
                      A                      A                      A
 Frequencies --   1183.8924              1203.0020              1213.5611
 Red. masses --      1.1317                 1.4001                 1.3665
 Frc consts  --      0.9346                 1.1938                 1.1857
 IR Inten    --      0.1319                28.5076                 6.7535

                     46                     47                     48
                      A                      A                      A
 Frequencies --   1217.9610              1288.7210              1337.3732
 Red. masses --      2.2220                 1.7785                 3.8484
 Frc consts  --      1.9421                 1.7403                 4.0554
 IR Inten    --     13.9116                13.2210                 8.6446

                     49                     50                     51
                      A                      A                      A
 Frequencies --   1352.5285              1365.2818              1408.5774
 Red. masses --      1.3257                 1.4180                 3.6908
 Frc consts  --      1.4288                 1.5573                 4.3145
 IR Inten    --      2.9294                 6.4142               959.2084

                     52                     53                     54
                      A                      A                      A
 Frequencies --   1443.8713              1464.8058              1490.7882
 Red. masses --      1.7568                 1.6462                 1.0405
 Frc consts  --      2.1579                 2.0812                 1.3625
 IR Inten    --    103.6846                85.0640                15.9741

                     55                     56                     57
                      A                      A                      A
 Frequencies --   1503.0116              1504.7829              1546.7393
 Red. masses --      1.4732                 1.4150                 2.3613
 Frc consts  --      1.9608                 1.8879                 3.3284
 IR Inten    --     88.6723                23.6674                21.4437

                     58                     59                     60
                      A                      A                      A
 Frequencies --   1595.3813              1629.7696              1651.5537
 Red. masses --      1.7072                 1.4079                 2.0755
 Frc consts  --      2.5602                 2.2033                 3.3355
 IR Inten    --    274.8627               459.2465               112.7512

                     61                     62                     63
                      A                      A                      A
 Frequencies --   1655.8674              1676.0119              3060.7098
 Red. masses --      4.3359                 5.8519                 1.0336
 Frc consts  --      7.0046                 9.6850                 5.7048
 IR Inten    --     50.2776                 0.4304                49.9674

                     64                     65                     66
                      A                      A                      A
 Frequencies --   3134.0942              3158.0563              3174.9462
 Red. masses --      1.1038                 1.1053                 1.0888
 Frc consts  --      6.3878                 6.4950                 6.4663
 IR Inten    --     16.3840                20.4754                 3.7309

                     67                     68                     69
                      A                      A                      A
 Frequencies --   3187.2907              3198.9211              3209.8284
 Red. masses --      1.0883                 1.0876                 1.0926
 Frc consts  --      6.5141                 6.5576                 6.6325
 IR Inten    --     10.9595                 0.6605                25.9892

                     70                     71                     72
                      A                      A                      A
 Frequencies --   3221.7271              3242.5087              3496.6907
 Red. masses --      1.0977                 1.0928                 1.0550
 Frc consts  --      6.7127                 6.7692                 7.6002
 IR Inten    --     25.9307                 8.3534                36.8149

                     73                     74                     75
                      A                      A                      A
 Frequencies --   3607.8745              3625.8166              3750.7201
 Red. masses --      1.0925                 1.0456                 1.1046
 Frc consts  --      8.3787                 8.0991                 9.1559
 IR Inten    --     75.8887                87.4361                92.5092

 - Thermochemistry -
 -------------------
 Temperature   298.150 Kelvin.  Pressure   1.00000 Atm.
 Atom     1 has atomic number  6 and mass  12.00000

 Molecular mass:   256.02112 amu.
 Principal axes and moments of inertia in atomic units:
                           1         2         3
     Eigenvalues --  2208.931025890.363266144.42208
           X            0.99930   0.00717   0.03673
           Y           -0.00245   0.99191  -0.12693
           Z           -0.03735   0.12675   0.99123
 This molecule is an asymmetric top.
 Rotational symmetry number  1.
 Warning -- assumption of classical behavior for rotation
           may cause significant error
 Rotational temperatures (Kelvin)      0.03921     0.01470     0.01410
 Rotational constants (GHZ):           0.81702     0.30639     0.29372
    1 imaginary frequencies ignored.
 Zero-point vibrational energy     575541.0 (Joules/Mol)
                                  137.55759 (Kcal/Mol)
 Warning -- explicit consideration of  21 degrees of freedom as
           vibrations may cause significant error
 Vibrational temperatures:     59.13    84.83   100.82   114.59   136.61
          (Kelvin)            193.22   228.64   273.14   291.38   300.49
                              328.10   358.64   416.51   463.11   569.83
                              607.34   610.96   748.99   764.23   794.26
                              883.88   918.10   952.10  1044.25  1105.97
                             1121.06  1166.91  1206.72  1263.87  1385.10
                             1417.93  1430.44  1462.97  1478.71  1483.78
                             1507.31  1533.45  1559.95  1565.31  1590.82
                             1611.87  1703.36  1730.85  1746.04  1752.37
                             1854.18  1924.18  1945.99  1964.34  2026.63
                             2077.41  2107.53  2144.91  2162.50  2165.05
                             2225.41  2295.40  2344.87  2376.22  2382.42
                             2411.41  4403.68  4509.26  4543.74  4568.04
                             4585.80  4602.53  4618.23  4635.35  4665.25
                             5030.96  5190.93  5216.74  5396.45

 Zero-point correction=                           0.219212 (Hartree/Particle)
 Thermal correction to Energy=                    0.233760
 Thermal correction to Enthalpy=                  0.234704
 Thermal correction to Gibbs Free Energy=         0.176234
 Sum of electronic and zero-point Energies=          -3147.621173
 Sum of electronic and thermal Energies=             -3147.606625
 Sum of electronic and thermal Enthalpies=           -3147.605681
 Sum of electronic and thermal Free Energies=        -3147.664151

                     E (Thermal)             CV                S
                      KCal/Mol        Cal/Mol-Kelvin    Cal/Mol-Kelvin
 Total                  146.687             52.775            123.060
 Electronic               0.000              0.000              0.000
 Translational            0.889              2.981             42.520
 Rotational               0.889              2.981             32.747
 Vibrational            144.909             46.813             47.793
 Vibration     1          0.594              1.981              5.206
 Vibration     2          0.596              1.974              4.492
 Vibration     3          0.598              1.968              4.151
 Vibration     4          0.600              1.963              3.900
 Vibration     5          0.603              1.953              3.556
 Vibration     6          0.613              1.919              2.884
 Vibration     7          0.621              1.893              2.563
 Vibration     8          0.633              1.854              2.229
 Vibration     9          0.639              1.836              2.110
 Vibration    10          0.642              1.827              2.054
 Vibration    11          0.651              1.798              1.894
 Vibration    12          0.662              1.764              1.736
 Vibration    13          0.686              1.693              1.477
 Vibration    14          0.707              1.632              1.301
 Vibration    15          0.763              1.479              0.977
 Vibration    16          0.784              1.422              0.885
 Vibration    17          0.787              1.417              0.876
 Vibration    18          0.876              1.204              0.609
 Vibration    19          0.886              1.181              0.585
 Vibration    20          0.907              1.135              0.540
 Vibration    21          0.974              1.002              0.426

 Optimization completed.
    -- Stationary point found.
 Normal termination of Gaussian 16 at Thu Feb 11 00:03:51 2021.
