 Gaussian 16, Revision A.03,
 Gaussian 16:  ES64L-G16RevA.03 25-Dec-2016

 ----------------------------------------------------------------------
 # wB97XD def2tzvp, opt=(ts, noeigen, calcfc, maxcycles=70, maxstep=1),
  freq=noraman, scrf=(iefpcm, solvent=water)
 ----------------------------------------------------------------------

 ------------------------
 0_iteration/TS-283-0.out
 ------------------------
 Symbolic Z-matrix:
 Charge =  0 Multiplicity = 1

 SCF Done:  E(RwB97XD) =  -613.545109416     A.U. after   14 cycles
 SCF Done:  E(RwB97XD) =  -613.545028415     A.U. after   10 cycles
 SCF Done:  E(RwB97XD) =  -613.544954825     A.U. after   10 cycles
 SCF Done:  E(RwB97XD) =  -613.544888264     A.U. after   10 cycles
 SCF Done:  E(RwB97XD) =  -613.544826529     A.U. after   10 cycles
 SCF Done:  E(RwB97XD) =  -613.544770781     A.U. after   10 cycles
 SCF Done:  E(RwB97XD) =  -613.544721378     A.U. after   10 cycles
 SCF Done:  E(RwB97XD) =  -613.544680512     A.U. after   10 cycles
 SCF Done:  E(RwB97XD) =  -613.544655227     A.U. after   10 cycles
 SCF Done:  E(RwB97XD) =  -613.544633368     A.U. after   10 cycles
 SCF Done:  E(RwB97XD) =  -613.544716413     A.U. after   10 cycles
 SCF Done:  E(RwB97XD) =  -613.544722839     A.U. after   10 cycles
 SCF Done:  E(RwB97XD) =  -613.544726775     A.U. after   11 cycles
 SCF Done:  E(RwB97XD) =  -613.544728576     A.U. after   10 cycles
 SCF Done:  E(RwB97XD) =  -613.544729436     A.U. after   10 cycles
 SCF Done:  E(RwB97XD) =  -613.544729782     A.U. after    9 cycles
 SCF Done:  E(RwB97XD) =  -613.544729842     A.U. after    8 cycles
 SCF Done:  E(RwB97XD) =  -613.544729941     A.U. after    8 cycles
 SCF Done:  E(RwB97XD) =  -613.544729963     A.U. after    8 cycles
 Optimization completed.
    -- Stationary point found.
 Normal termination of Gaussian 16 at Tue Feb  9 10:17:38 2021.

 ---------------------------------------------------------------------
 #N Geom=AllCheck Guess=TCheck SCRF=Check GenChk RwB97XD/def2TZVP Freq
 ---------------------------------------------------------------------

 Structure from the checkpoint file:  "/beegfs/scratch/user/q/tla25/Gau-21713.chk"
 ------------------------
 0_iteration/TS-283-0.out
 ------------------------
 Charge =  0 Multiplicity = 1

                         Standard orientation:
 ---------------------------------------------------------------------
 Center     Atomic      Atomic             Coordinates (Angstroms)
 Number     Number       Type             X           Y           Z
 ---------------------------------------------------------------------
      1          6           0        0.348768    0.425642    0.383862
      2          6           0        0.806902    1.753546    0.041399
      3          8           0        1.982377    2.016876   -0.274763
      4          6           0        1.294938   -0.564988    0.699397
      5          6           0        3.101079   -2.138847   -1.078291
      6          1           0        3.366426   -2.352717   -2.115359
      7          1           0        3.999412   -1.836030   -0.544580
      8          1           0        2.708885   -3.045729   -0.619141
      9          7           0        2.099943   -1.080548   -0.978725
     10          1           0        2.458093   -0.172215   -1.256935
     11          1           0        1.283923   -1.279139   -1.543732
     12          1           0        0.856825   -1.536913    0.907866
     13          6           0        2.535435   -0.323071    1.516345
     14          1           0        2.225622   -0.145875    2.548870
     15          1           0        3.187466   -1.196206    1.518243
     16          1           0        3.086274    0.546044    1.168456
     17          6           0       -1.057525    0.014194    0.184341
     18          6           0       -1.809398    0.424659   -0.926477
     19          6           0       -3.117373    0.006172   -1.115732
     20          6           0       -3.718414   -0.857532   -0.210372
     21          6           0       -2.991554   -1.287196    0.891242
     22          6           0       -1.691181   -0.849282    1.088738
     23          1           0       -1.352455    1.072922   -1.664927
     24          1           0       -3.664579    0.343743   -1.987881
     25          1           0       -4.737750   -1.189842   -0.360707
     26          1           0       -3.445523   -1.955616    1.613141
     27          1           0       -1.154097   -1.171619    1.973329
     28          7           0       -0.095133    2.784714    0.101535
     29          1           0       -1.073929    2.596844    0.222019
     30          1           0        0.152664    3.638392   -0.366946
 ---------------------------------------------------------------------

 SCF Done:  E(RwB97XD) =  -613.544729963     A.U. after    1 cycles

 The electronic state is 1-A.
 Alpha  occ. eigenvalues --  -19.19270 -14.47004 -14.42985 -10.36898 -10.33029
 Alpha  occ. eigenvalues --  -10.31374 -10.29532 -10.28442 -10.28426 -10.28035
 Alpha  occ. eigenvalues --  -10.27948 -10.27901 -10.27008 -10.24768  -1.11513
 Alpha  occ. eigenvalues --   -1.02601  -0.98493  -0.95850  -0.89907  -0.84807
 Alpha  occ. eigenvalues --   -0.84264  -0.79125  -0.77987  -0.71460  -0.68958
 Alpha  occ. eigenvalues --   -0.68772  -0.63972  -0.62053  -0.60961  -0.59790
 Alpha  occ. eigenvalues --   -0.56056  -0.55668  -0.54688  -0.53142  -0.52340
 Alpha  occ. eigenvalues --   -0.51863  -0.50166  -0.49231  -0.48588  -0.47910
 Alpha  occ. eigenvalues --   -0.47177  -0.46676  -0.45603  -0.44318  -0.42018
 Alpha  occ. eigenvalues --   -0.41785  -0.40335  -0.35052  -0.34216  -0.33067
 Alpha  occ. eigenvalues --   -0.32557  -0.24953
 Alpha virt. eigenvalues --    0.05353   0.05734   0.07145   0.10427   0.12705
 Alpha virt. eigenvalues --    0.13695   0.14305   0.15090   0.15568   0.16817
 Alpha virt. eigenvalues --    0.17141   0.17824   0.18338   0.18803   0.19158

 Mulliken charges:
               1
     1  C   -0.158616
     2  C    0.310290
     3  O   -0.565510
     4  C   -0.014667
     5  C   -0.288835
     6  H    0.147695
     7  H    0.153727
     8  H    0.149582
     9  N   -0.330108
    10  H    0.269023
    11  H    0.275146
    12  H    0.144209
    13  C   -0.379070
    14  H    0.132666
    15  H    0.133125
    16  H    0.146769
    17  C    0.147310
    18  C   -0.314735
    19  C   -0.125425
    20  C   -0.176205
    21  C   -0.135325
    22  C   -0.285489
    23  H    0.153348
    24  H    0.137208
    25  H    0.138762
    26  H    0.136416
    27  H    0.146570
    28  N   -0.477043
    29  H    0.270914
    30  H    0.258266
 Sum of Mulliken charges =  -0.00000

 Dipole moment (field-independent basis, Debye):
    X=              0.5436    Y=             -5.0798    Z=             -2.3628  Tot=              5.6287
 Quadrupole moment (field-independent basis, Debye-Ang):
   XX=            -80.4783   YY=            -81.4907   ZZ=            -79.9758
   XY=            -16.5424   XZ=             -1.8881   YZ=             -1.8673

  Exact polarizability: 265.871   1.365 207.399   1.885 -14.666 182.668
 Approx polarizability: 197.448   4.584 164.841   1.201 -14.333 156.009

 ******    1 imaginary frequencies (negative Signs) ******

                      1                      2                      3
                      A                      A                      A
 Frequencies --   -378.5318                28.4989                46.0122
 Red. masses --      5.8579                 4.1546                 3.6696
 Frc consts  --      0.4945                 0.0020                 0.0046
 IR Inten    --   1018.5469                22.0384                 6.3097

                      4                      5                      6
                      A                      A                      A
 Frequencies --     69.0279                86.1424                97.1691
 Red. masses --      4.2075                 2.1911                 2.8791
 Frc consts  --      0.0118                 0.0096                 0.0160
 IR Inten    --      7.5452                 5.0059                 4.1730

                      7                      8                      9
                      A                      A                      A
 Frequencies --    129.4602               155.3158               188.1783
 Red. masses --      3.9978                 1.0658                 2.3380
 Frc consts  --      0.0395                 0.0151                 0.0488
 IR Inten    --      1.3737                 1.5819                12.7111

                     10                     11                     12
                      A                      A                      A
 Frequencies --    209.1368               237.3651               267.3501
 Red. masses --      4.0207                 2.1484                 2.1794
 Frc consts  --      0.1036                 0.0713                 0.0918
 IR Inten    --     15.6785                29.1038                 7.6266

                     13                     14                     15
                      A                      A                      A
 Frequencies --    311.5008               326.6646               346.5362
 Red. masses --      3.0769                 1.7432                 1.8496
 Frc consts  --      0.1759                 0.1096                 0.1309
 IR Inten    --    113.5842               235.2156                86.2146

                     16                     17                     18
                      A                      A                      A
 Frequencies --    385.1849               424.5952               429.0616
 Red. masses --      3.5680                 3.2743                 2.8657
 Frc consts  --      0.3119                 0.3478                 0.3108
 IR Inten    --     30.4738                 6.7862                 7.2568

                     19                     20                     21
                      A                      A                      A
 Frequencies --    472.2651               515.3352               530.0465
 Red. masses --      2.7523                 3.1000                 1.5444
 Frc consts  --      0.3617                 0.4851                 0.2556
 IR Inten    --     23.6384                 8.6041                38.8387

                     22                     23                     24
                      A                      A                      A
 Frequencies --    601.5036               637.5989               648.6195
 Red. masses --      2.5551                 5.8282                 1.6016
 Frc consts  --      0.5447                 1.3960                 0.3970
 IR Inten    --     23.5531                 3.6523                38.1629

                     25                     26                     27
                      A                      A                      A
 Frequencies --    682.1550               728.5445               746.4988
 Red. masses --      2.9550                 1.5694                 3.0243
 Frc consts  --      0.8102                 0.4908                 0.9930
 IR Inten    --      4.6249                72.3405                 6.8849

                     28                     29                     30
                      A                      A                      A
 Frequencies --    786.3530               801.0761               873.6136
 Red. masses --      3.3691                 3.8149                 1.2483
 Frc consts  --      1.2275                 1.4424                 0.5613
 IR Inten    --      6.4184               125.8737                 2.2454

                     31                     32                     33
                      A                      A                      A
 Frequencies --    938.1614               955.9147               980.9929
 Red. masses --      1.4816                 1.9325                 2.3830
 Frc consts  --      0.7683                 1.0404                 1.3511
 IR Inten    --      1.4349                60.0907                 4.3132

                     34                     35                     36
                      A                      A                      A
 Frequencies --   1007.2728              1010.9096              1017.9606
 Red. masses --      1.3952                 1.1910                 1.3498
 Frc consts  --      0.8340                 0.7171                 0.8241
 IR Inten    --      0.3991                12.5049                 1.1694

                     37                     38                     39
                      A                      A                      A
 Frequencies --   1020.8744              1038.6984              1050.9916
 Red. masses --      4.6000                 1.2025                 1.5976
 Frc consts  --      2.8246                 0.7644                 1.0398
 IR Inten    --      8.4082               105.2901                80.5010

                     40                     41                     42
                      A                      A                      A
 Frequencies --   1066.3927              1074.0676              1099.9181
 Red. masses --      1.9671                 2.5292                 1.8456
 Frc consts  --      1.3180                 1.7191                 1.3156
 IR Inten    --     36.7794               165.1866                53.1243

                     43                     44                     45
                      A                      A                      A
 Frequencies --   1110.3391              1151.4762              1172.0152
 Red. masses --      1.5786                 2.2039                 1.3135
 Frc consts  --      1.1466                 1.7217                 1.0631
 IR Inten    --      9.8955                12.6139                72.1755

                     46                     47                     48
                      A                      A                      A
 Frequencies --   1180.0227              1207.9038              1211.9666
 Red. masses --      1.1270                 1.4020                 1.1304
 Frc consts  --      0.9246                 1.2052                 0.9783
 IR Inten    --      8.2450                30.9857                 7.0057

                     49                     50                     51
                      A                      A                      A
 Frequencies --   1283.4874              1305.4295              1308.9842
 Red. masses --      2.4471                 3.2906                 2.9491
 Frc consts  --      2.3751                 3.3039                 2.9772
 IR Inten    --      6.4649                69.2882                47.2309

                     52                     53                     54
                      A                      A                      A
 Frequencies --   1345.7723              1357.1652              1394.6747
 Red. masses --      1.3056                 1.6363                 1.3622
 Frc consts  --      1.3931                 1.7757                 1.5611
 IR Inten    --      5.7295                86.7930               136.0063

                     55                     56                     57
                      A                      A                      A
 Frequencies --   1400.4779              1451.6720              1469.2534
 Red. masses --      2.6523                 1.3981                 1.3648
 Frc consts  --      3.0650                 1.7359                 1.7358
 IR Inten    --    559.5057                57.6494                73.8142

                     58                     59                     60
                      A                      A                      A
 Frequencies --   1487.1337              1491.1128              1493.9014
 Red. masses --      1.8053                 1.0482                 1.1560
 Frc consts  --      2.3524                 1.3731                 1.5201
 IR Inten    --     16.3051                 4.6346                33.9945

                     61                     62                     63
                      A                      A                      A
 Frequencies --   1501.0567              1512.2939              1537.6133
 Red. masses --      1.3524                 1.1117                 2.3008
 Frc consts  --      1.7954                 1.4979                 3.2050
 IR Inten    --     91.1853                36.3272               127.1747

                     64                     65                     66
                      A                      A                      A
 Frequencies --   1610.2747              1632.2285              1638.1504
 Red. masses --      1.7885                 2.7861                 4.4888
 Frc consts  --      2.7323                 4.3733                 7.0972
 IR Inten    --    481.7828               380.1930               411.4818

                     67                     68                     69
                      A                      A                      A
 Frequencies --   1650.9534              1667.4079              3059.1894
 Red. masses --      1.0947                 5.6732                 1.0364
 Frc consts  --      1.7579                 9.2931                 5.7149
 IR Inten    --     47.0058                 5.9682                68.9945

                     70                     71                     72
                      A                      A                      A
 Frequencies --   3063.8183              3128.8277              3133.6122
 Red. masses --      1.0400                 1.0986                 1.1020
 Frc consts  --      5.7517                 6.3363                 6.3759
 IR Inten    --     34.9575                40.4503                23.6441

                     73                     74                     75
                      A                      A                      A
 Frequencies --   3155.0281              3164.3955              3180.8600
 Red. masses --      1.0897                 1.1043                 1.0996
 Frc consts  --      6.3910                 6.5153                 6.5548
 IR Inten    --     12.2278                21.4148                13.1888

                     76                     77                     78
                      A                      A                      A
 Frequencies --   3182.5056              3185.4688              3197.0741
 Red. masses --      1.0864                 1.0876                 1.0910
 Frc consts  --      6.4832                 6.5024                 6.5700
 IR Inten    --     13.7560                 1.3237                 9.0335

                     79                     80                     81
                      A                      A                      A
 Frequencies --   3201.8321              3216.0943              3513.1465
 Red. masses --      1.0948                 1.0984                 1.0533
 Frc consts  --      6.6128                 6.6937                 7.6594
 IR Inten    --     57.3121                24.3720                27.5975

                     82                     83                     84
                      A                      A                      A
 Frequencies --   3603.7023              3620.2236              3742.6289
 Red. masses --      1.0948                 1.0457                 1.1034
 Frc consts  --      8.3767                 8.0750                 9.1060
 IR Inten    --     50.6980                56.0134                70.0517

 - Thermochemistry -
 -------------------
 Temperature   298.150 Kelvin.  Pressure   1.00000 Atm.
 Atom     1 has atomic number  6 and mass  12.00000

 Molecular mass:   192.12626 amu.
 Principal axes and moments of inertia in atomic units:
                           1         2         3
     Eigenvalues --  1883.934493901.808874730.16663
           X            0.99933  -0.03662   0.00256
           Y            0.03663   0.99932  -0.00511
           Z           -0.00237   0.00520   0.99998
 This molecule is an asymmetric top.
 Rotational symmetry number  1.
 Warning -- assumption of classical behavior for rotation
           may cause significant error
 Rotational temperatures (Kelvin)      0.04598     0.02220     0.01831
 Rotational constants (GHZ):           0.95796     0.46254     0.38154
    1 imaginary frequencies ignored.
 Zero-point vibrational energy     675556.0 (Joules/Mol)
                                  161.46175 (Kcal/Mol)
 Warning -- explicit consideration of  21 degrees of freedom as
           vibrations may cause significant error
 Vibrational temperatures:     41.00    66.20    99.32   123.94   139.80
          (Kelvin)            186.26   223.46   270.75   300.90   341.52
                              384.66   448.18   470.00   498.59   554.20
                              610.90   617.32   679.48   741.45   762.62
                              865.43   917.36   933.22   981.47  1048.21
                             1074.05  1131.39  1152.57  1256.94  1349.81
                             1375.35  1411.43  1449.24  1454.47  1464.62
                             1468.81  1494.46  1512.14  1534.30  1545.34
                             1582.54  1597.53  1656.72  1686.27  1697.79
                             1737.90  1743.75  1846.65  1878.22  1883.34
                             1936.27  1952.66  2006.63  2014.98  2088.63
                             2113.93  2139.65  2145.38  2149.39  2159.69
                             2175.85  2212.28  2316.83  2348.41  2356.93
                             2375.35  2399.03  4401.49  4408.15  4501.69
                             4508.57  4539.38  4552.86  4576.55  4578.92
                             4583.18  4599.88  4606.72  4627.24  5054.63
                             5184.92  5208.69  5384.81

 Zero-point correction=                           0.257306 (Hartree/Particle)
 Thermal correction to Energy=                    0.271898
 Thermal correction to Enthalpy=                  0.272842
 Thermal correction to Gibbs Free Energy=         0.214875
 Sum of electronic and zero-point Energies=           -613.287424
 Sum of electronic and thermal Energies=              -613.272832
 Sum of electronic and thermal Enthalpies=            -613.271888
 Sum of electronic and thermal Free Energies=         -613.329855

                     E (Thermal)             CV                S
                      KCal/Mol        Cal/Mol-Kelvin    Cal/Mol-Kelvin
 Total                  170.619             54.253            122.002
 Electronic               0.000              0.000              0.000
 Translational            0.889              2.981             41.664
 Rotational               0.889              2.981             31.920
 Vibrational            168.841             48.291             48.418
 Vibration     1          0.593              1.984              5.931
 Vibration     2          0.595              1.979              4.982
 Vibration     3          0.598              1.969              4.181
 Vibration     4          0.601              1.959              3.746
 Vibration     5          0.603              1.951              3.510
 Vibration     6          0.612              1.924              2.954
 Vibration     7          0.620              1.897              2.606
 Vibration     8          0.633              1.856              2.246
 Vibration     9          0.642              1.827              2.051
 Vibration    10          0.656              1.783              1.823
 Vibration    11          0.672              1.733              1.613
 Vibration    12          0.700              1.652              1.354
 Vibration    13          0.710              1.622              1.277
 Vibration    14          0.725              1.582              1.182
 Vibration    15          0.754              1.502              1.019
 Vibration    16          0.787              1.417              0.876
 Vibration    17          0.790              1.407              0.862
 Vibration    18          0.829              1.312              0.731
 Vibration    19          0.870              1.216              0.621
 Vibration    20          0.885              1.184              0.587
 Vibration    21          0.960              1.029              0.447

 Optimization completed.
    -- Stationary point found.
 Normal termination of Gaussian 16 at Tue Feb  9 11:03:57 2021.
