 Gaussian 16, Revision A.03,
 Gaussian 16:  ES64L-G16RevA.03 25-Dec-2016

 ----------------------------------------------------------------------
 # wB97XD def2tzvp, opt=(ts, noeigen, calcfc, maxcycles=70, maxstep=8),
  freq=noraman, scrf=(iefpcm, solvent=water)
 ----------------------------------------------------------------------

 ------------------------
 1_iteration/TS-279-1.out
 ------------------------
 Symbolic Z-matrix:
 Charge =  0 Multiplicity = 1

 SCF Done:  E(RwB97XD) =  -1033.83407452     A.U. after   14 cycles
 SCF Done:  E(RwB97XD) =  -1033.83407453     A.U. after    5 cycles
 Optimization completed.
    -- Stationary point found.
 Normal termination of Gaussian 16 at Wed Feb 10 09:03:56 2021.

 ---------------------------------------------------------------------
 #N Geom=AllCheck Guess=TCheck SCRF=Check GenChk RwB97XD/def2TZVP Freq
 ---------------------------------------------------------------------

 Structure from the checkpoint file:  "/beegfs/scratch/user/q/tla25/Gau-31425.chk"
 ------------------------
 1_iteration/TS-279-1.out
 ------------------------
 Charge =  0 Multiplicity = 1

                         Standard orientation:
 ---------------------------------------------------------------------
 Center     Atomic      Atomic             Coordinates (Angstroms)
 Number     Number       Type             X           Y           Z
 ---------------------------------------------------------------------
      1          6           0        1.664297    0.528392   -0.515353
      2          6           0        0.425196   -0.210605   -0.442758
      3          8           0        0.395687   -1.430121   -0.637810
      4          6           0        2.862834   -0.102830   -0.762626
      5          6           0        4.952263   -1.507997    0.589382
      6          1           0        5.383475   -1.917259    1.503801
      7          1           0        4.784766   -2.319732   -0.117172
      8          1           0        5.657020   -0.803292    0.150288
      9          7           0        3.686427   -0.823605    0.834914
     10          1           0        3.792906   -0.042437    1.470330
     11          1           0        2.983982   -1.445065    1.216489
     12          1           0        3.727198    0.492825   -1.026358
     13          1           0        2.800618   -1.067542   -1.249243
     14         17           0        1.709195    2.228559   -0.032590
     15          7           0       -0.708463    0.516206   -0.162199
     16          6           0       -2.030163    0.087362   -0.024133
     17          6           0       -2.975428    1.052291    0.340532
     18          6           0       -4.307127    0.714959    0.496277
     19          6           0       -4.730421   -0.592299    0.293786
     20          6           0       -3.796063   -1.549451   -0.068490
     21          6           0       -2.455653   -1.226157   -0.230576
     22          1           0       -0.560841    1.500105   -0.008882
     23          1           0       -2.657930    2.076118    0.502821
     24          1           0       -5.018337    1.481046    0.779038
     25          1           0       -5.772359   -0.857818    0.416114
     26          1           0       -4.108547   -2.573699   -0.232162
     27          1           0       -1.737931   -1.977985   -0.513806
 ---------------------------------------------------------------------

 SCF Done:  E(RwB97XD) =  -1033.83407453     A.U. after    1 cycles

 The electronic state is 1-A.
 Alpha  occ. eigenvalues -- -101.69089 -19.20533 -14.47688 -14.46283 -10.38783
 Alpha  occ. eigenvalues --  -10.33812 -10.32930 -10.31705 -10.30629 -10.29014
 Alpha  occ. eigenvalues --  -10.28856 -10.28794 -10.28203 -10.28124  -9.57627
 Alpha  occ. eigenvalues --   -7.32230  -7.31447  -7.31398  -1.13498  -1.04055
 Alpha  occ. eigenvalues --   -1.03160  -0.96547  -0.94904  -0.85370  -0.85071
 Alpha  occ. eigenvalues --   -0.84456  -0.78575  -0.75529  -0.71589  -0.69101
 Alpha  occ. eigenvalues --   -0.64831  -0.63128  -0.62669  -0.58961  -0.57779
 Alpha  occ. eigenvalues --   -0.56094  -0.53921  -0.53693  -0.52774  -0.52066
 Alpha  occ. eigenvalues --   -0.51530  -0.50549  -0.50108  -0.47905  -0.47279
 Alpha  occ. eigenvalues --   -0.46691  -0.44685  -0.44199  -0.42791  -0.41181
 Alpha  occ. eigenvalues --   -0.40406  -0.39448  -0.33997  -0.33693  -0.30254
 Alpha  occ. eigenvalues --   -0.26575
 Alpha virt. eigenvalues --    0.03982   0.05427   0.08551   0.10387   0.11182
 Alpha virt. eigenvalues --    0.13078   0.14173   0.14892   0.15753   0.16649
 Alpha virt. eigenvalues --    0.17201   0.17924   0.18161   0.18660   0.19064

 Mulliken charges:
               1
     1  C   -0.155988
     2  C    0.396326
     3  O   -0.549674
     4  C   -0.195870
     5  C   -0.270133
     6  H    0.149731
     7  H    0.149118
     8  H    0.149202
     9  N   -0.346626
    10  H    0.279757
    11  H    0.281004
    12  H    0.172234
    13  H    0.164982
    14  Cl  -0.191731
    15  N   -0.276194
    16  C    0.303747
    17  C   -0.311264
    18  C   -0.097619
    19  C   -0.199891
    20  C   -0.107969
    21  C   -0.298644
    22  H    0.230739
    23  H    0.140866
    24  H    0.143067
    25  H    0.140185
    26  H    0.140807
    27  H    0.159836
 Sum of Mulliken charges =  -0.00000

 Dipole moment (field-independent basis, Debye):
    X=              7.2351    Y=             -0.2588    Z=              3.5284  Tot=              8.0538
 Quadrupole moment (field-independent basis, Debye-Ang):
   XX=            -51.3909   YY=            -89.6921   ZZ=            -91.6154
   XY=            -12.0952   XZ=              6.5378   YZ=             -1.3026

  Exact polarizability: 312.615  -8.564 215.789  -3.838  10.254 137.152
 Approx polarizability: 214.454  -3.437 185.878  -4.301  10.231 122.884

 ******    1 imaginary frequencies (negative Signs) ******

                      1                      2                      3
                      A                      A                      A
 Frequencies --   -360.6486                19.0493                30.4527
 Red. masses --      6.4287                 3.7994                 2.8169
 Frc consts  --      0.4927                 0.0008                 0.0015
 IR Inten    --   1317.0837                 1.7638                 0.2166

                      4                      5                      6
                      A                      A                      A
 Frequencies --     33.4763                73.5789                77.3955
 Red. masses --      4.1721                 3.0116                 4.9761
 Frc consts  --      0.0028                 0.0096                 0.0176
 IR Inten    --      7.1311                16.8673                 3.2190

                      7                      8                      9
                      A                      A                      A
 Frequencies --    119.0440               127.9502               173.1693
 Red. masses --      4.7979                 4.4917                 1.3119
 Frc consts  --      0.0401                 0.0433                 0.0232
 IR Inten    --      0.2132                26.8987                 3.4067

                     10                     11                     12
                      A                      A                      A
 Frequencies --    194.7251               217.3391               245.2132
 Red. masses --      3.3559                 7.0432                 4.4853
 Frc consts  --      0.0750                 0.1960                 0.1589
 IR Inten    --     29.1271                16.5350                 5.2080

                     13                     14                     15
                      A                      A                      A
 Frequencies --    318.9564               371.4979               383.9314
 Red. masses --      3.7535                 4.9057                 4.2117
 Frc consts  --      0.2250                 0.3989                 0.3658
 IR Inten    --     13.3891                27.3128                51.3120

                     16                     17                     18
                      A                      A                      A
 Frequencies --    423.1859               460.5872               521.7283
 Red. masses --      2.9860                10.5400                 5.4815
 Frc consts  --      0.3151                 1.3174                 0.8791
 IR Inten    --      0.0239                52.6488                 3.9587

                     19                     20                     21
                      A                      A                      A
 Frequencies --    529.4495               567.8941               612.7361
 Red. masses --      3.0518                 1.1298                 1.1320
 Frc consts  --      0.5040                 0.2147                 0.2504
 IR Inten    --     43.6317               103.3791                24.7872

                     22                     23                     24
                      A                      A                      A
 Frequencies --    635.3678               642.8270               718.5250
 Red. masses --      6.3492                 6.1269                 1.8771
 Frc consts  --      1.5101                 1.4917                 0.5710
 IR Inten    --      2.9952                18.7432                66.5976

                     25                     26                     27
                      A                      A                      A
 Frequencies --    763.2540               768.2246               783.4499
 Red. masses --      5.4189                 4.8233                 1.8383
 Frc consts  --      1.8599                 1.6771                 0.6648
 IR Inten    --     29.9744                29.8364                96.8079

                     28                     29                     30
                      A                      A                      A
 Frequencies --    860.8434               869.7278               929.5589
 Red. masses --      1.2624                 5.3973                 1.8470
 Frc consts  --      0.5512                 2.4054                 0.9403
 IR Inten    --      0.0434                 2.4254                 9.1333

                     31                     32                     33
                      A                      A                      A
 Frequencies --    931.7659               998.6888              1000.5240
 Red. masses --      1.6642                 1.2440                 1.3473
 Frc consts  --      0.8513                 0.7311                 0.7947
 IR Inten    --      8.4028                 5.7658                 0.0258

                     34                     35                     36
                      A                      A                      A
 Frequencies --   1012.8296              1016.3951              1019.8726
 Red. masses --      1.1359                 1.2824                 5.6183
 Frc consts  --      0.6865                 0.7805                 3.4431
 IR Inten    --    107.6004                 0.8718                 7.9183

                     37                     38                     39
                      A                      A                      A
 Frequencies --   1061.6011              1073.2232              1074.5277
 Red. masses --      2.1032                 4.5232                 1.7018
 Frc consts  --      1.3965                 3.0696                 1.1577
 IR Inten    --      2.7152               302.0066                65.1914

                     40                     41                     42
                      A                      A                      A
 Frequencies --   1120.2769              1169.2779              1181.9159
 Red. masses --      1.4871                 1.5133                 1.1158
 Frc consts  --      1.0996                 1.2191                 0.9184
 IR Inten    --     16.9227               454.2949                34.6749

                     43                     44                     45
                      A                      A                      A
 Frequencies --   1183.8379              1208.1029              1211.4128
 Red. masses --      1.1873                 1.1394                 1.4393
 Frc consts  --      0.9803                 0.9798                 1.2445
 IR Inten    --    118.9809                10.9665                22.8446

                     46                     47                     48
                      A                      A                      A
 Frequencies --   1257.9476              1273.3004              1342.1645
 Red. masses --      3.0061                 2.3329                 1.3308
 Frc consts  --      2.8028                 2.2285                 1.4124
 IR Inten    --     17.9953               223.7126                 0.6365

                     49                     50                     51
                      A                      A                      A
 Frequencies --   1349.5195              1357.6830              1375.9294
 Red. masses --      3.7655                 1.6148                 1.8218
 Frc consts  --      4.0405                 1.7537                 2.0321
 IR Inten    --    429.2555                41.9707               443.6054

                     52                     53                     54
                      A                      A                      A
 Frequencies --   1462.6840              1479.6443              1490.8810
 Red. masses --      1.1934                 2.2256                 1.0435
 Frc consts  --      1.5044                 2.8709                 1.3666
 IR Inten    --     32.2989               261.0795                15.2844

                     55                     56                     57
                      A                      A                      A
 Frequencies --   1502.1793              1507.5246              1547.2869
 Red. masses --      2.1130                 1.0366                 2.4674
 Frc consts  --      2.8093                 1.3879                 3.4805
 IR Inten    --    560.7168                12.6195               145.4089

                     58                     59                     60
                      A                      A                      A
 Frequencies --   1567.3813              1647.0173              1657.5901
 Red. masses --      2.1431                 1.1060                 6.6541
 Frc consts  --      3.1019                 1.7677                10.7719
 IR Inten    --    915.9068                43.4184               177.6247

                     61                     62                     63
                      A                      A                      A
 Frequencies --   1664.7652              1681.0804              3063.7592
 Red. masses --      3.9780                 6.5153                 1.0337
 Frc consts  --      6.4956                10.8483                 5.7169
 IR Inten    --    133.9435               309.4368                64.9255

                     64                     65                     66
                      A                      A                      A
 Frequencies --   3140.2359              3157.9373              3162.5455
 Red. masses --      1.1046                 1.1057                 1.0593
 Frc consts  --      6.4175                 6.4967                 6.2422
 IR Inten    --     21.1734                19.6101                28.4959

                     67                     68                     69
                      A                      A                      A
 Frequencies --   3186.7589              3196.2337              3205.8288
 Red. masses --      1.0878                 1.0883                 1.0932
 Frc consts  --      6.5090                 6.5507                 6.6198
 IR Inten    --     13.2026                 2.7303                30.6688

                     70                     71                     72
                      A                      A                      A
 Frequencies --   3221.2614              3253.3015              3269.2120
 Red. masses --      1.0979                 1.1173                 1.0927
 Frc consts  --      6.7122                 6.9672                 6.8805
 IR Inten    --     22.8538                 1.0292                 6.6471

                     73                     74                     75
                      A                      A                      A
 Frequencies --   3535.3467              3618.8435              3633.9001
 Red. masses --      1.0503                 1.0968                 1.0762
 Frc consts  --      7.7347                 8.4626                 8.3735
 IR Inten    --     22.3949                44.9506                93.6062

 - Thermochemistry -
 -------------------
 Temperature   298.150 Kelvin.  Pressure   1.00000 Atm.
 Atom     1 has atomic number  6 and mass  12.00000

 Molecular mass:   212.07164 amu.
 Principal axes and moments of inertia in atomic units:
                           1         2         3
     Eigenvalues --  1440.129066743.114647830.60282
           X            0.99979  -0.02036   0.00258
           Y            0.02036   0.99979  -0.00134
           Z           -0.00256   0.00139   1.00000
 This molecule is an asymmetric top.
 Rotational symmetry number  1.
 Warning -- assumption of classical behavior for rotation
           may cause significant error
 Rotational temperatures (Kelvin)      0.06014     0.01284     0.01106
 Rotational constants (GHZ):           1.25318     0.26764     0.23047
    1 imaginary frequencies ignored.
 Zero-point vibrational energy     577480.1 (Joules/Mol)
                                  138.02106 (Kcal/Mol)
 Warning -- explicit consideration of  20 degrees of freedom as
           vibrations may cause significant error
 Vibrational temperatures:     27.41    43.81    48.16   105.86   111.35
          (Kelvin)            171.28   184.09   249.15   280.17   312.70
                              352.81   458.91   534.50   552.39   608.87
                              662.68   750.65   761.76   817.07   881.59
                              914.15   924.88  1033.80  1098.15  1105.30
                             1127.21  1238.56  1251.34  1337.43  1340.60
                             1436.89  1439.53  1457.24  1462.37  1467.37
                             1527.41  1544.13  1546.01  1611.83  1682.33
                             1700.51  1703.28  1738.19  1742.95  1809.91
                             1832.00  1931.08  1941.66  1953.40  1979.66
                             2104.48  2128.88  2145.05  2161.30  2168.99
                             2226.20  2255.11  2369.69  2384.90  2395.23
                             2418.70  4408.07  4518.10  4543.57  4550.20
                             4585.04  4598.67  4612.47  4634.68  4680.78
                             4703.67  5086.58  5206.71  5228.37

 Zero-point correction=                           0.219951 (Hartree/Particle)
 Thermal correction to Energy=                    0.234266
 Thermal correction to Enthalpy=                  0.235210
 Thermal correction to Gibbs Free Energy=         0.175377
 Sum of electronic and zero-point Energies=          -1033.614124
 Sum of electronic and thermal Energies=             -1033.599808
 Sum of electronic and thermal Enthalpies=           -1033.598864
 Sum of electronic and thermal Free Energies=        -1033.658698

                     E (Thermal)             CV                S
                      KCal/Mol        Cal/Mol-Kelvin    Cal/Mol-Kelvin
 Total                  147.004             51.320            125.930
 Electronic               0.000              0.000              0.000
 Translational            0.889              2.981             41.959
 Rotational               0.889              2.981             32.697
 Vibrational            145.227             45.358             51.274
 Vibration     1          0.593              1.986              6.731
 Vibration     2          0.594              1.984              5.800
 Vibration     3          0.594              1.983              5.612
 Vibration     4          0.599              1.966              4.055
 Vibration     5          0.599              1.964              3.956
 Vibration     6          0.609              1.933              3.116
 Vibration     7          0.611              1.925              2.977
 Vibration     8          0.627              1.875              2.401
 Vibration     9          0.635              1.847              2.182
 Vibration    10          0.646              1.815              1.981
 Vibration    11          0.660              1.771              1.765
 Vibration    12          0.705              1.637              1.315
 Vibration    13          0.743              1.531              1.074
 Vibration    14          0.753              1.504              1.024
 Vibration    15          0.785              1.420              0.881
 Vibration    16          0.818              1.337              0.764
 Vibration    17          0.877              1.202              0.606
 Vibration    18          0.884              1.185              0.588
 Vibration    19          0.924              1.101              0.508
 Vibration    20          0.972              1.005              0.428

 Optimization completed.
    -- Stationary point found.
 Normal termination of Gaussian 16 at Wed Feb 10 09:40:00 2021.
