 Gaussian 16, Revision A.03,
 Gaussian 16:  ES64L-G16RevA.03 25-Dec-2016

 ----------------------------------------------------------------------
 # wB97XD def2tzvp, opt=(ts, noeigen, calcfc, maxcycles=70, maxstep=8),
  freq=noraman, scrf=(iefpcm, solvent=water)
 ----------------------------------------------------------------------

 ------------------------
 1_iteration/TS-262-1.out
 ------------------------
 Symbolic Z-matrix:
 Charge =  0 Multiplicity = 1

 SCF Done:  E(RwB97XD) =  -461.091431846     A.U. after   15 cycles
 SCF Done:  E(RwB97XD) =  -461.092324929     A.U. after   12 cycles
 SCF Done:  E(RwB97XD) =  -461.092749758     A.U. after   12 cycles
 SCF Done:  E(RwB97XD) =  -461.093218284     A.U. after   12 cycles
 SCF Done:  E(RwB97XD) =  -461.093245119     A.U. after   12 cycles
 SCF Done:  E(RwB97XD) =  -461.093447870     A.U. after   11 cycles
 SCF Done:  E(RwB97XD) =  -461.093313733     A.U. after   12 cycles
 SCF Done:  E(RwB97XD) =  -461.093475523     A.U. after   12 cycles
 SCF Done:  E(RwB97XD) =  -461.093481379     A.U. after   10 cycles
 SCF Done:  E(RwB97XD) =  -461.093481999     A.U. after    9 cycles
 SCF Done:  E(RwB97XD) =  -461.093482118     A.U. after    7 cycles
 SCF Done:  E(RwB97XD) =  -461.093456573     A.U. after   11 cycles
 SCF Done:  E(RwB97XD) =  -461.093482106     A.U. after   11 cycles
 SCF Done:  E(RwB97XD) =  -461.093482153     A.U. after    7 cycles
 Optimization completed.
    -- Stationary point found.
 Normal termination of Gaussian 16 at Wed Feb 10 08:46:32 2021.

 ---------------------------------------------------------------------
 #N Geom=AllCheck Guess=TCheck SCRF=Check GenChk RwB97XD/def2TZVP Freq
 ---------------------------------------------------------------------

 Structure from the checkpoint file:  "/beegfs/scratch/user/q/tla25/Gau-21450.chk"
 ------------------------
 1_iteration/TS-262-1.out
 ------------------------
 Charge =  0 Multiplicity = 1

                         Standard orientation:
 ---------------------------------------------------------------------
 Center     Atomic      Atomic             Coordinates (Angstroms)
 Number     Number       Type             X           Y           Z
 ---------------------------------------------------------------------
      1          6           0        0.155259    0.846878   -0.231390
      2          6           0       -0.624669   -0.358152   -0.164004
      3          8           0       -0.099747   -1.491823   -0.282925
      4          6           0        1.449500    0.686223   -0.732233
      5          6           0        3.859654   -0.616481    0.014301
      6          1           0        4.377917   -1.268579    0.718867
      7          1           0        3.764814   -1.135087   -0.939396
      8          1           0        4.450909    0.285525   -0.136901
      9          7           0        2.529827   -0.246268    0.481554
     10          1           0        1.911441   -1.045369    0.596021
     11          1           0        2.551382    0.283502    1.343324
     12          1           0        2.069027    1.571403   -0.839236
     13          1           0        1.608567   -0.049477   -1.513847
     14          6           0       -0.199752    2.098965    0.540882
     15          1           0        0.696661    2.527705    0.998493
     16          1           0       -0.651742    2.893291   -0.064257
     17          1           0       -0.899432    1.887795    1.353371
     18          7           0       -1.977486   -0.282622    0.101643
     19          6           0       -2.800860    0.813225   -0.362694
     20          6           0       -2.702257   -1.498002    0.390893
     21          1           0       -2.199620    1.538601   -0.902359
     22          1           0       -3.566081    0.435554   -1.049447
     23          1           0       -3.308370    1.321271    0.462759
     24          1           0       -2.068508   -2.188734    0.940945
     25          1           0       -3.576661   -1.254747    0.998176
     26          1           0       -3.049967   -2.001779   -0.520015
 ---------------------------------------------------------------------

 SCF Done:  E(RwB97XD) =  -461.093482153     A.U. after    1 cycles

 The electronic state is 1-A.
 Alpha  occ. eigenvalues --  -19.18423 -14.47023 -14.43758 -10.35348 -10.31386
 Alpha  occ. eigenvalues --  -10.31052 -10.30007 -10.29614 -10.26348 -10.23714
 Alpha  occ. eigenvalues --   -1.10690  -1.02676  -1.01160  -0.87904  -0.80714
 Alpha  occ. eigenvalues --   -0.78962  -0.77470  -0.76816  -0.68383  -0.62692
 Alpha  occ. eigenvalues --   -0.61146  -0.56948  -0.55388  -0.54835  -0.54378
 Alpha  occ. eigenvalues --   -0.52692  -0.50770  -0.49202  -0.48207  -0.47766
 Alpha  occ. eigenvalues --   -0.47453  -0.46705  -0.45002  -0.44057  -0.43296
 Alpha  occ. eigenvalues --   -0.42872  -0.41762  -0.32826  -0.30451  -0.24435
 Alpha virt. eigenvalues --    0.08073   0.10326   0.12159   0.13990   0.15192
 Alpha virt. eigenvalues --    0.15604   0.16536   0.16797   0.17639   0.18508
 Alpha virt. eigenvalues --    0.19177   0.19442   0.19682   0.20278   0.21256

 Mulliken charges:
               1
     1  C   -0.230884
     2  C    0.322144
     3  O   -0.612291
     4  C   -0.220373
     5  C   -0.270810
     6  H    0.146437
     7  H    0.142724
     8  H    0.146808
     9  N   -0.296310
    10  H    0.269970
    11  H    0.271953
    12  H    0.155904
    13  H    0.141002
    14  C   -0.393330
    15  H    0.122733
    16  H    0.114720
    17  H    0.121113
    18  N   -0.139331
    19  C   -0.284749
    20  C   -0.291996
    21  H    0.143646
    22  H    0.129159
    23  H    0.129787
    24  H    0.131728
    25  H    0.131210
    26  H    0.119036
 Sum of Mulliken charges =  -0.00000

 Dipole moment (field-independent basis, Debye):
    X=              4.3397    Y=              2.1656    Z=              2.1119  Tot=              5.2898
 Quadrupole moment (field-independent basis, Debye-Ang):
   XX=            -39.6019   YY=            -68.7914   ZZ=            -62.6936
   XY=             -0.8578   XZ=              2.9409   YZ=             -1.4587

  Exact polarizability: 202.125  -2.376 144.106   0.389  -0.139 116.055
 Approx polarizability: 141.333  -3.082 117.913  -0.042  -0.430  99.946

 ******    1 imaginary frequencies (negative Signs) ******

                      1                      2                      3
                      A                      A                      A
 Frequencies --   -402.6011                61.2515                68.8119
 Red. masses --      6.5653                 2.7985                 3.2151
 Frc consts  --      0.6270                 0.0062                 0.0090
 IR Inten    --   1141.9239                 5.5722                11.9893

                      4                      5                      6
                      A                      A                      A
 Frequencies --     97.2037               110.8058               126.6571
 Red. masses --      1.5851                 1.8242                 1.8419
 Frc consts  --      0.0088                 0.0132                 0.0174
 IR Inten    --      1.7946                 3.3428                19.0213

                      7                      8                      9
                      A                      A                      A
 Frequencies --    150.1179               156.6474               183.4312
 Red. masses --      1.1819                 2.6977                 1.1250
 Frc consts  --      0.0157                 0.0390                 0.0223
 IR Inten    --      4.4316                 7.0986                 1.8441

                     10                     11                     12
                      A                      A                      A
 Frequencies --    193.2406               215.3028               242.8484
 Red. masses --      1.5672                 2.1759                 3.0176
 Frc consts  --      0.0345                 0.0594                 0.1049
 IR Inten    --     27.5868                15.0502                21.8347

                     13                     14                     15
                      A                      A                      A
 Frequencies --    282.9278               317.1267               373.9260
 Red. masses --      2.2144                 2.8317                 2.2077
 Frc consts  --      0.1044                 0.1678                 0.1819
 IR Inten    --      1.4023                42.7249                 1.7362

                     16                     17                     18
                      A                      A                      A
 Frequencies --    406.1179               467.5761               572.3443
 Red. masses --      3.0067                 3.4234                 4.2784
 Frc consts  --      0.2922                 0.4410                 0.8257
 IR Inten    --     12.1448               124.3407                32.6773

                     19                     20                     21
                      A                      A                      A
 Frequencies --    603.6652               668.8449               729.1095
 Red. masses --      3.7315                 1.1292                 4.8185
 Frc consts  --      0.8012                 0.2976                 1.5092
 IR Inten    --     20.8863                22.8109                 3.2414

                     22                     23                     24
                      A                      A                      A
 Frequencies --    791.7696               910.4616               979.7216
 Red. masses --      7.9088                 1.8852                 1.9231
 Frc consts  --      2.9212                 0.9207                 1.0876
 IR Inten    --     58.3352                 0.7436                41.2647

                     25                     26                     27
                      A                      A                      A
 Frequencies --   1008.6937              1023.3356              1041.3030
 Red. masses --      1.2476                 1.4103                 1.2138
 Frc consts  --      0.7479                 0.8702                 0.7755
 IR Inten    --     30.0716                21.8031               138.5669

                     28                     29                     30
                      A                      A                      A
 Frequencies --   1065.3766              1081.3021              1088.9072
 Red. masses --      1.3501                 3.0899                 1.4949
 Frc consts  --      0.9029                 2.1286                 1.0443
 IR Inten    --     32.5450               346.3535                38.7479

                     31                     32                     33
                      A                      A                      A
 Frequencies --   1126.5725              1134.1983              1159.7624
 Red. masses --      1.4028                 1.2326                 1.5617
 Frc consts  --      1.0490                 0.9342                 1.2376
 IR Inten    --     22.9577                 4.2063               209.0879

                     34                     35                     36
                      A                      A                      A
 Frequencies --   1168.0442              1202.5347              1235.2838
 Red. masses --      1.3975                 1.3330                 1.2287
 Frc consts  --      1.1233                 1.1358                 1.1046
 IR Inten    --     46.1330                63.2656                83.5727

                     37                     38                     39
                      A                      A                      A
 Frequencies --   1300.2595              1337.4568              1346.6775
 Red. masses --      4.7547                 2.8955                 1.3737
 Frc consts  --      4.7362                 3.0516                 1.4678
 IR Inten    --     18.9300                 5.2513                 9.2371

                     40                     41                     42
                      A                      A                      A
 Frequencies --   1369.2417              1409.7175              1426.4158
 Red. masses --      1.9199                 1.6962                 1.5981
 Frc consts  --      2.1208                 1.9861                 1.9157
 IR Inten    --    217.0122               195.1826               351.0828

                     43                     44                     45
                      A                      A                      A
 Frequencies --   1444.7652              1461.9525              1473.3829
 Red. masses --      1.1743                 1.1904                 1.1992
 Frc consts  --      1.4442                 1.4990                 1.5338
 IR Inten    --     29.8817                 8.2965               105.1305

                     46                     47                     48
                      A                      A                      A
 Frequencies --   1480.1643              1483.9342              1489.5081
 Red. masses --      1.0485                 1.0830                 1.2166
 Frc consts  --      1.3535                 1.4051                 1.5903
 IR Inten    --      3.6016                 4.9091                36.8675

                     49                     50                     51
                      A                      A                      A
 Frequencies --   1490.5371              1496.4604              1503.8468
 Red. masses --      1.1736                 1.1926                 1.0744
 Frc consts  --      1.5362                 1.5735                 1.4316
 IR Inten    --     13.2330               168.3709                33.1989

                     52                     53                     54
                      A                      A                      A
 Frequencies --   1506.8698              1515.8653              1533.5342
 Red. masses --      1.0348                 1.1219                 1.3724
 Frc consts  --      1.3844                 1.5189                 1.9016
 IR Inten    --      9.0250                87.5169               195.2139

                     55                     56                     57
                      A                      A                      A
 Frequencies --   1589.0782              1655.0233              3005.2836
 Red. masses --      5.2982                 1.0943                 1.0514
 Frc consts  --      7.8827                 1.7660                 5.5948
 IR Inten    --    528.5422                41.2508               159.0191

                     58                     59                     60
                      A                      A                      A
 Frequencies --   3007.6408              3021.1397              3058.8572
 Red. masses --      1.0443                 1.0418                 1.0926
 Frc consts  --      5.5660                 5.6022                 6.0232
 IR Inten    --    100.7279               162.7820                45.5435

                     61                     62                     63
                      A                      A                      A
 Frequencies --   3060.3886              3069.2696              3086.9821
 Red. masses --      1.0340                 1.1014                 1.0887
 Frc consts  --      5.7058                 6.1134                 6.1125
 IR Inten    --     70.9278                87.0204                46.1986

                     64                     65                     66
                      A                      A                      A
 Frequencies --   3095.9111              3125.4214              3135.6540
 Red. masses --      1.1001                 1.0601                 1.1033
 Frc consts  --      6.2124                 6.1013                 6.3912
 IR Inten    --     42.9012                67.4568                19.1005

                     67                     68                     69
                      A                      A                      A
 Frequencies --   3154.1728              3166.5075              3178.1681
 Red. masses --      1.1055                 1.0979                 1.0951
 Frc consts  --      6.4798                 6.4861                 6.5170
 IR Inten    --     24.3715                18.5714                14.9393

                     70                     71                     72
                      A                      A                      A
 Frequencies --   3206.1271              3493.8546              3605.6042
 Red. masses --      1.1158                 1.0559                 1.0922
 Frc consts  --      6.7575                 7.5939                 8.3659
 IR Inten    --     17.5849                47.3223                63.6570

 - Thermochemistry -
 -------------------
 Temperature   298.150 Kelvin.  Pressure   1.00000 Atm.
 Atom     1 has atomic number  6 and mass  12.00000

 Molecular mass:   144.12626 amu.
 Principal axes and moments of inertia in atomic units:
                           1         2         3
     Eigenvalues --   779.391872486.378633031.67308
           X            0.99998  -0.00543  -0.00126
           Y            0.00543   0.99999   0.00039
           Z            0.00126  -0.00040   1.00000
 This molecule is an asymmetric top.
 Rotational symmetry number  1.
 Warning -- assumption of classical behavior for rotation
           may cause significant error
 Rotational temperatures (Kelvin)      0.11113     0.03484     0.02857
 Rotational constants (GHZ):           2.31558     0.72585     0.59530
    1 imaginary frequencies ignored.
 Zero-point vibrational energy     609084.0 (Joules/Mol)
                                  145.57458 (Kcal/Mol)
 Warning -- explicit consideration of  18 degrees of freedom as
           vibrations may cause significant error
 Vibrational temperatures:     88.13    99.00   139.85   159.42   182.23
          (Kelvin)            215.99   225.38   263.92   278.03   309.77
                              349.40   407.07   456.27   538.00   584.31
                              672.74   823.48   868.54   962.32  1049.03
                             1139.18  1309.95  1409.60  1451.29  1472.35
                             1498.20  1532.84  1555.75  1566.69  1620.89
                             1631.86  1668.64  1680.56  1730.18  1777.30
                             1870.78  1924.30  1937.57  1970.03  2028.27
                             2052.29  2078.69  2103.42  2119.87  2129.63
                             2135.05  2143.07  2144.55  2153.07  2163.70
                             2168.05  2180.99  2206.41  2286.33  2381.21
                             4323.93  4327.32  4346.75  4401.01  4403.22
                             4415.99  4441.48  4454.33  4496.78  4511.51
                             4538.15  4555.90  4572.67  4612.90  5026.88
                             5187.66

 Zero-point correction=                           0.231988 (Hartree/Particle)
 Thermal correction to Energy=                    0.244914
 Thermal correction to Enthalpy=                  0.245858
 Thermal correction to Gibbs Free Energy=         0.192887
 Sum of electronic and zero-point Energies=           -460.861494
 Sum of electronic and thermal Energies=              -460.848569
 Sum of electronic and thermal Enthalpies=            -460.847624
 Sum of electronic and thermal Free Energies=         -460.900595

                     E (Thermal)             CV                S
                      KCal/Mol        Cal/Mol-Kelvin    Cal/Mol-Kelvin
 Total                  153.686             44.866            111.486
 Electronic               0.000              0.000              0.000
 Translational            0.889              2.981             40.808
 Rotational               0.889              2.981             30.153
 Vibrational            151.908             38.904             40.526
 Vibration     1          0.597              1.973              4.416
 Vibration     2          0.598              1.969              4.187
 Vibration     3          0.603              1.951              3.510
 Vibration     4          0.607              1.941              3.255
 Vibration     5          0.611              1.926              2.996
 Vibration     6          0.618              1.903              2.671
 Vibration     7          0.620              1.895              2.590
 Vibration     8          0.631              1.862              2.293
 Vibration     9          0.635              1.849              2.197
 Vibration    10          0.645              1.818              1.998
 Vibration    11          0.659              1.775              1.782
 Vibration    12          0.682              1.705              1.516
 Vibration    13          0.704              1.641              1.325
 Vibration    14          0.745              1.526              1.064
 Vibration    15          0.771              1.457              0.940
 Vibration    16          0.825              1.322              0.744
 Vibration    17          0.929              1.091              0.500
 Vibration    18          0.962              1.024              0.443

 Optimization completed.
    -- Stationary point found.
 Normal termination of Gaussian 16 at Wed Feb 10 09:07:51 2021.
