 Gaussian 16, Revision A.03,
 Gaussian 16:  ES64L-G16RevA.03 25-Dec-2016

 ----------------------------------------------------------------------
 # wB97XD def2tzvp, opt=(ts, noeigen, calcfc, maxcycles=70, maxstep=3),
  freq=noraman, scrf=(iefpcm, solvent=water)
 ----------------------------------------------------------------------

 ------------------------
 0_iteration/TS-282-0.out
 ------------------------
 Symbolic Z-matrix:
 Charge =  0 Multiplicity = 1

 SCF Done:  E(RwB97XD) =  -597.479207908     A.U. after   14 cycles
 SCF Done:  E(RwB97XD) =  -597.478726756     A.U. after   12 cycles
 SCF Done:  E(RwB97XD) =  -597.478381742     A.U. after   12 cycles
 SCF Done:  E(RwB97XD) =  -597.478087046     A.U. after   12 cycles
 SCF Done:  E(RwB97XD) =  -597.477803740     A.U. after   12 cycles
 SCF Done:  E(RwB97XD) =  -597.477574551     A.U. after   12 cycles
 SCF Done:  E(RwB97XD) =  -597.477400986     A.U. after   12 cycles
 SCF Done:  E(RwB97XD) =  -597.477361768     A.U. after   12 cycles
 SCF Done:  E(RwB97XD) =  -597.477424784     A.U. after   12 cycles
 SCF Done:  E(RwB97XD) =  -597.477588246     A.U. after   12 cycles
 SCF Done:  E(RwB97XD) =  -597.479059854     A.U. after   12 cycles
 SCF Done:  E(RwB97XD) =  -597.479090834     A.U. after   11 cycles
 SCF Done:  E(RwB97XD) =  -597.479075028     A.U. after   11 cycles
 SCF Done:  E(RwB97XD) =  -597.479099684     A.U. after   11 cycles
 SCF Done:  E(RwB97XD) =  -597.479103297     A.U. after   10 cycles
 SCF Done:  E(RwB97XD) =  -597.479104147     A.U. after    8 cycles
 SCF Done:  E(RwB97XD) =  -597.479104609     A.U. after    8 cycles
 SCF Done:  E(RwB97XD) =  -597.479104599     A.U. after    7 cycles
 SCF Done:  E(RwB97XD) =  -597.479104546     A.U. after    8 cycles
 Optimization completed.
    -- Stationary point found.
 Normal termination of Gaussian 16 at Sat Mar 27 22:47:00 2021.

 ---------------------------------------------------------------------
 #N Geom=AllCheck Guess=TCheck SCRF=Check GenChk RwB97XD/def2TZVP Freq
 ---------------------------------------------------------------------

 Structure from the checkpoint file:  "/beegfs/scratch/user/q/tla25/Gau-12679.chk"
 ------------------------
 0_iteration/TS-282-0.out
 ------------------------
 Charge =  0 Multiplicity = 1

                         Standard orientation:
 ---------------------------------------------------------------------
 Center     Atomic      Atomic             Coordinates (Angstroms)
 Number     Number       Type             X           Y           Z
 ---------------------------------------------------------------------
      1          6           0        0.404515    0.522582    0.332396
      2          6           0        0.775131    1.849622   -0.056811
      3          8           0        1.948564    2.217262   -0.231245
      4          6           0        1.363742   -0.425548    0.719700
      5          6           0        2.854766   -2.482835   -0.863901
      6          1           0        3.006023   -2.954832   -1.836571
      7          1           0        3.820783   -2.169973   -0.472746
      8          1           0        2.421686   -3.213194   -0.180839
      9          7           0        1.970284   -1.324307   -0.943919
     10          1           0        2.384244   -0.560164   -1.463995
     11          1           0        1.087903   -1.554603   -1.383561
     12          1           0        0.939066   -1.347135    1.106478
     13          6           0        2.703687   -0.112665    1.322671
     14          1           0        2.541919    0.424183    2.260360
     15          1           0        3.245738   -1.029150    1.553370
     16          1           0        3.302971    0.524046    0.679946
     17          6           0       -0.993821    0.038695    0.192580
     18          6           0       -1.706646    0.193135   -1.000219
     19          6           0       -3.002770   -0.281263   -1.137455
     20          6           0       -3.620123   -0.943563   -0.085909
     21          6           0       -2.925987   -1.120623    1.103194
     22          6           0       -1.635808   -0.631205    1.238984
     23          1           0       -1.231244    0.687569   -1.839138
     24          1           0       -3.527792   -0.143568   -2.075018
     25          1           0       -4.630066   -1.319157   -0.191990
     26          1           0       -3.395979   -1.632265    1.934448
     27          1           0       -1.115301   -0.758204    2.181493
     28          6           0       -0.307880    2.900678   -0.246301
     29          1           0       -1.249758    2.649587    0.237924
     30          1           0        0.067410    3.845922    0.146154
     31          1           0       -0.500927    3.040917   -1.312483
 ---------------------------------------------------------------------

 SCF Done:  E(RwB97XD) =  -597.479104546     A.U. after    1 cycles

 The electronic state is 1-A.
 Alpha  occ. eigenvalues --  -19.19567 -14.46890 -10.34462 -10.33313 -10.31380
 Alpha  occ. eigenvalues --  -10.29352 -10.28534 -10.28525 -10.28293 -10.28141
 Alpha  occ. eigenvalues --  -10.28110 -10.27178 -10.26540 -10.25246  -1.10164
 Alpha  occ. eigenvalues --   -1.02479  -0.96223  -0.90297  -0.85381  -0.84425
 Alpha  occ. eigenvalues --   -0.82179  -0.78764  -0.77568  -0.70591  -0.69000
 Alpha  occ. eigenvalues --   -0.68178  -0.62068  -0.61450  -0.58813  -0.55869
 Alpha  occ. eigenvalues --   -0.55441  -0.54664  -0.53110  -0.52496  -0.52246
 Alpha  occ. eigenvalues --   -0.50895  -0.49984  -0.49264  -0.48643  -0.47500
 Alpha  occ. eigenvalues --   -0.46580  -0.46412  -0.45700  -0.43997  -0.42800
 Alpha  occ. eigenvalues --   -0.41632  -0.41520  -0.39830  -0.34046  -0.33256
 Alpha  occ. eigenvalues --   -0.30893  -0.26200
 Alpha virt. eigenvalues --    0.04691   0.05401   0.05796   0.10172   0.12482
 Alpha virt. eigenvalues --    0.13748   0.14266   0.14783   0.15276   0.15790
 Alpha virt. eigenvalues --    0.16940   0.17619   0.18290   0.18706   0.19074

 Mulliken charges:
               1
     1  C   -0.133168
     2  C    0.255093
     3  O   -0.536541
     4  C   -0.071471
     5  C   -0.282982
     6  H    0.147185
     7  H    0.154342
     8  H    0.147897
     9  N   -0.363595
    10  H    0.276748
    11  H    0.275806
    12  H    0.154398
    13  C   -0.344867
    14  H    0.137068
    15  H    0.137850
    16  H    0.142587
    17  C    0.160225
    18  C   -0.264514
    19  C   -0.134092
    20  C   -0.162201
    21  C   -0.146628
    22  C   -0.256318
    23  H    0.146428
    24  H    0.137724
    25  H    0.139990
    26  H    0.137140
    27  H    0.147253
    28  C   -0.403507
    29  H    0.134636
    30  H    0.130054
    31  H    0.137459
 Sum of Mulliken charges =  -0.00000

 Dipole moment (field-independent basis, Debye):
    X=              0.7543    Y=             -7.1840    Z=             -1.7469  Tot=              7.4318
 Quadrupole moment (field-independent basis, Debye-Ang):
   XX=            -81.8113   YY=            -89.1564   ZZ=            -77.8330
   XY=            -15.6181   XZ=             -1.3521   YZ=              1.3557

  Exact polarizability: 251.030   6.800 220.015   3.585 -11.566 194.216
 Approx polarizability: 190.780  10.536 169.471   2.080 -11.457 166.922

 ******    1 imaginary frequencies (negative Signs) ******

                      1                      2                      3
                      A                      A                      A
 Frequencies --   -334.4226                31.3107                42.8521
 Red. masses --      5.9151                 4.0160                 3.6245
 Frc consts  --      0.3898                 0.0023                 0.0039
 IR Inten    --    830.3637                10.9186                 4.2526

                      4                      5                      6
                      A                      A                      A
 Frequencies --     69.5676                82.5265                85.2139
 Red. masses --      3.5946                 3.1248                 2.2244
 Frc consts  --      0.0102                 0.0125                 0.0095
 IR Inten    --      7.2059                 5.6408                 2.6935

                      7                      8                      9
                      A                      A                      A
 Frequencies --    122.5709               148.5739               156.5067
 Red. masses --      3.5352                 1.1758                 1.0810
 Frc consts  --      0.0313                 0.0153                 0.0156
 IR Inten    --      0.5049                 2.0341                 0.7680

                     10                     11                     12
                      A                      A                      A
 Frequencies --    176.0831               222.4885               249.6233
 Red. masses --      2.2526                 2.2904                 2.6835
 Frc consts  --      0.0412                 0.0668                 0.0985
 IR Inten    --     11.1603                22.7693                20.6322

                     13                     14                     15
                      A                      A                      A
 Frequencies --    267.6784               312.5793               341.0367
 Red. masses --      1.7027                 3.0211                 3.0833
 Frc consts  --      0.0719                 0.1739                 0.2113
 IR Inten    --      9.5278                 2.2760                48.3816

                     16                     17                     18
                      A                      A                      A
 Frequencies --    378.5434               416.9625               427.5562
 Red. masses --      4.0231                 3.5879                 2.9120
 Frc consts  --      0.3397                 0.3675                 0.3136
 IR Inten    --     12.8178                 2.6003                 0.2982

                     19                     20                     21
                      A                      A                      A
 Frequencies --    481.0336               494.0703               572.5389
 Red. masses --      3.9598                 3.4304                 3.0755
 Frc consts  --      0.5399                 0.4934                 0.5940
 IR Inten    --     46.8159                25.7836                35.5562

                     22                     23                     24
                      A                      A                      A
 Frequencies --    615.1968               635.0297               657.6176
 Red. masses --      1.4166                 5.3759                 2.9651
 Frc consts  --      0.3159                 1.2773                 0.7555
 IR Inten    --     34.9042                 7.5375                14.6168

                     25                     26                     27
                      A                      A                      A
 Frequencies --    683.4245               713.8864               729.7840
 Red. masses --      3.6284                 3.9005                 1.5766
 Frc consts  --      0.9985                 1.1712                 0.4947
 IR Inten    --     33.7087                 1.1470               101.2916

                     28                     29                     30
                      A                      A                      A
 Frequencies --    798.0576               876.9630               941.9172
 Red. masses --      2.2251                 1.2458                 1.5880
 Frc consts  --      0.8350                 0.5645                 0.8301
 IR Inten    --     31.7349                 1.8421                15.9168

                     31                     32                     33
                      A                      A                      A
 Frequencies --    953.7351               966.5983               988.1216
 Red. masses --      1.4974                 3.7918                 1.3315
 Frc consts  --      0.8025                 2.0873                 0.7660
 IR Inten    --     33.3150                26.0316                22.4304

                     34                     35                     36
                      A                      A                      A
 Frequencies --   1005.4221              1010.4889              1021.6760
 Red. masses --      1.2050                 1.3781                 1.2164
 Frc consts  --      0.7177                 0.8291                 0.7481
 IR Inten    --    156.6374                 1.2787                39.9677

                     37                     38                     39
                      A                      A                      A
 Frequencies --   1022.8953              1023.9775              1040.3228
 Red. masses --      1.2782                 5.5433                 1.6571
 Frc consts  --      0.7880                 3.4245                 1.0567
 IR Inten    --      3.8039                 1.6039                 8.1823

                     40                     41                     42
                      A                      A                      A
 Frequencies --   1053.4897              1066.8471              1073.3374
 Red. masses --      1.8369                 2.0071                 3.1360
 Frc consts  --      1.2012                 1.3459                 2.1286
 IR Inten    --     35.1861                22.8430               154.1304

                     43                     44                     45
                      A                      A                      A
 Frequencies --   1109.7499              1134.9567              1162.2696
 Red. masses --      1.5632                 2.1730                 1.3558
 Frc consts  --      1.1343                 1.6492                 1.0791
 IR Inten    --     15.5136                14.3881               134.2485

                     46                     47                     48
                      A                      A                      A
 Frequencies --   1180.7294              1203.9531              1209.6508
 Red. masses --      1.1276                 1.4855                 1.1258
 Frc consts  --      0.9262                 1.2687                 0.9706
 IR Inten    --      0.8640                13.8432                 1.4500

                     49                     50                     51
                      A                      A                      A
 Frequencies --   1217.3809              1302.3226              1309.8958
 Red. masses --      2.3128                 2.5799                 3.3390
 Frc consts  --      2.0195                 2.5781                 3.3756
 IR Inten    --     16.7455                59.1515                 9.1670

                     52                     53                     54
                      A                      A                      A
 Frequencies --   1344.4883              1356.5827              1380.5914
 Red. masses --      1.3211                 1.5859                 1.3358
 Frc consts  --      1.4070                 1.7195                 1.5001
 IR Inten    --      2.2272                40.1669                31.0179

                     55                     56                     57
                      A                      A                      A
 Frequencies --   1402.1379              1408.8256              1453.3923
 Red. masses --      1.3578                 2.1972                 1.4226
 Frc consts  --      1.5728                 2.5694                 1.7705
 IR Inten    --    216.8688               430.3181                86.2185

                     58                     59                     60
                      A                      A                      A
 Frequencies --   1466.5334              1471.6677              1477.2122
 Red. masses --      1.1453                 1.2373                 1.0964
 Frc consts  --      1.4512                 1.5789                 1.4096
 IR Inten    --     46.0099                59.6719                24.2174

                     61                     62                     63
                      A                      A                      A
 Frequencies --   1483.4758              1488.8241              1494.3690
 Red. masses --      1.2036                 1.4630                 1.2416
 Frc consts  --      1.5606                 1.9107                 1.6335
 IR Inten    --     50.1707                 1.1000                73.4768

                     64                     65                     66
                      A                      A                      A
 Frequencies --   1500.5290              1511.8934              1541.3187
 Red. masses --      1.3210                 1.0701                 2.3799
 Frc consts  --      1.7524                 1.4411                 3.3312
 IR Inten    --    125.8377                46.6656                55.9896

                     67                     68                     69
                      A                      A                      A
 Frequencies --   1633.0453              1643.2402              1648.0531
 Red. masses --      5.9503                 4.2627                 1.2188
 Frc consts  --      9.3494                 6.7817                 1.9504
 IR Inten    --    529.0008               147.1552               115.7521

                     70                     71                     72
                      A                      A                      A
 Frequencies --   1670.7233              3057.9479              3058.4165
 Red. masses --      5.9215                 1.0373                 1.0362
 Frc consts  --      9.7385                 5.7151                 5.7109
 IR Inten    --      3.0614                46.6509                42.1767

                     73                     74                     75
                      A                      A                      A
 Frequencies --   3066.6427              3128.7220              3130.9450
 Red. masses --      1.0413                 1.0990                 1.1008
 Frc consts  --      5.7698                 6.3383                 6.3580
 IR Inten    --     25.1782                23.5329                30.4208

                     76                     77                     78
                      A                      A                      A
 Frequencies --   3132.6110              3155.7442              3158.6923
 Red. masses --      1.1003                 1.0895                 1.1034
 Frc consts  --      6.3619                 6.3929                 6.4862
 IR Inten    --     28.3736                23.0459                33.6029

                     79                     80                     81
                      A                      A                      A
 Frequencies --   3162.4711              3183.0266              3186.8969
 Red. masses --      1.1041                 1.0864                 1.0872
 Frc consts  --      6.5058                 6.4852                 6.5058
 IR Inten    --     18.4457                12.5013                 3.4049

                     82                     83                     84
                      A                      A                      A
 Frequencies --   3189.9864              3197.6495              3203.9593
 Red. masses --      1.0995                 1.0909                 1.0948
 Frc consts  --      6.5921                 6.5720                 6.6213
 IR Inten    --      8.1878                10.9203                53.9709

                     85                     86                     87
                      A                      A                      A
 Frequencies --   3216.9874              3533.3272              3615.6828
 Red. masses --      1.0986                 1.0506                 1.0964
 Frc consts  --      6.6986                 7.7278                 8.4453
 IR Inten    --     22.3299                13.3384                41.9292

 - Thermochemistry -
 -------------------
 Temperature   298.150 Kelvin.  Pressure   1.00000 Atm.
 Atom     1 has atomic number  6 and mass  12.00000

 Molecular mass:   191.13101 amu.
 Principal axes and moments of inertia in atomic units:
                           1         2         3
     Eigenvalues --  2036.497503731.925064712.39111
           X            0.99890  -0.04680   0.00417
           Y            0.04680   0.99890  -0.00063
           Z           -0.00414   0.00082   0.99999
 This molecule is an asymmetric top.
 Rotational symmetry number  1.
 Warning -- assumption of classical behavior for rotation
           may cause significant error
 Rotational temperatures (Kelvin)      0.04253     0.02321     0.01838
 Rotational constants (GHZ):           0.88620     0.48360     0.38298
    1 imaginary frequencies ignored.
 Zero-point vibrational energy     703079.0 (Joules/Mol)
                                  168.03991 (Kcal/Mol)
 Warning -- explicit consideration of  21 degrees of freedom as
           vibrations may cause significant error
 Vibrational temperatures:     45.05    61.65   100.09   118.74   122.60
          (Kelvin)            176.35   213.76   225.18   253.34   320.11
                              359.15   385.13   449.73   490.68   544.64
                              599.92   615.16   692.10   710.86   823.76
                              885.13   913.67   946.16   983.30  1027.12
                             1050.00  1148.23  1261.75  1355.21  1372.21
                             1390.72  1421.69  1446.58  1453.87  1469.96
                             1471.72  1473.28  1496.79  1515.74  1534.95
                             1544.29  1596.68  1632.95  1672.25  1698.81
                             1732.22  1740.42  1751.54  1873.75  1884.65
                             1934.42  1951.82  1986.36  2017.36  2026.99
                             2091.11  2110.01  2117.40  2125.38  2134.39
                             2142.09  2150.06  2158.93  2175.28  2217.61
                             2349.59  2364.26  2371.18  2403.80  4399.70
                             4400.38  4412.21  4501.53  4504.73  4507.13
                             4540.41  4544.65  4550.09  4579.67  4585.23
                             4589.68  4600.70  4609.78  4628.53  5083.67
                             5202.16

 Zero-point correction=                           0.267789 (Hartree/Particle)
 Thermal correction to Energy=                    0.282651
 Thermal correction to Enthalpy=                  0.283595
 Thermal correction to Gibbs Free Energy=         0.224823
 Sum of electronic and zero-point Energies=           -597.211316
 Sum of electronic and thermal Energies=              -597.196454
 Sum of electronic and thermal Enthalpies=            -597.195510
 Sum of electronic and thermal Free Energies=         -597.254282

                     E (Thermal)             CV                S
                      KCal/Mol        Cal/Mol-Kelvin    Cal/Mol-Kelvin
 Total                  177.366             54.597            123.696
 Electronic               0.000              0.000              0.000
 Translational            0.889              2.981             41.649
 Rotational               0.889              2.981             31.949
 Vibrational            175.589             48.635             50.098
 Vibration     1          0.594              1.983              5.745
 Vibration     2          0.595              1.980              5.123
 Vibration     3          0.598              1.969              4.166
 Vibration     4          0.600              1.961              3.830
 Vibration     5          0.601              1.959              3.767
 Vibration     6          0.610              1.930              3.059
 Vibration     7          0.618              1.904              2.690
 Vibration     8          0.620              1.895              2.592
 Vibration     9          0.628              1.872              2.370
 Vibration    10          0.648              1.807              1.939
 Vibration    11          0.662              1.763              1.733
 Vibration    12          0.673              1.732              1.611
 Vibration    13          0.701              1.650              1.349
 Vibration    14          0.721              1.593              1.207
 Vibration    15          0.749              1.516              1.045
 Vibration    16          0.780              1.433              0.902
 Vibration    17          0.789              1.410              0.867
 Vibration    18          0.837              1.292              0.707
 Vibration    19          0.850              1.263              0.673
 Vibration    20          0.929              1.091              0.499
 Vibration    21          0.975              1.000              0.424

 Optimization completed.
    -- Stationary point found.
 Normal termination of Gaussian 16 at Sat Mar 27 23:43:04 2021.
