 Gaussian 16, Revision A.03,
 Gaussian 16:  ES64L-G16RevA.03 25-Dec-2016

 ----------------------------------------------------------------------
 # wB97XD def2tzvp, opt=(ts, noeigen, calcfc, maxcycles=70, maxstep=1),
  freq=noraman, scrf=(iefpcm, solvent=water)
 ----------------------------------------------------------------------

 ------------------------
 0_iteration/TS-344-0.out
 ------------------------
 Symbolic Z-matrix:
 Charge =  0 Multiplicity = 1

 SCF Done:  E(RwB97XD) =  -3131.76746966     A.U. after   15 cycles
 Optimization completed.
    -- Stationary point found.
 Normal termination of Gaussian 16 at Tue Mar  2 03:11:54 2021.

 ---------------------------------------------------------------------
 #N Geom=AllCheck Guess=TCheck SCRF=Check GenChk RwB97XD/def2TZVP Freq
 ---------------------------------------------------------------------

 Structure from the checkpoint file:  "/beegfs/scratch/user/q/tla25/Gau-60534.chk"
 ------------------------
 0_iteration/TS-344-0.out
 ------------------------
 Charge =  0 Multiplicity = 1

                         Standard orientation:
 ---------------------------------------------------------------------
 Center     Atomic      Atomic             Coordinates (Angstroms)
 Number     Number       Type             X           Y           Z
 ---------------------------------------------------------------------
      1          6           0        1.355808    1.013403   -0.531988
      2          6           0        0.076508    1.648302   -0.554288
      3          8           0       -0.065293    2.814802   -0.946488
      4          6           0        1.625309   -0.327497   -0.298288
      5          6           0        2.387909    0.297204    2.318512
      6          1           0        2.304309    0.161804    3.396412
      7          1           0        3.438409    0.357104    2.041012
      8          1           0        1.899408    1.230003    2.032912
      9          7           0        1.760210   -0.793897    1.586212
     10          1           0        2.278300   -1.661496    1.665912
     11          1           0        0.811900   -0.966297    1.900812
     12          1           0        2.637009   -0.648096   -0.500988
     13         35           0        0.460000   -1.779698   -0.833188
     14          6           0        2.542108    1.909904   -0.815588
     15          1           0        3.480708    1.358104   -0.750288
     16          1           0        2.477808    2.345804   -1.815888
     17          1           0        2.595708    2.742704   -0.109588
     18          6           0       -1.159091    0.945012   -0.063088
     19          6           0       -1.305791    0.622511    1.280612
     20          6           0       -2.469291    0.019811    1.738412
     21          6           0       -3.494791   -0.269290    0.850912
     22          6           0       -3.362691    0.071110   -0.489788
     23          6           0       -2.206491    0.686411   -0.940988
     24          1           0       -0.517491    0.869412    1.981912
     25          1           0       -2.573791   -0.221589    2.788712
     26          1           0       -4.399400   -0.748690    1.203012
     27          1           0       -4.164991   -0.144090   -1.184488
     28          1           0       -2.103991    0.952311   -1.985988
 ---------------------------------------------------------------------

 SCF Done:  E(RwB97XD) =  -3131.76746966     A.U. after    1 cycles

 The electronic state is 1-A.
 Alpha  occ. eigenvalues -- -483.13116 -62.67963 -56.47077 -56.46729 -56.46713
 Alpha  occ. eigenvalues --  -19.21004 -14.48759 -10.38447 -10.35504 -10.31883
 Alpha  occ. eigenvalues --  -10.29745 -10.29403 -10.29272 -10.29198 -10.29123
 Alpha  occ. eigenvalues --  -10.29097 -10.27100 -10.26878  -8.82073  -6.64216
 Alpha  occ. eigenvalues --   -6.63111  -6.63055  -2.74605  -2.74296  -2.74251
 Alpha  occ. eigenvalues --   -2.73357  -2.73357  -1.11608  -1.04178  -0.96814
 Alpha  occ. eigenvalues --   -0.93097  -0.87090  -0.85943  -0.85352  -0.79116
 Alpha  occ. eigenvalues --   -0.76817  -0.74370  -0.70771  -0.69343  -0.63794
 Alpha  occ. eigenvalues --   -0.63180  -0.58425  -0.57398  -0.56667  -0.55239
 Alpha  occ. eigenvalues --   -0.54200  -0.53476  -0.52973  -0.51204  -0.49680
 Alpha  occ. eigenvalues --   -0.49335  -0.48106  -0.47576  -0.45859  -0.45307
 Alpha  occ. eigenvalues --   -0.44445  -0.44269  -0.43320  -0.42458  -0.37937
 Alpha  occ. eigenvalues --   -0.37008  -0.34021  -0.33681  -0.31870  -0.27813
 Alpha virt. eigenvalues --    0.02764   0.04928   0.05037   0.06467   0.10233
 Alpha virt. eigenvalues --    0.12631   0.12935   0.14589   0.15276   0.15873
 Alpha virt. eigenvalues --    0.16605   0.17272   0.17639   0.18225   0.19543

 Mulliken charges:
               1
     1  C   -0.254614
     2  C    0.231296
     3  O   -0.497584
     4  C    0.009726
     5  C   -0.293906
     6  H    0.165515
     7  H    0.160890
     8  H    0.154261
     9  N   -0.338048
    10  H    0.291076
    11  H    0.278610
    12  H    0.196421
    13  Br  -0.105721
    14  C   -0.352897
    15  H    0.122345
    16  H    0.122166
    17  H    0.118869
    18  C    0.194266
    19  C   -0.302860
    20  C   -0.138661
    21  C   -0.150548
    22  C   -0.136540
    23  C   -0.232710
    24  H    0.188701
    25  H    0.142230
    26  H    0.144953
    27  H    0.143569
    28  H    0.139196
 Sum of Mulliken charges =  -0.00000

 Dipole moment (field-independent basis, Debye):
    X=              4.3206    Y=             -6.9753    Z=              6.9710  Tot=             10.7665
 Quadrupole moment (field-independent basis, Debye-Ang):
   XX=            -78.5048   YY=           -116.3349   ZZ=            -85.6004
   XY=              0.4625   XZ=              8.8000   YZ=              1.5580

  Exact polarizability: 241.403  11.441 227.972  15.044 -24.854 222.155
 Approx polarizability: 189.585   9.515 187.895  11.383 -19.176 187.405

 ******    1 imaginary frequencies (negative Signs) ******

                      1                      2                      3
                      A                      A                      A
 Frequencies --   -374.8754                41.3737                56.9381
 Red. masses --      5.9881                 5.0205                 5.2132
 Frc consts  --      0.4958                 0.0051                 0.0100
 IR Inten    --    925.8099                 4.8301                 3.1843

                      4                      5                      6
                      A                      A                      A
 Frequencies --     71.7630                76.0689               131.0244
 Red. masses --      6.1234                 3.0683                 3.1117
 Frc consts  --      0.0186                 0.0105                 0.0315
 IR Inten    --      8.1522                 0.5715                 9.4265

                      7                      8                      9
                      A                      A                      A
 Frequencies --    141.0379               144.9631               165.3730
 Red. masses --      1.8441                 1.5768                 3.2644
 Frc consts  --      0.0216                 0.0195                 0.0526
 IR Inten    --      2.5716                 1.6473                 9.2436

                     10                     11                     12
                      A                      A                      A
 Frequencies --    189.7892               208.7746               233.7449
 Red. masses --      2.5930                 1.3677                 4.1387
 Frc consts  --      0.0550                 0.0351                 0.1332
 IR Inten    --      2.8197                 0.1682                21.7238

                     13                     14                     15
                      A                      A                      A
 Frequencies --    263.8003               293.3027               312.1304
 Red. masses --      5.9212                 3.1465                 3.1974
 Frc consts  --      0.2428                 0.1595                 0.1835
 IR Inten    --     22.7500                 5.1730                 4.1540

                     16                     17                     18
                      A                      A                      A
 Frequencies --    364.8602               400.2385               420.3498
 Red. masses --      6.3792                 5.1363                 2.9597
 Frc consts  --      0.5003                 0.4848                 0.3081
 IR Inten    --     16.2205                29.3887                 1.5119

                     19                     20                     21
                      A                      A                      A
 Frequencies --    473.7305               555.7918               613.0157
 Red. masses --      3.2346                 3.4767                 2.3714
 Frc consts  --      0.4277                 0.6328                 0.5251
 IR Inten    --    102.2638                 9.8415                 5.0345

                     22                     23                     24
                      A                      A                      A
 Frequencies --    636.1835               677.7381               728.2483
 Red. masses --      6.4028                 3.9819                 2.0093
 Frc consts  --      1.5268                 1.0776                 0.6279
 IR Inten    --      0.3812                95.6108                38.6677

                     25                     26                     27
                      A                      A                      A
 Frequencies --    740.9932               762.1170               779.7732
 Red. masses --      1.8226                 3.7892                 4.5909
 Frc consts  --      0.5896                 1.2967                 1.6447
 IR Inten    --     87.2462                21.5887               104.7331

                     28                     29                     30
                      A                      A                      A
 Frequencies --    817.2448               883.6401               948.7510
 Red. masses --      3.0063                 1.2529                 1.9600
 Frc consts  --      1.1830                 0.5764                 1.0395
 IR Inten    --     29.2185                 0.2922                30.1792

                     31                     32                     33
                      A                      A                      A
 Frequencies --    973.0991              1005.4435              1014.7958
 Red. masses --      1.8811                 1.2416                 1.4228
 Frc consts  --      1.0495                 0.7395                 0.8633
 IR Inten    --     95.1429                23.2344                 6.7062

                     34                     35                     36
                      A                      A                      A
 Frequencies --   1019.2786              1026.7592              1031.1209
 Red. masses --      1.1426                 2.8239                 1.5979
 Frc consts  --      0.6994                 1.7541                 1.0010
 IR Inten    --     81.4090                11.3964                39.9450

                     37                     38                     39
                      A                      A                      A
 Frequencies --   1031.9227              1056.6506              1062.4407
 Red. masses --      1.5888                 1.3784                 2.0073
 Frc consts  --      0.9968                 0.9068                 1.3350
 IR Inten    --    100.9628                 9.0389                 9.9012

                     40                     41                     42
                      A                      A                      A
 Frequencies --   1083.0954              1111.4163              1144.0724
 Red. masses --      4.5852                 1.5433                 1.1259
 Frc consts  --      3.1692                 1.1232                 0.8683
 IR Inten    --     49.5106                11.7683                72.8677

                     43                     44                     45
                      A                      A                      A
 Frequencies --   1182.3923              1184.0464              1205.8106
 Red. masses --      2.0849                 1.2665                 1.1228
 Frc consts  --      1.7174                 1.0461                 0.9618
 IR Inten    --      9.5391                 0.9198                 1.4018

                     46                     47                     48
                      A                      A                      A
 Frequencies --   1212.4326              1277.6017              1321.2680
 Red. masses --      1.4044                 1.5813                 4.1050
 Frc consts  --      1.2163                 1.5208                 4.2223
 IR Inten    --     25.8436                58.0098                 5.3574

                     49                     50                     51
                      A                      A                      A
 Frequencies --   1342.0181              1357.4334              1409.6829
 Red. masses --      1.3269                 1.4945                 1.7331
 Frc consts  --      1.4080                 1.6225                 2.0291
 IR Inten    --      3.7508                 1.7070                72.6382

                     52                     53                     54
                      A                      A                      A
 Frequencies --   1426.5450              1429.4621              1463.2587
 Red. masses --      2.5021                 2.1440                 1.2555
 Frc consts  --      3.0001                 2.5812                 1.5838
 IR Inten    --    443.6240               601.4125                46.8155

                     55                     56                     57
                      A                      A                      A
 Frequencies --   1468.3889              1488.5976              1497.6475
 Red. masses --      1.0458                 2.1687                 1.0528
 Frc consts  --      1.3285                 2.8314                 1.3913
 IR Inten    --     11.4639                 9.9216                87.3772

                     58                     59                     60
                      A                      A                      A
 Frequencies --   1501.7433              1505.7392              1542.3435
 Red. masses --      1.0862                 1.1720                 2.3791
 Frc consts  --      1.4432                 1.5656                 3.3345
 IR Inten    --     66.5929               189.5267                10.1253

                     61                     62                     63
                      A                      A                      A
 Frequencies --   1621.0193              1649.1553              1650.7121
 Red. masses --     11.2357                 1.3001                 3.1454
 Frc consts  --     17.3951                 2.0832                 5.0497
 IR Inten    --    765.0544                62.1992                 5.9216

                     64                     65                     66
                      A                      A                      A
 Frequencies --   1675.4962              3035.8550              3064.8865
 Red. masses --      5.9148                 1.0364                 1.0333
 Frc consts  --      9.7830                 5.6276                 5.7186
 IR Inten    --      1.1446                85.8367                33.1570

                     67                     68                     69
                      A                      A                      A
 Frequencies --   3090.1400              3123.3031              3142.0180
 Red. masses --      1.1017                 1.1010                 1.1041
 Frc consts  --      6.1984                 6.3280                 6.4223
 IR Inten    --     47.6271                33.8141                11.4302

                     70                     71                     72
                      A                      A                      A
 Frequencies --   3163.4786              3191.2780              3195.4610
 Red. masses --      1.1057                 1.0860                 1.0875
 Frc consts  --      6.5197                 6.5167                 6.5428
 IR Inten    --     15.6115                 6.4749                 1.0696

                     73                     74                     75
                      A                      A                      A
 Frequencies --   3204.4046              3211.6802              3216.4507
 Red. masses --      1.0912                 1.0952                 1.0913
 Frc consts  --      6.6013                 6.6558                 6.6518
 IR Inten    --     10.0223                42.2704                 7.1217

                     76                     77                     78
                      A                      A                      A
 Frequencies --   3222.0814              3521.1055              3606.0193
 Red. masses --      1.0988                 1.0507                 1.0965
 Frc consts  --      6.7212                 7.6755                 8.4008
 IR Inten    --     16.5944                45.1889                67.0183

 - Thermochemistry -
 -------------------
 Temperature   298.150 Kelvin.  Pressure   1.00000 Atm.
 Atom     1 has atomic number  6 and mass  12.00000

 Molecular mass:   255.02588 amu.
 Principal axes and moments of inertia in atomic units:
                           1         2         3
     Eigenvalues --  2958.255094032.973564783.81957
           X            0.99593   0.08678   0.02417
           Y           -0.08435   0.99253  -0.08817
           Z           -0.03164   0.08578   0.99581
 This molecule is an asymmetric top.
 Rotational symmetry number  1.
 Warning -- assumption of classical behavior for rotation
           may cause significant error
 Rotational temperatures (Kelvin)      0.02928     0.02148     0.01811
 Rotational constants (GHZ):           0.61007     0.44750     0.37726
    1 imaginary frequencies ignored.
 Zero-point vibrational energy     604675.3 (Joules/Mol)
                                  144.52086 (Kcal/Mol)
 Warning -- explicit consideration of  20 degrees of freedom as
           vibrations may cause significant error
 Vibrational temperatures:     59.53    81.92   103.25   109.45   188.51
          (Kelvin)            202.92   208.57   237.93   273.06   300.38
                              336.31   379.55   422.00   449.09   524.95
                              575.85   604.79   681.59   799.66   881.99
                              915.33   975.11  1047.79  1066.12  1096.52
                             1121.92  1175.83  1271.36  1365.04  1400.07
                             1446.61  1460.06  1466.51  1477.28  1483.55
                             1484.71  1520.28  1528.62  1558.33  1599.08
                             1646.06  1701.20  1703.58  1734.89  1744.42
                             1838.18  1901.01  1930.86  1953.04  2028.22
                             2052.48  2056.68  2105.30  2112.68  2141.76
                             2154.78  2160.67  2166.42  2219.09  2332.29
                             2372.77  2375.01  2410.67  4367.92  4409.69
                             4446.02  4493.74  4520.66  4551.54  4591.54
                             4597.56  4610.42  4620.89  4627.76  4635.86
                             5066.09  5188.26

 Zero-point correction=                           0.230309 (Hartree/Particle)
 Thermal correction to Energy=                    0.244816
 Thermal correction to Enthalpy=                  0.245760
 Thermal correction to Gibbs Free Energy=         0.187564
 Sum of electronic and zero-point Energies=          -3131.537161
 Sum of electronic and thermal Energies=             -3131.522654
 Sum of electronic and thermal Enthalpies=           -3131.521710
 Sum of electronic and thermal Free Energies=        -3131.579906

                     E (Thermal)             CV                S
                      KCal/Mol        Cal/Mol-Kelvin    Cal/Mol-Kelvin
 Total                  153.624             52.605            122.485
 Electronic               0.000              0.000              0.000
 Translational            0.889              2.981             42.509
 Rotational               0.889              2.981             32.412
 Vibrational            151.847             46.643             47.564
 Vibration     1          0.594              1.981              5.192
 Vibration     2          0.596              1.975              4.561
 Vibration     3          0.598              1.967              4.104
 Vibration     4          0.599              1.965              3.990
 Vibration     5          0.612              1.922              2.931
 Vibration     6          0.615              1.912              2.790
 Vibration     7          0.616              1.908              2.737
 Vibration     8          0.624              1.885              2.487
 Vibration     9          0.633              1.854              2.230
 Vibration    10          0.642              1.827              2.054
 Vibration    11          0.654              1.789              1.850
 Vibration    12          0.670              1.739              1.636
 Vibration    13          0.688              1.686              1.455
 Vibration    14          0.700              1.651              1.351
 Vibration    15          0.738              1.545              1.101
 Vibration    16          0.766              1.470              0.962
 Vibration    17          0.783              1.426              0.891
 Vibration    18          0.831              1.308              0.727
 Vibration    19          0.911              1.127              0.532
 Vibration    20          0.972              1.004              0.428

 Optimization completed.
    -- Stationary point found.
 Normal termination of Gaussian 16 at Tue Mar  2 04:05:14 2021.
