 Gaussian 16, Revision A.03,
 Gaussian 16:  ES64L-G16RevA.03 25-Dec-2016

 ----------------------------------------------------------------------
 # wB97XD def2tzvp, opt=(ts, noeigen, calcfc, maxcycles=70, maxstep=1),
  freq=noraman, scrf=(iefpcm, solvent=water)
 ----------------------------------------------------------------------

 ------------------------
 0_iteration/TS-349-0.out
 ------------------------
 Symbolic Z-matrix:
 Charge =  0 Multiplicity = 1

 SCF Done:  E(RwB97XD) =  -5529.70451807     A.U. after   15 cycles
 SCF Done:  E(RwB97XD) =  -5529.70451809     A.U. after    7 cycles
 Optimization completed.
    -- Stationary point found.
 Normal termination of Gaussian 16 at Tue Mar  2 02:29:47 2021.

 ---------------------------------------------------------------------
 #N Geom=AllCheck Guess=TCheck SCRF=Check GenChk RwB97XD/def2TZVP Freq
 ---------------------------------------------------------------------

 Structure from the checkpoint file:  "/beegfs/scratch/user/q/tla25/Gau-110423.chk"
 ------------------------
 0_iteration/TS-349-0.out
 ------------------------
 Charge =  0 Multiplicity = 1

                         Standard orientation:
 ---------------------------------------------------------------------
 Center     Atomic      Atomic             Coordinates (Angstroms)
 Number     Number       Type             X           Y           Z
 ---------------------------------------------------------------------
      1          6           0        0.531613   -0.179324   -0.169979
      2          6           0        1.039678    1.099467    0.306966
      3          8           0        0.279961    1.929598    0.821556
      4          6           0       -0.796419   -0.515554   -0.224156
      5          6           0       -2.855140   -1.271288    1.797344
      6          1           0       -3.081478   -1.396773    2.857477
      7          1           0       -3.571910   -0.578098    1.361999
      8          1           0       -2.947994   -2.234787    1.298138
      9          7           0       -1.505329   -0.755693    1.590561
     10          1           0       -1.375401    0.173419    1.976160
     11          1           0       -0.803804   -1.363541    1.996294
     12          1           0       -1.057079   -1.506894   -0.563492
     13         35           0       -2.114376    0.726705   -0.895531
     14         35           0        1.747233   -1.654829   -0.360765
     15          7           0        2.361703    1.352023    0.182901
     16          6           0        2.945272    2.591815    0.636274
     17          1           0        2.944754    0.687661   -0.292235
     18          1           0        4.026072    2.524336    0.533922
     19          1           0        2.589723    3.444161    0.052527
     20          1           0        2.702811    2.773092    1.684204
 ---------------------------------------------------------------------

 SCF Done:  E(RwB97XD) =  -5529.70451809     A.U. after    1 cycles

 The electronic state is 1-A.
 Alpha  occ. eigenvalues -- -483.13095-483.12907 -62.67948 -62.67743 -56.47068
 Alpha  occ. eigenvalues --  -56.46848 -56.46711 -56.46692 -56.46515 -56.46497
 Alpha  occ. eigenvalues --  -19.20615 -14.47936 -14.45052 -10.38718 -10.38505
 Alpha  occ. eigenvalues --  -10.31665 -10.31217 -10.30868  -8.82063  -8.81857
 Alpha  occ. eigenvalues --   -6.64231  -6.63975  -6.63093  -6.63029  -6.62910
 Alpha  occ. eigenvalues --   -6.62852  -2.74615  -2.74368  -2.74298  -2.74247
 Alpha  occ. eigenvalues --   -2.74069  -2.74021  -2.73327  -2.73327  -2.73160
 Alpha  occ. eigenvalues --   -2.73159  -1.13408  -1.03388  -1.01843  -0.94316
 Alpha  occ. eigenvalues --   -0.89385  -0.81975  -0.80543  -0.78260  -0.71244
 Alpha  occ. eigenvalues --   -0.66708  -0.62783  -0.59375  -0.56003  -0.55550
 Alpha  occ. eigenvalues --   -0.54823  -0.53356  -0.52373  -0.50419  -0.48014
 Alpha  occ. eigenvalues --   -0.47921  -0.47335  -0.45581  -0.44489  -0.39744
 Alpha  occ. eigenvalues --   -0.38594  -0.37843  -0.36798  -0.33804  -0.33579
 Alpha  occ. eigenvalues --   -0.27476
 Alpha virt. eigenvalues --    0.02926   0.06190   0.08747   0.11054   0.12936
 Alpha virt. eigenvalues --    0.14360   0.14893   0.16299   0.17161   0.17494
 Alpha virt. eigenvalues --    0.18578   0.19311   0.20087   0.21267   0.22010

 Mulliken charges:
               1
     1  C   -0.214949
     2  C    0.377316
     3  O   -0.538315
     4  C   -0.038898
     5  C   -0.266166
     6  H    0.149982
     7  H    0.147283
     8  H    0.150219
     9  N   -0.358497
    10  H    0.282224
    11  H    0.280008
    12  H    0.197141
    13  Br  -0.096542
    14  Br  -0.154036
    15  N   -0.325258
    16  C   -0.247796
    17  H    0.255913
    18  H    0.142276
    19  H    0.128340
    20  H    0.129757
 Sum of Mulliken charges =  -0.00000

 Dipole moment (field-independent basis, Debye):
    X=             -0.9457    Y=             -3.9995    Z=              3.3831  Tot=              5.3231
 Quadrupole moment (field-independent basis, Debye-Ang):
   XX=            -71.2718   YY=            -88.0908   ZZ=            -80.7661
   XY=             11.3723   XZ=             -7.0720   YZ=             -6.1758

  Exact polarizability: 218.950   0.633 171.146 -12.106  -5.160 141.154
 Approx polarizability: 163.396  -6.568 141.547  -8.212  -1.687 120.778

 ******    1 imaginary frequencies (negative Signs) ******

                      1                      2                      3
                      A                      A                      A
 Frequencies --   -350.8402                37.2496                52.5652
 Red. masses --      6.9196                 3.7669                 3.6452
 Frc consts  --      0.5018                 0.0031                 0.0059
 IR Inten    --    855.3084                 6.3902                12.5447

                      4                      5                      6
                      A                      A                      A
 Frequencies --     70.0550                75.6540                89.1062
 Red. masses --      1.5520                 1.7559                 3.5518
 Frc consts  --      0.0045                 0.0059                 0.0166
 IR Inten    --      3.5861                 8.4752                 9.4394

                      7                      8                      9
                      A                      A                      A
 Frequencies --    107.5955               128.6094               150.2522
 Red. masses --      3.9391                 3.1293                 2.4433
 Frc consts  --      0.0269                 0.0305                 0.0325
 IR Inten    --      5.5431                 6.2469                 9.6780

                     10                     11                     12
                      A                      A                      A
 Frequencies --    165.3143               176.7349               230.9214
 Red. masses --      4.8480                 2.1750                 6.8192
 Frc consts  --      0.0781                 0.0400                 0.2142
 IR Inten    --     24.6593                 7.5829                20.1656

                     13                     14                     15
                      A                      A                      A
 Frequencies --    285.1303               287.4049               388.3896
 Red. masses --      4.1190                 3.5228                 2.2615
 Frc consts  --      0.1973                 0.1714                 0.2010
 IR Inten    --     27.9879                 7.7577                51.4401

                     16                     17                     18
                      A                      A                      A
 Frequencies --    390.3294               440.3589               557.0113
 Red. masses --      3.1602                 2.6750                 3.1244
 Frc consts  --      0.2837                 0.3056                 0.5711
 IR Inten    --     54.2714               163.0028                 4.4890

                     19                     20                     21
                      A                      A                      A
 Frequencies --    618.1597               714.3834               774.1528
 Red. masses --      2.2821                 2.6784                 8.6959
 Frc consts  --      0.5138                 0.8054                 3.0705
 IR Inten    --     28.1460               191.0644                60.2100

                     22                     23                     24
                      A                      A                      A
 Frequencies --    805.2318               976.7888              1007.5051
 Red. masses --      4.2096                 2.5938                 1.1804
 Frc consts  --      1.6082                 1.4581                 0.7060
 IR Inten    --     27.1317                 5.9624                28.7477

                     25                     26                     27
                      A                      A                      A
 Frequencies --   1022.1843              1072.8678              1102.4762
 Red. masses --      1.1367                 3.3988                 1.3004
 Frc consts  --      0.6998                 2.3050                 0.9312
 IR Inten    --    117.6034               205.9510                22.5035

                     28                     29                     30
                      A                      A                      A
 Frequencies --   1115.5337              1156.2989              1188.9311
 Red. masses --      2.7971                 1.2892                 1.7266
 Frc consts  --      2.0508                 1.0155                 1.4380
 IR Inten    --     12.3786                 1.9914                16.5048

                     31                     32                     33
                      A                      A                      A
 Frequencies --   1207.8634              1257.8633              1324.4380
 Red. masses --      1.4092                 1.4868                 1.7139
 Frc consts  --      1.2113                 1.3861                 1.7713
 IR Inten    --     20.4032               100.0857               140.7752

                     34                     35                     36
                      A                      A                      A
 Frequencies --   1340.7801              1441.5565              1457.0687
 Red. masses --      1.3248                 2.8348                 1.2060
 Frc consts  --      1.4032                 3.4709                 1.5085
 IR Inten    --      1.3977               648.4875                12.3070

                     37                     38                     39
                      A                      A                      A
 Frequencies --   1464.2252              1477.0616              1490.1898
 Red. masses --      1.5740                 1.0702                 1.0411
 Frc consts  --      1.9882                 1.3756                 1.3621
 IR Inten    --    153.5334                13.0291                17.3772

                     40                     41                     42
                      A                      A                      A
 Frequencies --   1502.3798              1506.1998              1561.3018
 Red. masses --      1.0350                 1.0817                 2.0605
 Frc consts  --      1.3765                 1.4459                 2.9593
 IR Inten    --     19.1229                23.6005               765.4013

                     43                     44                     45
                      A                      A                      A
 Frequencies --   1645.1856              1658.6065              3049.2500
 Red. masses --      1.0930                 8.1892                 1.0379
 Frc consts  --      1.7430                13.2733                 5.6859
 IR Inten    --     52.5790               437.0113                77.3501

                     46                     47                     48
                      A                      A                      A
 Frequencies --   3062.8996              3110.3496              3139.2553
 Red. masses --      1.0355                 1.1016                 1.1029
 Frc consts  --      5.7234                 6.2792                 6.4037
 IR Inten    --     59.9079                39.7778                18.1857

                     49                     50                     51
                      A                      A                      A
 Frequencies --   3162.4774              3166.8908              3234.8518
 Red. masses --      1.1019                 1.1050                 1.0925
 Frc consts  --      6.4928                 6.5294                 6.7357
 IR Inten    --     22.1146                13.4034                 1.3988

                     52                     53                     54
                      A                      A                      A
 Frequencies --   3520.6298              3604.6972              3678.3937
 Red. masses --      1.0510                 1.0967                 1.0782
 Frc consts  --      7.6751                 8.3960                 8.5956
 IR Inten    --     24.7894                49.7204                88.3865

 - Thermochemistry -
 -------------------
 Temperature   298.150 Kelvin.  Pressure   1.00000 Atm.
 Atom     1 has atomic number  6 and mass  12.00000

 Molecular mass:   271.91599 amu.
 Principal axes and moments of inertia in atomic units:
                           1         2         3
     Eigenvalues --  2427.892084305.507445400.81715
           X            0.98661   0.15966  -0.03333
           Y           -0.16021   0.98698  -0.01430
           Z            0.03061   0.01945   0.99934
 This molecule is an asymmetric top.
 Rotational symmetry number  1.
 Warning -- assumption of classical behavior for rotation
           may cause significant error
 Rotational temperatures (Kelvin)      0.03567     0.02012     0.01604
 Rotational constants (GHZ):           0.74334     0.41917     0.33416
    1 imaginary frequencies ignored.
 Zero-point vibrational energy     408235.3 (Joules/Mol)
                                   97.57058 (Kcal/Mol)
 Warning -- explicit consideration of  18 degrees of freedom as
           vibrations may cause significant error
 Vibrational temperatures:     53.59    75.63   100.79   108.85   128.20
          (Kelvin)            154.81   185.04   216.18   237.85   254.28
                              332.24   410.24   413.51   558.81   561.60
                              633.58   801.42   889.39  1027.84  1113.83
                             1158.55  1405.38  1449.58  1470.70  1543.62
                             1586.22  1605.00  1663.66  1710.61  1737.85
                             1809.78  1905.57  1929.08  2074.08  2096.40
                             2106.69  2125.16  2144.05  2161.59  2167.09
                             2246.37  2367.06  2386.36  4387.19  4406.83
                             4475.10  4516.69  4550.10  4556.45  4654.23
                             5065.40  5186.36  5292.39

 Zero-point correction=                           0.155489 (Hartree/Particle)
 Thermal correction to Energy=                    0.168830
 Thermal correction to Enthalpy=                  0.169774
 Thermal correction to Gibbs Free Energy=         0.112278
 Sum of electronic and zero-point Energies=          -5529.549029
 Sum of electronic and thermal Energies=             -5529.535689
 Sum of electronic and thermal Enthalpies=           -5529.534744
 Sum of electronic and thermal Free Energies=        -5529.592240

                     E (Thermal)             CV                S
                      KCal/Mol        Cal/Mol-Kelvin    Cal/Mol-Kelvin
 Total                  105.942             42.929            121.010
 Electronic               0.000              0.000              0.000
 Translational            0.889              2.981             42.700
 Rotational               0.889              2.981             32.401
 Vibrational            104.165             36.968             45.909
 Vibration     1          0.594              1.982              5.400
 Vibration     2          0.596              1.977              4.718
 Vibration     3          0.598              1.968              4.152
 Vibration     4          0.599              1.965              4.001
 Vibration     5          0.602              1.957              3.680
 Vibration     6          0.606              1.943              3.312
 Vibration     7          0.611              1.925              2.967
 Vibration     8          0.618              1.902              2.669
 Vibration     9          0.624              1.885              2.488
 Vibration    10          0.628              1.871              2.363
 Vibration    11          0.653              1.794              1.872
 Vibration    12          0.683              1.701              1.503
 Vibration    13          0.685              1.697              1.489
 Vibration    14          0.757              1.495              1.006
 Vibration    15          0.758              1.491              0.999
 Vibration    16          0.800              1.382              0.825
 Vibration    17          0.913              1.124              0.530
 Vibration    18          0.978              0.994              0.419

 Optimization completed.
    -- Stationary point found.
 Normal termination of Gaussian 16 at Tue Mar  2 02:47:02 2021.
