 Gaussian 16, Revision A.03,
 Gaussian 16:  ES64L-G16RevA.03 25-Dec-2016

 ----------------------------------------------------------------------
 # wB97XD def2tzvp, opt=(ts, noeigen, calcfc, maxcycles=70, maxstep=8),
  freq=noraman, scrf=(iefpcm, solvent=water)
 ----------------------------------------------------------------------

 ------------------------
 0_iteration/TS-371-0.out
 ------------------------
 Symbolic Z-matrix:
 Charge =  0 Multiplicity = 1

 SCF Done:  E(RwB97XD) =  -802.777404941     A.U. after   14 cycles
 SCF Done:  E(RwB97XD) =  -802.777428434     A.U. after   12 cycles
 SCF Done:  E(RwB97XD) =  -802.777525350     A.U. after   11 cycles
 SCF Done:  E(RwB97XD) =  -802.778127374     A.U. after   14 cycles
 SCF Done:  E(RwB97XD) =  -802.778762536     A.U. after   14 cycles
 SCF Done:  E(RwB97XD) =  -802.779089008     A.U. after   13 cycles
 SCF Done:  E(RwB97XD) =  -802.779189655     A.U. after   11 cycles
 SCF Done:  E(RwB97XD) =  -802.779198184     A.U. after   10 cycles
 SCF Done:  E(RwB97XD) =  -802.779196945     A.U. after    9 cycles
 SCF Done:  E(RwB97XD) =  -802.779196904     A.U. after    7 cycles
 SCF Done:  E(RwB97XD) =  -802.779196865     A.U. after    7 cycles
 Optimization completed.
    -- Stationary point found.
 Normal termination of Gaussian 16 at Fri Feb 12 12:13:29 2021.

 ---------------------------------------------------------------------
 #N Geom=AllCheck Guess=TCheck SCRF=Check GenChk RwB97XD/def2TZVP Freq
 ---------------------------------------------------------------------

 Structure from the checkpoint file:  "/beegfs/scratch/user/q/tla25/Gau-26285.chk"
 ------------------------
 0_iteration/TS-371-0.out
 ------------------------
 Charge =  0 Multiplicity = 1

                         Standard orientation:
 ---------------------------------------------------------------------
 Center     Atomic      Atomic             Coordinates (Angstroms)
 Number     Number       Type             X           Y           Z
 ---------------------------------------------------------------------
      1          6           0        0.885854   -0.416555   -0.935883
      2          6           0        1.957963   -0.253896    0.012036
      3          8           0        3.077075   -0.750664   -0.178963
      4          6           0       -0.434800   -0.026298   -0.853135
      5          6           0       -2.881472   -0.979909    0.396895
      6          1           0       -3.334528   -1.750509    1.021134
      7          1           0       -3.117236   -0.001516    0.808483
      8          1           0       -3.289889   -1.050900   -0.610121
      9          7           0       -1.428155   -1.133570    0.331271
     10          1           0       -0.990788   -1.006174    1.238019
     11          1           0       -1.163348   -2.051929   -0.006571
     12          1           0       -1.058664   -0.223090   -1.714600
     13         17           0       -0.912479    1.558108   -0.167467
     14          1           0        1.113304   -1.082793   -1.758113
     15          7           0        1.723502    0.421076    1.186340
     16          1           0        0.958031    1.070824    1.243787
     17          1           0        2.545958    0.660963    1.713875
 ---------------------------------------------------------------------

 SCF Done:  E(RwB97XD) =  -802.779196865     A.U. after    1 cycles

 The electronic state is 1-A.
 Alpha  occ. eigenvalues -- -101.70204 -19.19413 -14.48994 -14.43252 -10.39194
 Alpha  occ. eigenvalues --  -10.37464 -10.32014 -10.25237  -9.58806  -7.33415
 Alpha  occ. eigenvalues --   -7.32600  -7.32573  -1.11854  -1.04558  -0.98941
 Alpha  occ. eigenvalues --   -0.96312  -0.85413  -0.79153  -0.73053  -0.65119
 Alpha  occ. eigenvalues --   -0.63656  -0.60786  -0.58465  -0.55187  -0.54723
 Alpha  occ. eigenvalues --   -0.54318  -0.49560  -0.48987  -0.48416  -0.46331
 Alpha  occ. eigenvalues --   -0.45741  -0.40398  -0.39316  -0.35032  -0.33400
 Alpha  occ. eigenvalues --   -0.27948
 Alpha virt. eigenvalues --    0.05660   0.08718   0.10285   0.13650   0.14692
 Alpha virt. eigenvalues --    0.14962   0.17222   0.17954   0.19362   0.19559
 Alpha virt. eigenvalues --    0.20079   0.21100   0.21902   0.23704   0.26977

 Mulliken charges:
               1
     1  C   -0.421642
     2  C    0.327083
     3  O   -0.553260
     4  C   -0.009371
     5  C   -0.272501
     6  H    0.155417
     7  H    0.150987
     8  H    0.152591
     9  N   -0.314538
    10  H    0.281960
    11  H    0.284193
    12  H    0.188407
    13  Cl  -0.137592
    14  H    0.136533
    15  N   -0.469903
    16  H    0.243941
    17  H    0.257695
 Sum of Mulliken charges =  -0.00000

 Dipole moment (field-independent basis, Debye):
    X=            -10.2778    Y=             -1.3495    Z=              2.6123  Tot=             10.6901
 Quadrupole moment (field-independent basis, Debye-Ang):
   XX=            -68.3650   YY=            -52.6385   ZZ=            -51.5785
   XY=             14.2211   XZ=              4.3978   YZ=              2.3280

  Exact polarizability: 159.429  -3.457 104.135  -6.017   5.752  98.029
 Approx polarizability: 117.960  -4.998  88.977  -4.641   5.675  85.094

 ******    1 imaginary frequencies (negative Signs) ******

                      1                      2                      3
                      A                      A                      A
 Frequencies --   -382.4758                57.4849                79.5040
 Red. masses --      6.1614                 2.6887                 6.1598
 Frc consts  --      0.5310                 0.0052                 0.0229
 IR Inten    --    825.2195                 4.1409                12.9586

                      4                      5                      6
                      A                      A                      A
 Frequencies --     88.3533               170.7486               189.4208
 Red. masses --      2.4219                 1.2959                 4.0106
 Frc consts  --      0.0111                 0.0223                 0.0848
 IR Inten    --     11.5566                 9.8773                16.4246

                      7                      8                      9
                      A                      A                      A
 Frequencies --    200.9778               315.8955               341.1314
 Red. masses --      5.1644                 3.1996                 4.4767
 Frc consts  --      0.1229                 0.1881                 0.3069
 IR Inten    --      1.9906                 3.4490                13.6856

                     10                     11                     12
                      A                      A                      A
 Frequencies --    411.7222               437.1466               523.6650
 Red. masses --      2.9366                 1.2307                 1.3378
 Frc consts  --      0.2933                 0.1386                 0.2161
 IR Inten    --    102.6530               405.6396                62.3683

                     13                     14                     15
                      A                      A                      A
 Frequencies --    547.9418               590.3901               662.8520
 Red. masses --      3.2453                 2.1723                 1.4475
 Frc consts  --      0.5741                 0.4461                 0.3747
 IR Inten    --     22.1206                48.7789                43.4158

                     16                     17                     18
                      A                      A                      A
 Frequencies --    685.9924               756.0644               798.1547
 Red. masses --      2.4138                 2.3420                 6.7839
 Frc consts  --      0.6692                 0.7888                 2.5463
 IR Inten    --     89.4091                44.0506               114.9754

                     19                     20                     21
                      A                      A                      A
 Frequencies --    914.9356              1014.2725              1044.5644
 Red. masses --      3.5165                 1.1036                 1.3431
 Frc consts  --      1.7344                 0.6689                 0.8634
 IR Inten    --     14.1164                32.2782                18.9984

                     22                     23                     24
                      A                      A                      A
 Frequencies --   1077.0759              1107.5857              1160.7059
 Red. masses --      2.7788                 1.6693                 1.1050
 Frc consts  --      1.8994                 1.2065                 0.8771
 IR Inten    --    220.6448                29.9017                96.5258

                     25                     26                     27
                      A                      A                      A
 Frequencies --   1199.8301              1234.5272              1313.7706
 Red. masses --      1.2221                 1.3720                 1.3617
 Frc consts  --      1.0366                 1.2320                 1.3848
 IR Inten    --    175.1280                46.8385               229.0916

                     28                     29                     30
                      A                      A                      A
 Frequencies --   1342.1663              1401.5513              1457.4428
 Red. masses --      1.3189                 2.9873                 1.2815
 Frc consts  --      1.3999                 3.4574                 1.6039
 IR Inten    --      8.6812               310.8628                73.7675

                     31                     32                     33
                      A                      A                      A
 Frequencies --   1479.0256              1492.1375              1502.5431
 Red. masses --      3.4023                 1.0439                 1.0349
 Frc consts  --      4.3851                 1.3694                 1.3765
 IR Inten    --    427.2689                18.9735                17.4817

                     34                     35                     36
                      A                      A                      A
 Frequencies --   1615.4364              1640.0221              1653.8511
 Red. masses --      1.4291                 1.1024                 3.6659
 Frc consts  --      2.1973                 1.7470                 5.9078
 IR Inten    --    459.8120               127.4418               922.2680

                     37                     38                     39
                      A                      A                      A
 Frequencies --   3071.4264              3149.2040              3175.7418
 Red. masses --      1.0343                 1.1048                 1.1051
 Frc consts  --      5.7489                 6.4554                 6.5665
 IR Inten    --     45.6021                15.4067                11.6000

                     40                     41                     42
                      A                      A                      A
 Frequencies --   3196.3327              3213.1480              3517.9570
 Red. masses --      1.0868                 1.0936                 1.0512
 Frc consts  --      6.5419                 6.6523                 7.6651
 IR Inten    --      1.0306                 7.3008                25.6581

                     43                     44                     45
                      A                      A                      A
 Frequencies --   3598.3830              3599.7403              3716.0940
 Red. masses --      1.0491                 1.0936                 1.1023
 Frc consts  --      8.0036                 8.3490                 8.9683
 IR Inten    --     58.2623                30.9479               100.5132

 - Thermochemistry -
 -------------------
 Temperature   298.150 Kelvin.  Pressure   1.00000 Atm.
 Atom     1 has atomic number  6 and mass  12.00000

 Molecular mass:   136.04034 amu.
 Principal axes and moments of inertia in atomic units:
                           1         2         3
     Eigenvalues --   706.916381823.235202115.95542
           X            0.99868   0.05136   0.00125
           Y           -0.05138   0.99821   0.03046
           Z            0.00031  -0.03048   0.99954
 This molecule is an asymmetric top.
 Rotational symmetry number  1.
 Warning -- assumption of classical behavior for rotation
           may cause significant error
 Rotational temperatures (Kelvin)      0.12252     0.04751     0.04093
 Rotational constants (GHZ):           2.55298     0.98986     0.85292
    1 imaginary frequencies ignored.
 Zero-point vibrational energy     363347.3 (Joules/Mol)
                                   86.84208 (Kcal/Mol)
 Warning -- explicit consideration of  13 degrees of freedom as
           vibrations may cause significant error
 Vibrational temperatures:     82.71   114.39   127.12   245.67   272.53
          (Kelvin)            289.16   454.50   490.81   592.38   628.96
                              753.44   788.37   849.44   953.70   986.99
                             1087.81  1148.37  1316.39  1459.31  1502.90
                             1549.67  1593.57  1670.00  1726.29  1776.21
                             1890.22  1931.08  2016.52  2096.94  2127.99
                             2146.85  2161.82  2324.25  2359.63  2379.52
                             4419.10  4531.00  4569.18  4598.81  4623.00
                             5061.56  5177.27  5179.22  5346.63

 Zero-point correction=                           0.138392 (Hartree/Particle)
 Thermal correction to Energy=                    0.147923
 Thermal correction to Enthalpy=                  0.148867
 Thermal correction to Gibbs Free Energy=         0.102929
 Sum of electronic and zero-point Energies=           -802.640805
 Sum of electronic and thermal Energies=              -802.631274
 Sum of electronic and thermal Enthalpies=            -802.630330
 Sum of electronic and thermal Free Energies=         -802.676268

                     E (Thermal)             CV                S
                      KCal/Mol        Cal/Mol-Kelvin    Cal/Mol-Kelvin
 Total                   92.823             33.230             96.684
 Electronic               0.000              0.000              0.000
 Translational            0.889              2.981             40.635
 Rotational               0.889              2.981             29.390
 Vibrational             91.045             27.269             26.658
 Vibration     1          0.596              1.975              4.542
 Vibration     2          0.600              1.963              3.903
 Vibration     3          0.601              1.957              3.696
 Vibration     4          0.626              1.878              2.427
 Vibration     5          0.633              1.854              2.233
 Vibration     6          0.638              1.838              2.124
 Vibration     7          0.703              1.643              1.331
 Vibration     8          0.721              1.593              1.207
 Vibration     9          0.776              1.445              0.921
 Vibration    10          0.797              1.389              0.836
 Vibration    11          0.879              1.198              0.602
 Vibration    12          0.903              1.144              0.548
 Vibration    13          0.948              1.052              0.466

 Optimization completed.
    -- Stationary point found.
 Normal termination of Gaussian 16 at Fri Feb 12 12:20:27 2021.
