 Gaussian 16, Revision A.03,
 Gaussian 16:  ES64L-G16RevA.03 25-Dec-2016

 ----------------------------------------------------------------------
 # wB97XD def2tzvp, opt=(ts, noeigen, calcfc, maxcycles=70, maxstep=1),
  freq=noraman, scrf=(iefpcm, solvent=water)
 ----------------------------------------------------------------------

 ------------------------
 0_iteration/TS-312-0.out
 ------------------------
 Symbolic Z-matrix:
 Charge =  0 Multiplicity = 1

 SCF Done:  E(RwB97XD) =  -3131.77688162     A.U. after   15 cycles
 Optimization completed.
    -- Stationary point found.
 Normal termination of Gaussian 16 at Tue Mar  2 03:00:20 2021.

 ---------------------------------------------------------------------
 #N Geom=AllCheck Guess=TCheck SCRF=Check GenChk RwB97XD/def2TZVP Freq
 ---------------------------------------------------------------------

 Structure from the checkpoint file:  "/beegfs/scratch/user/q/tla25/Gau-98701.chk"
 ------------------------
 0_iteration/TS-312-0.out
 ------------------------
 Charge =  0 Multiplicity = 1

                         Standard orientation:
 ---------------------------------------------------------------------
 Center     Atomic      Atomic             Coordinates (Angstroms)
 Number     Number       Type             X           Y           Z
 ---------------------------------------------------------------------
      1          6           0        0.869690   -0.354912    0.269692
      2          6           0       -0.157711   -1.240701   -0.169608
      3          8           0        0.036879   -2.388001   -0.574208
      4          6           0        0.785501    0.901498    0.854892
      5          6           0        1.428713    3.635088   -0.204708
      6          1           0        1.596623    4.293288   -1.059208
      7          1           0        0.699823    4.100598    0.456192
      8          1           0        2.366613    3.518687    0.337692
      9          7           0        0.944612    2.317688   -0.606208
     10          1           0        0.031712    2.368499   -1.042208
     11          1           0        1.575601    1.872288   -1.260808
     12          1           0        1.722801    1.250588    1.270892
     13          6           0       -0.405399    1.466099    1.579492
     14          1           0       -0.615799    0.840099    2.448392
     15          1           0       -0.175588    2.468499    1.935992
     16          1           0       -1.304499    1.505010    0.971892
     17         35           0        2.661090   -0.979113   -0.059308
     18          6           0       -1.576010   -0.738790   -0.157908
     19          6           0       -2.465811   -1.171890    0.816892
     20          6           0       -3.777510   -0.722179    0.809892
     21          6           0       -4.210800    0.148822   -0.180708
     22          6           0       -3.330099    0.563221   -1.170008
     23          6           0       -2.015100    0.121810   -1.157308
     24          1           0       -2.125811   -1.847290    1.592592
     25          1           0       -4.463310   -1.050878    1.580492
     26          1           0       -5.234699    0.500332   -0.184008
     27          1           0       -3.665899    1.233521   -1.951008
     28          1           0       -1.325799    0.447510   -1.927608
 ---------------------------------------------------------------------

 SCF Done:  E(RwB97XD) =  -3131.77688162     A.U. after    1 cycles

 The electronic state is 1-A.
 Alpha  occ. eigenvalues -- -483.11815 -62.66659 -56.45756 -56.45429 -56.45423
 Alpha  occ. eigenvalues --  -19.21826 -14.46924 -10.36728 -10.35103 -10.31526
 Alpha  occ. eigenvalues --  -10.31255 -10.30211 -10.29598 -10.29498 -10.29475
 Alpha  occ. eigenvalues --  -10.29421 -10.29307 -10.28622  -8.80777  -6.62872
 Alpha  occ. eigenvalues --   -6.61825  -6.61805  -2.73270  -2.72964  -2.72950
 Alpha  occ. eigenvalues --   -2.72102  -2.72102  -1.12682  -1.02561  -0.97186
 Alpha  occ. eigenvalues --   -0.93328  -0.87137  -0.86219  -0.85620  -0.79266
 Alpha  occ. eigenvalues --   -0.78347  -0.73830  -0.70969  -0.69674  -0.63514
 Alpha  occ. eigenvalues --   -0.62151  -0.59491  -0.57353  -0.55690  -0.55234
 Alpha  occ. eigenvalues --   -0.54336  -0.53818  -0.53149  -0.51466  -0.51073
 Alpha  occ. eigenvalues --   -0.49760  -0.48615  -0.47664  -0.47136  -0.45753
 Alpha  occ. eigenvalues --   -0.44503  -0.43614  -0.43153  -0.41237  -0.38066
 Alpha  occ. eigenvalues --   -0.36667  -0.34673  -0.34274  -0.32397  -0.28313
 Alpha virt. eigenvalues --    0.02488   0.04544   0.04903   0.08170   0.10383
 Alpha virt. eigenvalues --    0.12670   0.13555   0.14160   0.14470   0.14985
 Alpha virt. eigenvalues --    0.16767   0.17421   0.17872   0.18657   0.18875

 Mulliken charges:
               1
     1  C   -0.163989
     2  C    0.209229
     3  O   -0.473030
     4  C   -0.031047
     5  C   -0.274348
     6  H    0.148117
     7  H    0.148056
     8  H    0.147902
     9  N   -0.385541
    10  H    0.270138
    11  H    0.275633
    12  H    0.166430
    13  C   -0.355912
    14  H    0.153932
    15  H    0.152285
    16  H    0.153687
    17  Br  -0.168411
    18  C    0.197595
    19  C   -0.228475
    20  C   -0.130317
    21  C   -0.156682
    22  C   -0.111481
    23  C   -0.291081
    24  H    0.146106
    25  H    0.145945
    26  H    0.146766
    27  H    0.146417
    28  H    0.162076
 Sum of Mulliken charges =  -0.00000

 Dipole moment (field-independent basis, Debye):
    X=             -2.1306    Y=             12.0767    Z=              0.8284  Tot=             12.2912
 Quadrupole moment (field-independent basis, Debye-Ang):
   XX=            -91.7699   YY=            -95.2649   ZZ=            -90.6530
   XY=              7.3187   XZ=             -2.4962   YZ=             -9.2203

  Exact polarizability: 256.674  -3.463 248.811  -9.749 -12.515 186.279
 Approx polarizability: 196.799  -6.455 197.941  -7.847 -10.634 163.856

 ******    1 imaginary frequencies (negative Signs) ******

                      1                      2                      3
                      A                      A                      A
 Frequencies --   -320.9606                24.8745                35.8531
 Red. masses --      5.7838                 5.6331                 3.2662
 Frc consts  --      0.3510                 0.0021                 0.0025
 IR Inten    --    862.2073                 3.4266                 1.1476

                      4                      5                      6
                      A                      A                      A
 Frequencies --     56.8498                63.9731                80.4534
 Red. masses --      2.6809                 3.7725                 3.6956
 Frc consts  --      0.0051                 0.0091                 0.0141
 IR Inten    --      4.9327                 0.7997                 1.7272

                      7                      8                      9
                      A                      A                      A
 Frequencies --    105.1217               164.4593               178.4156
 Red. masses --      3.5095                 1.2095                 5.1749
 Frc consts  --      0.0228                 0.0193                 0.0971
 IR Inten    --     10.2882                 0.6518                 4.5435

                     10                     11                     12
                      A                      A                      A
 Frequencies --    184.2489               207.4484               233.0881
 Red. masses --      3.5881                 1.7781                 3.6550
 Frc consts  --      0.0718                 0.0451                 0.1170
 IR Inten    --      0.7215                 0.9701                17.4325

                     13                     14                     15
                      A                      A                      A
 Frequencies --    243.7946               269.8842               301.9684
 Red. masses --      2.2789                 3.9388                 3.1286
 Frc consts  --      0.0798                 0.1690                 0.1681
 IR Inten    --      0.5006                 9.8148                 2.6078

                     16                     17                     18
                      A                      A                      A
 Frequencies --    364.1037               385.5494               415.4226
 Red. masses --      5.4382                 3.4358                 2.8746
 Frc consts  --      0.4248                 0.3009                 0.2923
 IR Inten    --     20.7260                 5.6787                 1.3910

                     19                     20                     21
                      A                      A                      A
 Frequencies --    455.8028               547.3483               594.8992
 Red. masses --      5.2583                 3.7200                 1.2748
 Frc consts  --      0.6436                 0.6566                 0.2658
 IR Inten    --    163.5956                10.3940                48.8601

                     22                     23                     24
                      A                      A                      A
 Frequencies --    631.2501               635.7669               698.5513
 Red. masses --      6.0164                 6.3825                 3.4278
 Frc consts  --      1.4125                 1.5200                 0.9855
 IR Inten    --     52.1474                 3.5414                46.9281

                     25                     26                     27
                      A                      A                      A
 Frequencies --    728.8249               776.7537               786.8381
 Red. masses --      1.5062                 7.2110                 4.4752
 Frc consts  --      0.4714                 2.5634                 1.6324
 IR Inten    --     92.5645                34.9805                59.8083

                     28                     29                     30
                      A                      A                      A
 Frequencies --    828.9418               881.4946               958.3772
 Red. masses --      2.9730                 1.2503                 1.3863
 Frc consts  --      1.2036                 0.5724                 0.7502
 IR Inten    --     71.6537                 0.3300                73.5743

                     31                     32                     33
                      A                      A                      A
 Frequencies --    961.3612               993.4691              1001.6777
 Red. masses --      1.5418                 1.2886                 1.1119
 Frc consts  --      0.8395                 0.7493                 0.6573
 IR Inten    --     34.9310                 4.3336               152.4988

                     34                     35                     36
                      A                      A                      A
 Frequencies --   1014.7853              1026.1038              1033.9716
 Red. masses --      1.3836                 5.7986                 1.3209
 Frc consts  --      0.8395                 3.5971                 0.8320
 IR Inten    --      4.0806                 1.1782                 0.7992

                     37                     38                     39
                      A                      A                      A
 Frequencies --   1039.7585              1058.5543              1071.2514
 Red. masses --      2.0471                 2.0861                 3.6204
 Frc consts  --      1.3040                 1.3772                 2.4479
 IR Inten    --      5.4655                16.4723               170.2626

                     40                     41                     42
                      A                      A                      A
 Frequencies --   1078.7504              1110.7712              1133.4374
 Red. masses --      1.6795                 1.5451                 1.4865
 Frc consts  --      1.1515                 1.1232                 1.1251
 IR Inten    --     38.5071                10.5274               149.8452

                     43                     44                     45
                      A                      A                      A
 Frequencies --   1173.3824              1184.5839              1203.9259
 Red. masses --      2.1681                 1.1402                 1.4150
 Frc consts  --      1.7588                 0.9427                 1.2084
 IR Inten    --     16.6308                 0.0310                15.6580

                     46                     47                     48
                      A                      A                      A
 Frequencies --   1206.2294              1287.6777              1320.1886
 Red. masses --      1.1289                 2.2565                 4.1953
 Frc consts  --      0.9678                 2.2044                 4.3081
 IR Inten    --      1.2494                50.0505                 3.3980

                     49                     50                     51
                      A                      A                      A
 Frequencies --   1344.3676              1358.6679              1408.6613
 Red. masses --      1.3315                 1.4622                 1.8476
 Frc consts  --      1.4179                 1.5903                 2.1601
 IR Inten    --      0.1670                 1.6423               292.2266

                     52                     53                     54
                      A                      A                      A
 Frequencies --   1414.5471              1456.4404              1474.7759
 Red. masses --      1.4676                 1.3295                 1.2580
 Frc consts  --      1.7302                 1.6616                 1.6120
 IR Inten    --    233.1068               157.9905               120.4776

                     55                     56                     57
                      A                      A                      A
 Frequencies --   1488.4972              1489.5961              1492.0105
 Red. masses --      1.7523                 1.2012                 1.0522
 Frc consts  --      2.2875                 1.5704                 1.3801
 IR Inten    --      6.5964                 7.6426                19.8762

                     58                     59                     60
                      A                      A                      A
 Frequencies --   1505.1936              1513.3062              1541.2517
 Red. masses --      1.4843                 1.2223                 2.3548
 Frc consts  --      1.9814                 1.6493                 3.2957
 IR Inten    --    323.7293               153.1527                10.5667

                     61                     62                     63
                      A                      A                      A
 Frequencies --   1645.0073              1647.5706              1651.6500
 Red. masses --      5.0822                 1.3598                 4.1536
 Frc consts  --      8.1029                 2.1747                 6.6759
 IR Inten    --    671.7471                19.8720               123.5425

                     64                     65                     66
                      A                      A                      A
 Frequencies --   1674.4441              3058.2541              3075.9748
 Red. masses --      5.8795                 1.0357                 1.0401
 Frc consts  --      9.7125                 5.7073                 5.7981
 IR Inten    --      0.1532                69.4128                15.8231

                     67                     68                     69
                      A                      A                      A
 Frequencies --   3131.4263              3146.6869              3158.9407
 Red. masses --      1.1026                 1.0988                 1.1046
 Frc consts  --      6.3703                 6.4104                 6.4943
 IR Inten    --     22.5853                24.6161                21.7308

                     70                     71                     72
                      A                      A                      A
 Frequencies --   3177.4202              3189.0308              3192.7684
 Red. masses --      1.0972                 1.0883                 1.0940
 Frc consts  --      6.5265                 6.5211                 6.5708
 IR Inten    --      2.3529                 6.9607                12.7231

                     73                     74                     75
                      A                      A                      A
 Frequencies --   3195.4437              3203.9897              3212.9681
 Red. masses --      1.0874                 1.0910                 1.0950
 Frc consts  --      6.5419                 6.5985                 6.6599
 IR Inten    --      1.5575                 6.0515                34.3614

                     76                     77                     78
                      A                      A                      A
 Frequencies --   3223.1347              3530.9007              3615.2444
 Red. masses --      1.0988                 1.0506                 1.0961
 Frc consts  --      6.7258                 7.7168                 8.4408
 IR Inten    --     18.5530                12.0346                39.8716

 - Thermochemistry -
 -------------------
 Temperature   298.150 Kelvin.  Pressure   1.00000 Atm.
 Atom     1 has atomic number  6 and mass  12.00000

 Molecular mass:   255.02588 amu.
 Principal axes and moments of inertia in atomic units:
                           1         2         3
     Eigenvalues --  2456.856255334.246876867.41107
           X            0.99875   0.04991  -0.00224
           Y           -0.04993   0.99870  -0.01049
           Z            0.00172   0.01059   0.99994
 This molecule is an asymmetric top.
 Rotational symmetry number  1.
 Warning -- assumption of classical behavior for rotation
           may cause significant error
 Rotational temperatures (Kelvin)      0.03525     0.01624     0.01261
 Rotational constants (GHZ):           0.73457     0.33833     0.26280
    1 imaginary frequencies ignored.
 Zero-point vibrational energy     603865.4 (Joules/Mol)
                                  144.32729 (Kcal/Mol)
 Warning -- explicit consideration of  20 degrees of freedom as
           vibrations may cause significant error
 Vibrational temperatures:     35.79    51.58    81.79    92.04   115.75
          (Kelvin)            151.25   236.62   256.70   265.09   298.47
                              335.36   350.77   388.30   434.47   523.86
                              554.72   597.70   655.80   787.51   855.93
                              908.23   914.73  1005.06  1048.62  1117.58
                             1132.08  1192.66  1268.27  1378.89  1383.18
                             1429.38  1441.19  1460.05  1476.33  1487.65
                             1495.98  1523.02  1541.29  1552.08  1598.15
                             1630.76  1688.24  1704.35  1732.18  1735.50
                             1852.68  1899.46  1934.25  1954.82  2026.75
                             2035.22  2095.49  2121.87  2141.62  2143.20
                             2146.67  2165.64  2177.31  2217.52  2366.80
                             2370.49  2376.36  2409.15  4400.15  4425.64
                             4505.42  4527.38  4545.01  4571.60  4588.30
                             4593.68  4597.53  4609.83  4622.74  4637.37
                             5080.18  5201.53

 Zero-point correction=                           0.230000 (Hartree/Particle)
 Thermal correction to Energy=                    0.244912
 Thermal correction to Enthalpy=                  0.245856
 Thermal correction to Gibbs Free Energy=         0.185291
 Sum of electronic and zero-point Energies=          -3131.546881
 Sum of electronic and thermal Energies=             -3131.531970
 Sum of electronic and thermal Enthalpies=           -3131.531026
 Sum of electronic and thermal Free Energies=        -3131.591591

                     E (Thermal)             CV                S
                      KCal/Mol        Cal/Mol-Kelvin    Cal/Mol-Kelvin
 Total                  153.685             53.045            127.470
 Electronic               0.000              0.000              0.000
 Translational            0.889              2.981             42.509
 Rotational               0.889              2.981             32.865
 Vibrational            151.907             47.083             52.097
 Vibration     1          0.593              1.985              6.201
 Vibration     2          0.594              1.982              5.476
 Vibration     3          0.596              1.975              4.564
 Vibration     4          0.597              1.971              4.331
 Vibration     5          0.600              1.962              3.880
 Vibration     6          0.605              1.945              3.357
 Vibration     7          0.623              1.886              2.498
 Vibration     8          0.629              1.869              2.345
 Vibration     9          0.631              1.861              2.285
 Vibration    10          0.641              1.829              2.066
 Vibration    11          0.654              1.790              1.855
 Vibration    12          0.659              1.773              1.775
 Vibration    13          0.674              1.729              1.597
 Vibration    14          0.694              1.670              1.406
 Vibration    15          0.738              1.546              1.105
 Vibration    16          0.754              1.501              1.017
 Vibration    17          0.779              1.437              0.908
 Vibration    18          0.814              1.348              0.778
 Vibration    19          0.903              1.145              0.550
 Vibration    20          0.953              1.043              0.459

 Optimization completed.
    -- Stationary point found.
 Normal termination of Gaussian 16 at Tue Mar  2 03:51:58 2021.
