 Gaussian 16, Revision A.03,
 Gaussian 16:  ES64L-G16RevA.03 25-Dec-2016

 ----------------------------------------------------------------------
 # wB97XD def2tzvp, opt=(ts, noeigen, calcfc, maxcycles=70, maxstep=8),
  freq=noraman, scrf=(iefpcm, solvent=water)
 ----------------------------------------------------------------------

 ------------------------
 0_iteration/TS-336-0.out
 ------------------------
 Symbolic Z-matrix:
 Charge =  0 Multiplicity = 1

 SCF Done:  E(RwB97XD) =  -3092.45490131     A.U. after   15 cycles
 SCF Done:  E(RwB97XD) =  -3092.45376521     A.U. after   12 cycles
 SCF Done:  E(RwB97XD) =  -3092.45298899     A.U. after   13 cycles
 SCF Done:  E(RwB97XD) =  -3092.45252897     A.U. after   12 cycles
 SCF Done:  E(RwB97XD) =  -3092.45245073     A.U. after   12 cycles
 SCF Done:  E(RwB97XD) =  -3092.45277130     A.U. after   12 cycles
 SCF Done:  E(RwB97XD) =  -3092.45335268     A.U. after   13 cycles
 SCF Done:  E(RwB97XD) =  -3092.45363593     A.U. after   14 cycles
 SCF Done:  E(RwB97XD) =  -3092.45381647     A.U. after   12 cycles
 SCF Done:  E(RwB97XD) =  -3092.45382552     A.U. after   12 cycles
 SCF Done:  E(RwB97XD) =  -3092.45383645     A.U. after   11 cycles
 SCF Done:  E(RwB97XD) =  -3092.45378387     A.U. after   12 cycles
 SCF Done:  E(RwB97XD) =  -3092.45384522     A.U. after   12 cycles
 SCF Done:  E(RwB97XD) =  -3092.45384538     A.U. after   10 cycles
 SCF Done:  E(RwB97XD) =  -3092.45384680     A.U. after   10 cycles
 SCF Done:  E(RwB97XD) =  -3092.45384723     A.U. after    9 cycles
 SCF Done:  E(RwB97XD) =  -3092.45384701     A.U. after   10 cycles
 SCF Done:  E(RwB97XD) =  -3092.45384773     A.U. after   10 cycles
 SCF Done:  E(RwB97XD) =  -3092.45384771     A.U. after    7 cycles
 Optimization completed.
    -- Stationary point found.
 Normal termination of Gaussian 16 at Fri Feb 12 16:08:45 2021.

 ---------------------------------------------------------------------
 #N Geom=AllCheck Guess=TCheck SCRF=Check GenChk RwB97XD/def2TZVP Freq
 ---------------------------------------------------------------------

 Structure from the checkpoint file:  "/beegfs/scratch/user/q/tla25/Gau-122862.chk"
 ------------------------
 0_iteration/TS-336-0.out
 ------------------------
 Charge =  0 Multiplicity = 1

                         Standard orientation:
 ---------------------------------------------------------------------
 Center     Atomic      Atomic             Coordinates (Angstroms)
 Number     Number       Type             X           Y           Z
 ---------------------------------------------------------------------
      1          6           0       -0.156439    0.137788    0.901189
      2          6           0        0.662800    0.087365   -0.271857
      3          8           0        0.213189    0.090913   -1.421579
      4          6           0       -1.524664    0.037406    0.918439
      5          6           0       -3.747457    2.037418    0.291566
      6          1           0       -4.005792    3.037198   -0.063552
      7          1           0       -4.247454    1.301650   -0.335981
      8          1           0       -4.103030    1.923601    1.314896
      9          7           0       -2.309865    1.796275    0.255597
     10          1           0       -1.932805    1.839666   -0.683838
     11          1           0       -1.798333    2.454705    0.829849
     12          1           0       -2.039764    0.093718    1.865855
     13         35           0       -2.486937   -1.147145   -0.248058
     14          1           0        0.297891    0.426867    1.839966
     15          6           0        2.155728    0.069040   -0.077358
     16          6           0        2.970135    0.562136   -1.093857
     17          6           0        4.348927    0.552309   -0.961391
     18          6           0        4.932712    0.033432    0.187054
     19          6           0        4.130677   -0.471057    1.200579
     20          6           0        2.749810   -0.447792    1.071467
     21          1           0        2.506339    0.956555   -1.988688
     22          1           0        4.970866    0.948252   -1.754372
     23          1           0        6.010481    0.020044    0.290167
     24          1           0        4.580872   -0.886541    2.093256
     25          1           0        2.133692   -0.855128    1.862948
 ---------------------------------------------------------------------

 SCF Done:  E(RwB97XD) =  -3092.45384771     A.U. after    1 cycles

 The electronic state is 1-A.
 Alpha  occ. eigenvalues -- -483.12978 -62.67836 -56.46947 -56.46605 -56.46579
 Alpha  occ. eigenvalues --  -19.21440 -14.46987 -10.38269 -10.36092 -10.31356
 Alpha  occ. eigenvalues --  -10.29621 -10.29403 -10.29349 -10.29173 -10.29161
 Alpha  occ. eigenvalues --  -10.29100 -10.26294  -8.81957  -6.64103  -6.63009
 Alpha  occ. eigenvalues --   -6.62926  -2.74496  -2.74191  -2.74125  -2.73240
 Alpha  occ. eigenvalues --   -2.73239  -1.12167  -1.02494  -0.96759  -0.92609
 Alpha  occ. eigenvalues --   -0.87082  -0.85320  -0.83870  -0.78299  -0.74738
 Alpha  occ. eigenvalues --   -0.70804  -0.68922  -0.63523  -0.62107  -0.59799
 Alpha  occ. eigenvalues --   -0.56949  -0.56177  -0.54978  -0.53893  -0.53342
 Alpha  occ. eigenvalues --   -0.51401  -0.51209  -0.50737  -0.48519  -0.47546
 Alpha  occ. eigenvalues --   -0.45922  -0.45299  -0.44094  -0.43556  -0.42607
 Alpha  occ. eigenvalues --   -0.37733  -0.36673  -0.34033  -0.33802  -0.32472
 Alpha  occ. eigenvalues --   -0.28945
 Alpha virt. eigenvalues --    0.00545   0.05034   0.05482   0.07915   0.10642
 Alpha virt. eigenvalues --    0.13383   0.14497   0.14720   0.15718   0.16584
 Alpha virt. eigenvalues --    0.16892   0.17774   0.19138   0.19322   0.19681

 Mulliken charges:
               1
     1  C   -0.416096
     2  C    0.305540
     3  O   -0.497971
     4  C    0.006623
     5  C   -0.259748
     6  H    0.145280
     7  H    0.143370
     8  H    0.146709
     9  N   -0.391140
    10  H    0.278948
    11  H    0.274975
    12  H    0.189252
    13  Br  -0.092982
    14  H    0.164819
    15  C    0.151200
    16  C   -0.226041
    17  C   -0.129240
    18  C   -0.137606
    19  C   -0.143027
    20  C   -0.242581
    21  H    0.140330
    22  H    0.143885
    23  H    0.146553
    24  H    0.144179
    25  H    0.154769
 Sum of Mulliken charges =  -0.00000

 Dipole moment (field-independent basis, Debye):
    X=             -2.7960    Y=              5.2162    Z=              4.4457  Tot=              7.4021
 Quadrupole moment (field-independent basis, Debye-Ang):
   XX=            -69.7794   YY=            -83.4183   ZZ=            -87.5927
   XY=            -11.7347   XZ=             -1.9227   YZ=             -0.9459

  Exact polarizability: 303.682 -12.060 167.534  -0.304 -12.187 192.803
 Approx polarizability: 210.167  -4.316 141.229   3.152 -10.058 173.101

 ******    1 imaginary frequencies (negative Signs) ******

                      1                      2                      3
                      A                      A                      A
 Frequencies --   -364.3931                30.1741                34.7065
 Red. masses --      6.3172                 3.8176                 4.5907
 Frc consts  --      0.4942                 0.0020                 0.0033
 IR Inten    --    996.2840                 3.5817                 3.0158

                      4                      5                      6
                      A                      A                      A
 Frequencies --     44.5444                77.4518               104.3327
 Red. masses --      3.1235                 2.9214                 7.5139
 Frc consts  --      0.0037                 0.0103                 0.0482
 IR Inten    --      1.7678                15.4544                 6.8946

                      7                      8                      9
                      A                      A                      A
 Frequencies --    123.4069               145.6722               159.0292
 Red. masses --      4.9487                 2.4712                 1.5920
 Frc consts  --      0.0444                 0.0309                 0.0237
 IR Inten    --      5.1405                 6.5582                11.9517

                     10                     11                     12
                      A                      A                      A
 Frequencies --    201.3189               263.7077               297.8776
 Red. masses --      4.5770                 2.9770                 7.1908
 Frc consts  --      0.1093                 0.1220                 0.3759
 IR Inten    --     28.2724                 3.5646                13.6451

                     13                     14                     15
                      A                      A                      A
 Frequencies --    368.4798               421.1054               432.5424
 Red. masses --      5.0674                 2.8797                 4.7314
 Frc consts  --      0.4054                 0.3009                 0.5216
 IR Inten    --     50.3649                 0.3991                42.3411

                     16                     17                     18
                      A                      A                      A
 Frequencies --    467.6687               529.1157               560.1097
 Red. masses --      5.3319                 3.8287                 1.9977
 Frc consts  --      0.6871                 0.6315                 0.3693
 IR Inten    --     26.6960                 1.2041                 4.5124

                     19                     20                     21
                      A                      A                      A
 Frequencies --    635.0834               655.1187               691.4282
 Red. masses --      6.4010                 2.2031                 1.7257
 Frc consts  --      1.5211                 0.5571                 0.4861
 IR Inten    --      0.4349                55.6857                62.1201

                     22                     23                     24
                      A                      A                      A
 Frequencies --    715.8774               721.7570               749.2269
 Red. masses --      3.4475                 1.6923                 2.0302
 Frc consts  --      1.0409                 0.5194                 0.6715
 IR Inten    --     18.5684                57.0439               198.1445

                     25                     26                     27
                      A                      A                      A
 Frequencies --    832.6018               881.3627               896.2683
 Red. masses --      3.0726                 1.2492                 4.6804
 Frc consts  --      1.2550                 0.5717                 2.2152
 IR Inten    --     26.0468                 0.5221                92.8522

                     28                     29                     30
                      A                      A                      A
 Frequencies --    971.9284               995.1212               998.4868
 Red. masses --      1.4782                 1.1087                 1.1045
 Frc consts  --      0.8227                 0.6468                 0.6488
 IR Inten    --      4.2173               140.4818                38.1741

                     31                     32                     33
                      A                      A                      A
 Frequencies --   1017.7843              1025.6169              1033.8985
 Red. masses --      1.3882                 5.9047                 1.3186
 Frc consts  --      0.8473                 3.6595                 0.8304
 IR Inten    --      1.7999                 2.4350                 0.5819

                     34                     35                     36
                      A                      A                      A
 Frequencies --   1050.3168              1065.6085              1079.3478
 Red. masses --      2.8113                 1.9280                 2.8272
 Frc consts  --      1.8272                 1.2899                 1.9406
 IR Inten    --     79.0521               135.8671                31.7570

                     37                     38                     39
                      A                      A                      A
 Frequencies --   1091.2786              1110.8879              1183.4855
 Red. masses --      1.4567                 1.5378                 1.1358
 Frc consts  --      1.0221                 1.1181                 0.9373
 IR Inten    --     17.7389                14.5553                 2.4316

                     40                     41                     42
                      A                      A                      A
 Frequencies --   1193.4878              1200.5338              1218.2688
 Red. masses --      1.3910                 1.1394                 1.1478
 Frc consts  --      1.1674                 0.9676                 1.0037
 IR Inten    --     26.9990                 4.9788               132.1342

                     43                     44                     45
                      A                      A                      A
 Frequencies --   1256.9257              1327.7988              1339.7848
 Red. masses --      2.8706                 2.7187                 1.3566
 Frc consts  --      2.6720                 2.8241                 1.4347
 IR Inten    --    290.5524                72.9292                 1.9620

                     46                     47                     48
                      A                      A                      A
 Frequencies --   1347.0412              1355.0370              1453.6694
 Red. masses --      2.4875                 1.5577                 1.2148
 Frc consts  --      2.6594                 1.6851                 1.5124
 IR Inten    --    112.4155                79.0933                94.9141

                     49                     50                     51
                      A                      A                      A
 Frequencies --   1484.2219              1490.1034              1500.4504
 Red. masses --      2.4051                 1.0417                 1.0811
 Frc consts  --      3.1216                 1.3628                 1.4340
 IR Inten    --    371.1643                15.2154                74.1299

                     52                     53                     54
                      A                      A                      A
 Frequencies --   1504.2327              1539.7008              1641.7275
 Red. masses --      2.6325                 2.3373                 4.6929
 Frc consts  --      3.5095                 3.2646                 7.4524
 IR Inten    --    936.3614                48.0173               151.2692

                     55                     56                     57
                      A                      A                      A
 Frequencies --   1644.7699              1669.5453              1676.6460
 Red. masses --      1.1698                 6.4131                 7.6185
 Frc consts  --      1.8645                10.5322                12.6183
 IR Inten    --     59.2392               103.3689               166.1562

                     58                     59                     60
                      A                      A                      A
 Frequencies --   3056.8641              3131.8648              3160.0307
 Red. masses --      1.0363                 1.1015                 1.1049
 Frc consts  --      5.7053                 6.3655                 6.5009
 IR Inten    --     72.6190                21.2583                17.7239

                     61                     62                     63
                      A                      A                      A
 Frequencies --   3194.4885              3200.9765              3204.7775
 Red. masses --      1.0859                 1.0882                 1.0877
 Frc consts  --      6.5288                 6.5694                 6.5817
 IR Inten    --      0.8490                 3.9344                 4.0649

                     64                     65                     66
                      A                      A                      A
 Frequencies --   3211.3774              3218.2193              3223.6805
 Red. masses --      1.0913                 1.0941                 1.0981
 Frc consts  --      6.6307                 6.6766                 6.7232
 IR Inten    --     15.5771                25.3390                17.8667

                     67                     68                     69
                      A                      A                      A
 Frequencies --   3235.9378              3530.6193              3616.0936
 Red. masses --      1.0946                 1.0504                 1.0968
 Frc consts  --      6.7534                 7.7147                 8.4498
 IR Inten    --      5.1848                18.5681                40.5425

 - Thermochemistry -
 -------------------
 Temperature   298.150 Kelvin.  Pressure   1.00000 Atm.
 Atom     1 has atomic number  6 and mass  12.00000

 Molecular mass:   241.01023 amu.
 Principal axes and moments of inertia in atomic units:
                           1         2         3
     Eigenvalues --  1348.290227279.103927617.68224
           X            0.99943  -0.03358  -0.00420
           Y            0.03331   0.99811  -0.05171
           Z            0.00593   0.05154   0.99865
 This molecule is an asymmetric top.
 Rotational symmetry number  1.
 Warning -- assumption of classical behavior for rotation
           may cause significant error
 Rotational temperatures (Kelvin)      0.06424     0.01190     0.01137
 Rotational constants (GHZ):           1.33854     0.24793     0.23691
    1 imaginary frequencies ignored.
 Zero-point vibrational energy     529303.3 (Joules/Mol)
                                  126.50653 (Kcal/Mol)
 Warning -- explicit consideration of  17 degrees of freedom as
           vibrations may cause significant error
 Vibrational temperatures:     43.41    49.93    64.09   111.44   150.11
          (Kelvin)            177.55   209.59   228.81   289.65   379.42
                              428.58   530.16   605.88   622.33   672.87
                              761.28   805.87   913.74   942.57   994.81
                             1029.99  1038.45  1077.97  1197.93  1268.08
                             1289.53  1398.39  1431.76  1436.60  1464.36
                             1475.63  1487.55  1511.17  1533.17  1552.94
                             1570.11  1598.32  1702.77  1717.16  1727.30
                             1752.82  1808.44  1910.41  1927.65  1938.09
                             1949.60  2091.51  2135.46  2143.93  2158.81
                             2164.26  2215.29  2362.08  2366.46  2402.10
                             2412.32  4398.15  4506.05  4546.58  4596.16
                             4605.49  4610.96  4620.46  4630.30  4638.16
                             4655.79  5079.77  5202.75

 Zero-point correction=                           0.201601 (Hartree/Particle)
 Thermal correction to Energy=                    0.214881
 Thermal correction to Enthalpy=                  0.215825
 Thermal correction to Gibbs Free Energy=         0.158524
 Sum of electronic and zero-point Energies=          -3092.252247
 Sum of electronic and thermal Energies=             -3092.238967
 Sum of electronic and thermal Enthalpies=           -3092.238023
 Sum of electronic and thermal Free Energies=        -3092.295324

                     E (Thermal)             CV                S
                      KCal/Mol        Cal/Mol-Kelvin    Cal/Mol-Kelvin
 Total                  134.840             47.315            120.599
 Electronic               0.000              0.000              0.000
 Translational            0.889              2.981             42.340
 Rotational               0.889              2.981             32.680
 Vibrational            133.062             41.353             45.579
 Vibration     1          0.594              1.984              5.818
 Vibration     2          0.594              1.983              5.540
 Vibration     3          0.595              1.980              5.046
 Vibration     4          0.599              1.964              3.954
 Vibration     5          0.605              1.946              3.372
 Vibration     6          0.610              1.930              3.046
 Vibration     7          0.617              1.907              2.728
 Vibration     8          0.621              1.892              2.561
 Vibration     9          0.638              1.838              2.121
 Vibration    10          0.670              1.739              1.637
 Vibration    11          0.691              1.678              1.429
 Vibration    12          0.741              1.537              1.086
 Vibration    13          0.784              1.424              0.888
 Vibration    14          0.793              1.399              0.850
 Vibration    15          0.825              1.322              0.744
 Vibration    16          0.884              1.186              0.589
 Vibration    17          0.916              1.118              0.524

 Optimization completed.
    -- Stationary point found.
 Normal termination of Gaussian 16 at Fri Feb 12 16:41:06 2021.
