 Gaussian 16, Revision A.03,
 Gaussian 16:  ES64L-G16RevA.03 25-Dec-2016

 ----------------------------------------------------------------------
 # wB97XD def2tzvp, opt=(ts, noeigen, calcfc, maxcycles=70, maxstep=3),
  freq=noraman, scrf=(iefpcm, solvent=water)
 ----------------------------------------------------------------------

 -----------------------
 0_iteration/TS-38-0.out
 -----------------------
 Symbolic Z-matrix:
 Charge =  0 Multiplicity = 1

 SCF Done:  E(RwB97XD) =  -1343.48844147     A.U. after   15 cycles
 SCF Done:  E(RwB97XD) =  -1343.48844153     A.U. after    7 cycles
 Optimization completed.
    -- Stationary point found.
 Normal termination of Gaussian 16 at Sat Apr 10 10:43:05 2021.

 ---------------------------------------------------------------------
 #N Geom=AllCheck Guess=TCheck SCRF=Check GenChk RwB97XD/def2TZVP Freq
 ---------------------------------------------------------------------

 Structure from the checkpoint file:  "/beegfs/scratch/user/q/tla25/Gau-53807.chk"
 -----------------------
 0_iteration/TS-38-0.out
 -----------------------
 Charge =  0 Multiplicity = 1

                         Standard orientation:
 ---------------------------------------------------------------------
 Center     Atomic      Atomic             Coordinates (Angstroms)
 Number     Number       Type             X           Y           Z
 ---------------------------------------------------------------------
      1          6           0        0.861874   -0.713788   -0.093157
      2          6           0        2.167060   -0.203464    0.266033
      3          8           0        2.293045    0.637251    1.184338
      4          6           0       -0.307314   -0.030834    0.326764
      5          6           0        0.015327   -1.279168    2.829258
      6          1           0        0.324112   -1.134766    3.864517
      7          1           0       -0.878621   -1.897323    2.801721
      8          1           0        0.812476   -1.785539    2.289991
      9          7           0       -0.229569    0.010433    2.184268
     10          1           0       -0.958583    0.534705    2.652808
     11          1           0        0.640647    0.551610    2.195432
     12          6           0       -1.638303   -0.644670   -0.055663
     13          6           0       -2.656475   -0.948186    0.836562
     14          6           0       -3.875408   -1.440182    0.383509
     15          6           0       -4.096960   -1.626888   -0.969130
     16          6           0       -3.088927   -1.311950   -1.872113
     17          6           0       -1.876775   -0.825265   -1.419187
     18          1           0       -2.530374   -0.806844    1.899466
     19          1           0       -4.651934   -1.674077    1.100658
     20          1           0       -5.046574   -2.009496   -1.320582
     21          1           0       -3.248652   -1.445229   -2.934644
     22          1           0       -1.095609   -0.578257   -2.127089
     23          6           0       -0.367444    1.471323    0.052981
     24          6           0       -1.314235    2.274763    0.685573
     25          6           0       -1.420960    3.624215    0.389685
     26          6           0       -0.592997    4.196384   -0.564544
     27          6           0        0.330049    3.400497   -1.225018
     28          6           0        0.436197    2.051446   -0.923019
     29          1           0       -2.005687    1.850336    1.402461
     30          1           0       -2.162308    4.225742    0.900134
     31          1           0       -0.676898    5.249534   -0.800514
     32          1           0        0.971314    3.828011   -1.985565
     33          1           0        1.146030    1.437165   -1.459250
     34         17           0        0.747109   -2.455051   -0.417276
     35          7           0        3.275531   -0.648320   -0.390113
     36          6           0        3.251814   -1.149788   -1.747794
     37          6           0        4.583337   -0.305293    0.122576
     38          1           0        3.519457   -2.208338   -1.796080
     39          1           0        2.263718   -1.017812   -2.180472
     40          1           0        3.969455   -0.584543   -2.348765
     41          1           0        4.541655   -0.198291    1.203060
     42          1           0        5.285124   -1.101045   -0.132658
     43          1           0        4.955146    0.632610   -0.304628
 ---------------------------------------------------------------------

 SCF Done:  E(RwB97XD) =  -1343.48844153     A.U. after    1 cycles

 The electronic state is 1-A.
 Alpha  occ. eigenvalues -- -101.67947 -19.20315 -14.48418 -14.45213 -10.37569
 Alpha  occ. eigenvalues --  -10.36442 -10.31504 -10.31044 -10.30864 -10.30456
 Alpha  occ. eigenvalues --  -10.30227 -10.29529 -10.29462 -10.29452 -10.29256
 Alpha  occ. eigenvalues --  -10.29226 -10.29212 -10.29150 -10.29126 -10.29074
 Alpha  occ. eigenvalues --  -10.29062 -10.29022  -9.56469  -7.31090  -7.30271
 Alpha  occ. eigenvalues --   -7.30247  -1.12867  -1.04375  -1.02637  -0.98274
 Alpha  occ. eigenvalues --   -0.96642  -0.94785  -0.89870  -0.85637  -0.85339
 Alpha  occ. eigenvalues --   -0.85240  -0.82236  -0.81059  -0.79480  -0.78314
 Alpha  occ. eigenvalues --   -0.73141  -0.71099  -0.70286  -0.70027  -0.66800
 Alpha  occ. eigenvalues --   -0.64721  -0.62568  -0.61566  -0.59883  -0.58024
 Alpha  occ. eigenvalues --   -0.57194  -0.56334  -0.55961  -0.55446  -0.55134
 Alpha  occ. eigenvalues --   -0.54320  -0.53659  -0.52508  -0.51522  -0.51022
 Alpha  occ. eigenvalues --   -0.50832  -0.50718  -0.48537  -0.48289  -0.47966
 Alpha  occ. eigenvalues --   -0.47657  -0.47149  -0.46477  -0.46368  -0.45641
 Alpha  occ. eigenvalues --   -0.44844  -0.43786  -0.42984  -0.42330  -0.42156
 Alpha  occ. eigenvalues --   -0.40751  -0.39019  -0.35211  -0.34396  -0.33959
 Alpha  occ. eigenvalues --   -0.33617  -0.32013  -0.31547  -0.25814
 Alpha virt. eigenvalues --    0.02752   0.04335   0.05282   0.06093   0.07448
 Alpha virt. eigenvalues --    0.10152   0.11581   0.11876   0.13579   0.13776
 Alpha virt. eigenvalues --    0.14758   0.15387   0.15768   0.16028   0.16608

 Mulliken charges:
               1
     1  C   -0.431983
     2  C    0.281691
     3  O   -0.584014
     4  C    0.579479
     5  C   -0.292828
     6  H    0.156168
     7  H    0.147805
     8  H    0.157079
     9  N   -0.306792
    10  H    0.271747
    11  H    0.284238
    12  C    0.144640
    13  C   -0.269723
    14  C   -0.164376
    15  C   -0.147158
    16  C   -0.124232
    17  C   -0.296518
    18  H    0.158051
    19  H    0.142815
    20  H    0.144058
    21  H    0.142116
    22  H    0.160601
    23  C    0.102362
    24  C   -0.260341
    25  C   -0.178006
    26  C   -0.135110
    27  C   -0.161225
    28  C   -0.225500
    29  H    0.153978
    30  H    0.142553
    31  H    0.143867
    32  H    0.139781
    33  H    0.168911
    34  Cl  -0.192622
    35  N   -0.094487
    36  C   -0.301632
    37  C   -0.294727
    38  H    0.139065
    39  H    0.157419
    40  H    0.135195
    41  H    0.138060
    42  H    0.138190
    43  H    0.131408
 Sum of Mulliken charges =  -0.00000

 Dipole moment (field-independent basis, Debye):
    X=             -2.6995    Y=              0.9871    Z=              2.1835  Tot=              3.6096
 Quadrupole moment (field-independent basis, Debye-Ang):
   XX=           -125.0185   YY=           -139.4491   ZZ=           -119.0554
   XY=             -2.4622   XZ=            -13.3717   YZ=             -3.6331

  Exact polarizability: 363.944   9.667 325.206 -37.024   6.720 317.504
 Approx polarizability: 281.290   6.451 262.089 -29.336   7.743 275.092

 ******    1 imaginary frequencies (negative Signs) ******

                      1                      2                      3
                      A                      A                      A
 Frequencies --   -373.8971                38.2986                48.6856
 Red. masses --      5.2629                 3.8443                 3.8247
 Frc consts  --      0.4335                 0.0033                 0.0053
 IR Inten    --    606.6622                 0.4817                 1.3642

                      4                      5                      6
                      A                      A                      A
 Frequencies --     56.4206                60.7086                69.9676
 Red. masses --      4.2043                 4.9806                 4.3718
 Frc consts  --      0.0079                 0.0108                 0.0126
 IR Inten    --      1.6902                 0.9610                 2.4349

                      7                      8                      9
                      A                      A                      A
 Frequencies --     81.2580               114.3890               123.7248
 Red. masses --      3.9684                 3.2896                 2.1716
 Frc consts  --      0.0154                 0.0254                 0.0196
 IR Inten    --      1.4483                 1.6752                 4.1814

                     10                     11                     12
                      A                      A                      A
 Frequencies --    131.0772               145.5454               158.9126
 Red. masses --      1.4563                 2.6123                 5.0973
 Frc consts  --      0.0147                 0.0326                 0.0758
 IR Inten    --      1.5200                 1.5394                16.5368

                     13                     14                     15
                      A                      A                      A
 Frequencies --    175.2786               176.5366               206.3038
 Red. masses --      1.4587                 1.5785                 3.0588
 Frc consts  --      0.0264                 0.0290                 0.0767
 IR Inten    --      3.8864                 9.5079                16.4629

                     16                     17                     18
                      A                      A                      A
 Frequencies --    222.6564               231.1902               251.7462
 Red. masses --      2.6047                 6.3047                 3.6682
 Frc consts  --      0.0761                 0.1985                 0.1370
 IR Inten    --      3.7729                 3.0382                14.2202

                     19                     20                     21
                      A                      A                      A
 Frequencies --    262.3359               266.2153               273.2980
 Red. masses --      2.9210                 4.5559                 2.8330
 Frc consts  --      0.1184                 0.1902                 0.1247
 IR Inten    --     11.9029                 1.4240                 5.0401

                     22                     23                     24
                      A                      A                      A
 Frequencies --    303.9840               323.7264               335.8850
 Red. masses --      3.8011                 4.3368                 5.0317
 Frc consts  --      0.2069                 0.2678                 0.3345
 IR Inten    --     12.3259                10.0633                 8.0845

                     25                     26                     27
                      A                      A                      A
 Frequencies --    393.9218               423.1254               424.3388
 Red. masses --      3.8986                 2.9090                 2.9454
 Frc consts  --      0.3564                 0.3069                 0.3125
 IR Inten    --     60.9077                 0.4860                 1.6060

                     28                     29                     30
                      A                      A                      A
 Frequencies --    429.7749               487.6183               502.6262
 Red. masses --      3.4241                 4.2950                 4.6018
 Frc consts  --      0.3726                 0.6017                 0.6850
 IR Inten    --      6.4185                 8.8395                 2.4527

                     31                     32                     33
                      A                      A                      A
 Frequencies --    538.7922               606.9543               631.8347
 Red. masses --      3.6465                 3.7026                 6.2977
 Frc consts  --      0.6237                 0.8037                 1.4813
 IR Inten    --      6.7874               128.5822                27.6679

                     34                     35                     36
                      A                      A                      A
 Frequencies --    637.6465               650.2909               655.8732
 Red. masses --      6.3687                 5.4323                 5.6695
 Frc consts  --      1.5257                 1.3535                 1.4369
 IR Inten    --      0.4503                48.9602               120.5673

                     37                     38                     39
                      A                      A                      A
 Frequencies --    681.2402               724.2557               725.3967
 Red. masses --      5.6570                 1.8461                 1.6902
 Frc consts  --      1.5468                 0.5705                 0.5240
 IR Inten    --      5.3160                51.4613                82.0533

                     40                     41                     42
                      A                      A                      A
 Frequencies --    730.6350               777.8261               791.5075
 Red. masses --      1.6935                 2.1541                 2.6102
 Frc consts  --      0.5327                 0.7679                 0.9634
 IR Inten    --    151.1875                36.5889                75.5516

                     43                     44                     45
                      A                      A                      A
 Frequencies --    792.9594               840.2887               873.9142
 Red. masses --      4.3064                 3.2117                 1.2554
 Frc consts  --      1.5954                 1.3361                 0.5649
 IR Inten    --     47.6565                 6.0130                 0.2563

                     46                     47                     48
                      A                      A                      A
 Frequencies --    876.5727               887.6134               952.0462
 Red. masses --      1.2781                 4.5423                 1.5459
 Frc consts  --      0.5786                 2.1085                 0.8256
 IR Inten    --      1.8021                18.6709                 3.6073

                     49                     50                     51
                      A                      A                      A
 Frequencies --    961.8784               980.5615              1010.8801
 Red. masses --      1.5209                 2.9774                 1.3582
 Frc consts  --      0.8291                 1.6867                 0.8177
 IR Inten    --     10.7312                12.7301                 7.4701

                     52                     53                     54
                      A                      A                      A
 Frequencies --   1014.1435              1022.6428              1026.1439
 Red. masses --      1.3668                 1.8822                 4.8938
 Frc consts  --      0.8282                 1.1597                 3.0361
 IR Inten    --      8.6707                29.9022                 1.0983

                     55                     56                     57
                      A                      A                      A
 Frequencies --   1028.0989              1030.1283              1031.7558
 Red. masses --      2.0295                 1.3136                 1.3892
 Frc consts  --      1.2639                 0.8213                 0.8713
 IR Inten    --     17.8385                 2.6815                18.2201

                     58                     59                     60
                      A                      A                      A
 Frequencies --   1057.8182              1066.0401              1071.0223
 Red. masses --      3.0150                 2.3023                 2.1978
 Frc consts  --      1.9877                 1.5415                 1.4854
 IR Inten    --     91.1678                13.9612                49.5776

                     61                     62                     63
                      A                      A                      A
 Frequencies --   1078.2841              1089.0863              1121.1673
 Red. masses --      3.0873                 1.3741                 1.5623
 Frc consts  --      2.1149                 0.9602                 1.1571
 IR Inten    --     11.0684                16.8161                 0.5994

                     64                     65                     66
                      A                      A                      A
 Frequencies --   1124.2274              1129.7259              1133.5458
 Red. masses --      1.5953                 1.3584                 1.2306
 Frc consts  --      1.1880                 1.0215                 0.9316
 IR Inten    --      2.2271                71.5677                 1.2230

                     67                     68                     69
                      A                      A                      A
 Frequencies --   1166.7530              1171.3853              1184.4827
 Red. masses --      1.8533                 1.9656                 1.1255
 Frc consts  --      1.4865                 1.5891                 0.9304
 IR Inten    --      3.1937                15.1863                 0.0446

                     70                     71                     72
                      A                      A                      A
 Frequencies --   1185.5632              1217.1069              1219.4152
 Red. masses --      1.1322                 1.1235                 1.1407
 Frc consts  --      0.9376                 0.9806                 0.9993
 IR Inten    --      0.1433                 2.1556                 8.4079

                     73                     74                     75
                      A                      A                      A
 Frequencies --   1237.8740              1255.8363              1272.2276
 Red. masses --      3.1449                 3.3527                 1.5877
 Frc consts  --      2.8393                 3.1154                 1.5141
 IR Inten    --    271.5748                 8.0405                77.6159

                     76                     77                     78
                      A                      A                      A
 Frequencies --   1313.9826              1319.6938              1323.1191
 Red. masses --      5.1331                 4.3123                 4.6239
 Frc consts  --      5.2217                 4.4249                 4.7693
 IR Inten    --      6.0325                 2.6347                53.5879

                     79                     80                     81
                      A                      A                      A
 Frequencies --   1358.1720              1362.8211              1377.2486
 Red. masses --      1.6558                 1.5850                 1.6304
 Frc consts  --      1.7996                 1.7344                 1.8221
 IR Inten    --     82.3394                48.8556               166.4273

                     82                     83                     84
                      A                      A                      A
 Frequencies --   1393.1760              1432.2674              1445.0539
 Red. masses --      1.8800                 2.0242                 1.1683
 Frc consts  --      2.1499                 2.4466                 1.4374
 IR Inten    --    426.1004               285.7626                17.0529

                     85                     86                     87
                      A                      A                      A
 Frequencies --   1465.6124              1474.2177              1484.6338
 Red. masses --      1.2042                 1.2394                 1.1100
 Frc consts  --      1.5241                 1.5871                 1.4414
 IR Inten    --      1.5916               108.6164                22.5697

                     88                     89                     90
                      A                      A                      A
 Frequencies --   1485.2913              1488.1133              1493.2808
 Red. masses --      1.0509                 2.1834                 2.1964
 Frc consts  --      1.3659                 2.8488                 2.8857
 IR Inten    --     19.1473                 5.1231                47.6414

                     91                     92                     93
                      A                      A                      A
 Frequencies --   1493.8943              1502.2883              1504.8042
 Red. masses --      1.0437                 1.0535                 1.0349
 Frc consts  --      1.3723                 1.4008                 1.3808
 IR Inten    --     17.3454                13.4388                11.4902

                     94                     95                     96
                      A                      A                      A
 Frequencies --   1529.9549              1541.5442              1544.7501
 Red. masses --      1.7253                 2.2288                 2.2986
 Frc consts  --      2.3794                 3.1205                 3.2318
 IR Inten    --    276.1537                30.7569                 9.5060

                     97                     98                     99
                      A                      A                      A
 Frequencies --   1584.1915              1641.0361              1651.9265
 Red. masses --      2.7641                 1.3541                 5.4892
 Frc consts  --      4.0872                 2.1486                 8.8255
 IR Inten    --    694.5403                17.2056                 1.1727

                    100                    101                    102
                      A                      A                      A
 Frequencies --   1655.3939              1672.5299              1677.5153
 Red. masses --      5.0243                 5.9130                 5.9020
 Frc consts  --      8.1120                 9.7456                 9.7856
 IR Inten    --      1.2558                 8.1576                 2.8765

                    103                    104                    105
                      A                      A                      A
 Frequencies --   3025.0959              3036.5094              3078.2964
 Red. masses --      1.0464                 1.0382                 1.0353
 Frc consts  --      5.6417                 5.6402                 5.7802
 IR Inten    --     99.5391               122.7892                45.3858

                    106                    107                    108
                      A                      A                      A
 Frequencies --   3090.6517              3100.4596              3157.7104
 Red. masses --      1.1019                 1.0950                 1.1025
 Frc consts  --      6.2014                 6.2015                 6.4771
 IR Inten    --     75.1273                24.7064                16.6742

                    109                    110                    111
                      A                      A                      A
 Frequencies --   3166.8788              3170.9231              3181.8045
 Red. masses --      1.0991                 1.0996                 1.1051
 Frc consts  --      6.4944                 6.5142                 6.5917
 IR Inten    --     13.1115                12.6877                14.6791

                    112                    113                    114
                      A                      A                      A
 Frequencies --   3195.2043              3196.6123              3201.5782
 Red. masses --      1.0857                 1.0860                 1.0887
 Frc consts  --      6.5309                 6.5382                 6.5746
 IR Inten    --      2.6529                 1.1071                 3.7772

                    115                    116                    117
                      A                      A                      A
 Frequencies --   3204.1619              3210.7773              3212.8383
 Red. masses --      1.0890                 1.0929                 1.0936
 Frc consts  --      6.5874                 6.6381                 6.6511
 IR Inten    --      4.2434                29.9442                23.9720

                    118                    119                    120
                      A                      A                      A
 Frequencies --   3221.2453              3222.5126              3229.8689
 Red. masses --      1.0967                 1.0978                 1.0944
 Frc consts  --      6.7045                 6.7166                 6.7264
 IR Inten    --     24.6106                24.7613                 9.1500

                    121                    122                    123
                      A                      A                      A
 Frequencies --   3242.3292              3358.8696              3578.2324
 Red. masses --      1.0923                 1.0675                 1.0819
 Frc consts  --      6.7655                 7.0961                 8.1613
 IR Inten    --     16.5622               204.9568                52.8746

 - Thermochemistry -
 -------------------
 Temperature   298.150 Kelvin.  Pressure   1.00000 Atm.
 Atom     1 has atomic number  6 and mass  12.00000

 Molecular mass:   316.13424 amu.
 Principal axes and moments of inertia in atomic units:
                           1         2         3
     Eigenvalues --  5538.654137290.322419655.89007
           X            0.99990  -0.00071  -0.01428
           Y            0.00055   0.99994  -0.01128
           Z            0.01428   0.01127   0.99983
 This molecule is an asymmetric top.
 Rotational symmetry number  1.
 Warning -- assumption of classical behavior for rotation
           may cause significant error
 Rotational temperatures (Kelvin)      0.01564     0.01188     0.00897
 Rotational constants (GHZ):           0.32584     0.24755     0.18691
    1 imaginary frequencies ignored.
 Zero-point vibrational energy     940755.7 (Joules/Mol)
                                  224.84600 (Kcal/Mol)
 Warning -- explicit consideration of  31 degrees of freedom as
           vibrations may cause significant error
 Vibrational temperatures:     55.10    70.05    81.18    87.35   100.67
          (Kelvin)            116.91   164.58   178.01   188.59   209.41
                              228.64   252.19   254.00   296.83   320.35
                              332.63   362.21   377.44   383.02   393.21
                              437.37   465.77   483.26   566.77   608.78
                              610.53   618.35   701.57   723.17   775.20
                              873.27   909.07   917.43   935.62   943.66
                              980.15  1042.04  1043.68  1051.22  1119.12
                             1138.80  1140.89  1208.99  1257.37  1261.19
                             1277.08  1369.78  1383.93  1410.81  1454.43
                             1459.13  1471.35  1476.39  1479.20  1482.12
                             1484.47  1521.96  1533.79  1540.96  1551.41
                             1566.95  1613.11  1617.51  1625.42  1630.92
                             1678.70  1685.36  1704.21  1705.76  1751.15
                             1754.47  1781.02  1806.87  1830.45  1890.53
                             1898.75  1903.67  1954.11  1960.80  1981.55
                             2004.47  2060.71  2079.11  2108.69  2121.07
                             2136.06  2137.00  2141.06  2148.50  2149.38
                             2161.46  2165.08  2201.26  2217.94  2222.55
                             2279.30  2361.08  2376.75  2381.74  2406.40
                             2413.57  4352.44  4368.86  4428.98  4446.76
                             4460.87  4543.24  4556.43  4562.25  4577.91
                             4597.19  4599.21  4606.36  4610.07  4619.59
                             4622.56  4634.65  4636.48  4647.06  4664.99
                             4832.66  5148.28

 Zero-point correction=                           0.358315 (Hartree/Particle)
 Thermal correction to Energy=                    0.379576
 Thermal correction to Enthalpy=                  0.380521
 Thermal correction to Gibbs Free Energy=         0.308109
 Sum of electronic and zero-point Energies=          -1343.130127
 Sum of electronic and thermal Energies=             -1343.108865
 Sum of electronic and thermal Enthalpies=           -1343.107921
 Sum of electronic and thermal Free Energies=        -1343.180333

                     E (Thermal)             CV                S
                      KCal/Mol        Cal/Mol-Kelvin    Cal/Mol-Kelvin
 Total                  238.188             80.294            152.403
 Electronic               0.000              0.000              0.000
 Translational            0.889              2.981             43.149
 Rotational               0.889              2.981             34.321
 Vibrational            236.410             74.332             74.933
 Vibration     1          0.594              1.982              5.345
 Vibration     2          0.595              1.978              4.870
 Vibration     3          0.596              1.975              4.579
 Vibration     4          0.597              1.973              4.434
 Vibration     5          0.598              1.968              4.154
 Vibration     6          0.600              1.962              3.860
 Vibration     7          0.607              1.938              3.193
 Vibration     8          0.610              1.929              3.041
 Vibration     9          0.612              1.922              2.930
 Vibration    10          0.617              1.907              2.730
 Vibration    11          0.621              1.893              2.563
 Vibration    12          0.627              1.873              2.378
 Vibration    13          0.628              1.871              2.365
 Vibration    14          0.641              1.831              2.076
 Vibration    15          0.648              1.807              1.937
 Vibration    16          0.653              1.793              1.870
 Vibration    17          0.664              1.760              1.718
 Vibration    18          0.670              1.742              1.646
 Vibration    19          0.672              1.735              1.621
 Vibration    20          0.676              1.723              1.575
 Vibration    21          0.695              1.666              1.395
 Vibration    22          0.708              1.628              1.291
 Vibration    23          0.717              1.604              1.232
 Vibration    24          0.761              1.483              0.985
 Vibration    25          0.785              1.420              0.881
 Vibration    26          0.786              1.417              0.877
 Vibration    27          0.791              1.405              0.859
 Vibration    28          0.844              1.277              0.690
 Vibration    29          0.858              1.244              0.652
 Vibration    30          0.894              1.164              0.568
 Vibration    31          0.966              1.017              0.438

 Optimization completed.
    -- Stationary point found.
 Normal termination of Gaussian 16 at Sat Apr 10 12:22:36 2021.
