 Gaussian 16, Revision A.03,
 Gaussian 16:  ES64L-G16RevA.03 25-Dec-2016

 ----------------------------------------------------------------------
 # wB97XD def2tzvp, opt=(ts, noeigen, calcfc, maxcycles=70, maxstep=8),
  freq=noraman, scrf=(iefpcm, solvent=water)
 ----------------------------------------------------------------------

 ------------------------
 0_iteration/TS-388-0.out
 ------------------------
 Symbolic Z-matrix:
 Charge =  0 Multiplicity = 1

 SCF Done:  E(RwB97XD) =  -3435.54845644     A.U. after   15 cycles
 SCF Done:  E(RwB97XD) =  -3435.54769976     A.U. after   13 cycles
 SCF Done:  E(RwB97XD) =  -3435.54728762     A.U. after   13 cycles
 SCF Done:  E(RwB97XD) =  -3435.54796018     A.U. after   14 cycles
 SCF Done:  E(RwB97XD) =  -3435.55051434     A.U. after   14 cycles
 SCF Done:  E(RwB97XD) =  -3435.55220285     A.U. after   13 cycles
 SCF Done:  E(RwB97XD) =  -3435.55428171     A.U. after   13 cycles
 SCF Done:  E(RwB97XD) =  -3435.55644013     A.U. after   13 cycles
 SCF Done:  E(RwB97XD) =  -3435.55862658     A.U. after   12 cycles
 SCF Done:  E(RwB97XD) =  -3435.56099806     A.U. after   12 cycles
 SCF Done:  E(RwB97XD) =  -3435.56615657     A.U. after   12 cycles
 SCF Done:  E(RwB97XD) =  -3435.56617273     A.U. after   12 cycles
 SCF Done:  E(RwB97XD) =  -3435.56628768     A.U. after   12 cycles
 SCF Done:  E(RwB97XD) =  -3435.56628169     A.U. after   12 cycles
 SCF Done:  E(RwB97XD) =  -3435.56629542     A.U. after   11 cycles
 SCF Done:  E(RwB97XD) =  -3435.56629512     A.U. after   10 cycles
 SCF Done:  E(RwB97XD) =  -3435.56629534     A.U. after    9 cycles
 SCF Done:  E(RwB97XD) =  -3435.56629528     A.U. after    9 cycles
 SCF Done:  E(RwB97XD) =  -3435.56629534     A.U. after    8 cycles
 Optimization completed.
    -- Stationary point found.
 Normal termination of Gaussian 16 at Fri Feb 12 14:23:38 2021.

 ---------------------------------------------------------------------
 #N Geom=AllCheck Guess=TCheck SCRF=Check GenChk RwB97XD/def2TZVP Freq
 ---------------------------------------------------------------------

 Structure from the checkpoint file:  "/beegfs/scratch/user/q/tla25/Gau-11178.chk"
 ------------------------
 0_iteration/TS-388-0.out
 ------------------------
 Charge =  0 Multiplicity = 1

                         Standard orientation:
 ---------------------------------------------------------------------
 Center     Atomic      Atomic             Coordinates (Angstroms)
 Number     Number       Type             X           Y           Z
 ---------------------------------------------------------------------
      1          6           0       -0.273714   -0.122185   -0.316681
      2          6           0        0.404126   -1.341078    0.061731
      3          8           0       -0.112050   -2.433830    0.188284
      4          6           0        0.278435    1.102785   -0.598739
      5          6           0       -0.041881    1.820341    2.160237
      6          1           0        0.366904    2.145509    3.117546
      7          1           0       -0.965412    2.360481    1.961020
      8          1           0       -0.265425    0.754286    2.215945
      9          7           0        0.891569    2.041303    1.065791
     10          1           0        1.030006    3.024319    0.864832
     11          1           0        1.795240    1.624564    1.255167
     12          1           0       -0.396885    1.897152   -0.878552
     13         17           0        1.792092    1.269442   -1.481580
     14         35           0       -2.178579   -0.184825   -0.241407
     15          8           0        1.711945   -1.134812    0.301542
     16          6           0        2.484317   -2.286964    0.626126
     17          1           0        3.503093   -1.931209    0.753427
     18          1           0        2.128060   -2.742880    1.549627
     19          1           0        2.441312   -3.021246   -0.178078
 ---------------------------------------------------------------------

 SCF Done:  E(RwB97XD) =  -3435.56629534     A.U. after    1 cycles

 The electronic state is 1-A.
 Alpha  occ. eigenvalues -- -483.12740-101.70447 -62.67571 -56.46689 -56.46332
 Alpha  occ. eigenvalues --  -56.46325 -19.29316 -19.22617 -14.47764 -10.41383
 Alpha  occ. eigenvalues --  -10.39654 -10.33137 -10.32096 -10.31537  -9.59021
 Alpha  occ. eigenvalues --   -8.81685  -7.33682  -7.32804  -7.32752  -6.63842
 Alpha  occ. eigenvalues --   -6.62700  -6.62676  -2.74230  -2.73898  -2.73879
 Alpha  occ. eigenvalues --   -2.72955  -2.72955  -1.20946  -1.11409  -1.03558
 Alpha  occ. eigenvalues --   -0.97976  -0.91950  -0.84576  -0.80454  -0.78601
 Alpha  occ. eigenvalues --   -0.72730  -0.64670  -0.62953  -0.59436  -0.57962
 Alpha  occ. eigenvalues --   -0.57486  -0.56688  -0.54198  -0.53833  -0.51828
 Alpha  occ. eigenvalues --   -0.48943  -0.47796  -0.46792  -0.45805  -0.44805
 Alpha  occ. eigenvalues --   -0.40590  -0.40159  -0.38768  -0.38329  -0.37550
 Alpha  occ. eigenvalues --   -0.36214  -0.28649
 Alpha virt. eigenvalues --    0.02687   0.06672   0.09482   0.11328   0.13228
 Alpha virt. eigenvalues --    0.14336   0.15665   0.16592   0.17404   0.17885
 Alpha virt. eigenvalues --    0.19299   0.20319   0.20613   0.21141   0.22178

 Mulliken charges:
               1
     1  C   -0.243812
     2  C    0.408198
     3  O   -0.467790
     4  C    0.027574
     5  C   -0.282985
     6  H    0.154032
     7  H    0.156094
     8  H    0.149143
     9  N   -0.379765
    10  H    0.287465
    11  H    0.279774
    12  H    0.198513
    13  Cl  -0.092192
    14  Br  -0.116813
    15  O   -0.290509
    16  C   -0.195292
    17  H    0.142247
    18  H    0.132627
    19  H    0.133492
 Sum of Mulliken charges =  -0.00000

 Dipole moment (field-independent basis, Debye):
    X=              4.5084    Y=              7.3444    Z=              3.9352  Tot=              9.4738
 Quadrupole moment (field-independent basis, Debye-Ang):
   XX=            -75.5601   YY=            -73.4191   ZZ=            -75.0301
   XY=             -4.8124   XZ=              4.5895   YZ=              5.6603

  Exact polarizability: 166.948  14.898 170.168  -3.404   5.397 128.950
 Approx polarizability: 136.123  12.257 137.470  -3.181   1.943 108.785

 ******    1 imaginary frequencies (negative Signs) ******

                      1                      2                      3
                      A                      A                      A
 Frequencies --   -348.0082                44.5065                61.9529
 Red. masses --      5.9780                 3.3882                 3.3789
 Frc consts  --      0.4266                 0.0040                 0.0076
 IR Inten    --    762.2400                 0.7707                 5.7354

                      4                      5                      6
                      A                      A                      A
 Frequencies --     76.7671                98.8589               111.2276
 Red. masses --      3.0892                 4.2202                 4.3322
 Frc consts  --      0.0107                 0.0243                 0.0316
 IR Inten    --     11.8560                 5.5125                 2.8330

                      7                      8                      9
                      A                      A                      A
 Frequencies --    150.9040               168.2350               178.8499
 Red. masses --      1.4587                 3.1121                 1.8508
 Frc consts  --      0.0196                 0.0519                 0.0349
 IR Inten    --      4.0323                 1.9471                 5.7314

                     10                     11                     12
                      A                      A                      A
 Frequencies --    186.3919               214.4172               267.8617
 Red. masses --      2.0227                 5.9455                 4.1657
 Frc consts  --      0.0414                 0.1610                 0.1761
 IR Inten    --      4.1282                 5.5911                13.0367

                     13                     14                     15
                      A                      A                      A
 Frequencies --    291.2928               328.3968               382.0639
 Red. masses --      5.3632                 9.4247                 4.9114
 Frc consts  --      0.2681                 0.5988                 0.4224
 IR Inten    --     16.4431                38.3595                24.9309

                     16                     17                     18
                      A                      A                      A
 Frequencies --    437.2105               573.5650               672.1809
 Red. masses --      4.2670                 2.3286                 2.3754
 Frc consts  --      0.4806                 0.4513                 0.6324
 IR Inten    --     63.5102                15.5778                20.5575

                     19                     20                     21
                      A                      A                      A
 Frequencies --    764.0807               788.5868               823.8408
 Red. masses --      8.4138                11.3038                 5.4879
 Frc consts  --      2.8941                 4.1416                 2.1945
 IR Inten    --    201.7556                58.5343                14.0947

                     22                     23                     24
                      A                      A                      A
 Frequencies --    925.7939               988.5457              1008.0046
 Red. masses --      5.2615                 1.0961                 1.0979
 Frc consts  --      2.6570                 0.6311                 0.6573
 IR Inten    --     14.1513                78.2125                44.8228

                     25                     26                     27
                      A                      A                      A
 Frequencies --   1077.0877              1094.7186              1105.7371
 Red. masses --      1.8656                 2.3896                 2.9200
 Frc consts  --      1.2752                 1.6873                 2.1035
 IR Inten    --     83.7261                27.2254               165.0414

                     28                     29                     30
                      A                      A                      A
 Frequencies --   1180.7437              1203.2260              1214.9916
 Red. masses --      1.2806                 1.4200                 1.4771
 Frc consts  --      1.0519                 1.2112                 1.2847
 IR Inten    --      1.4723                22.7934                 9.9757

                     31                     32                     33
                      A                      A                      A
 Frequencies --   1242.5024              1342.0628              1357.6468
 Red. masses --      2.1625                 1.3543                 2.0595
 Frc consts  --      1.9669                 1.4372                 2.2366
 IR Inten    --    399.2891                22.0269               319.8550

                     34                     35                     36
                      A                      A                      A
 Frequencies --   1447.2666              1474.7600              1479.4108
 Red. masses --      1.9433                 1.9194                 1.2377
 Frc consts  --      2.3982                 2.4596                 1.5960
 IR Inten    --    405.8293               208.8613               108.7397

                     37                     38                     39
                      A                      A                      A
 Frequencies --   1481.7408              1490.1931              1496.0663
 Red. masses --      1.0451                 1.0396                 1.0904
 Frc consts  --      1.3520                 1.3603                 1.4379
 IR Inten    --     12.8387                19.4709                54.0977

                     40                     41                     42
                      A                      A                      A
 Frequencies --   1504.9359              1643.2483              1724.0509
 Red. masses --      1.0358                 1.0915                11.6438
 Frc consts  --      1.3821                 1.7366                20.3913
 IR Inten    --     17.6387                61.7432               918.1936

                     43                     44                     45
                      A                      A                      A
 Frequencies --   3063.2932              3067.3857              3136.2878
 Red. masses --      1.0334                 1.0305                 1.1046
 Frc consts  --      5.7136                 5.7129                 6.4013
 IR Inten    --     33.5026                52.4593                16.9706

                     46                     47                     48
                      A                      A                      A
 Frequencies --   3145.8532              3162.3576              3179.1873
 Red. masses --      1.1071                 1.1050                 1.1059
 Frc consts  --      6.4552                 6.5109                 6.5854
 IR Inten    --     32.5740                17.3726                19.7104

                     49                     50                     51
                      A                      A                      A
 Frequencies --   3235.7730              3529.7778              3616.2276
 Red. masses --      1.0923                 1.0501                 1.0968
 Frc consts  --      6.7381                 7.7090                 8.4510
 IR Inten    --      2.0034                50.0602                47.4379

 - Thermochemistry -
 -------------------
 Temperature   298.150 Kelvin.  Pressure   1.00000 Atm.
 Atom     1 has atomic number  6 and mass  12.00000

 Molecular mass:   228.95052 amu.
 Principal axes and moments of inertia in atomic units:
                           1         2         3
     Eigenvalues --  2162.947512996.455363811.83726
           X            0.99547  -0.09419   0.01310
           Y            0.09338   0.99423   0.05273
           Z           -0.01799  -0.05127   0.99852
 This molecule is an asymmetric top.
 Rotational symmetry number  1.
 Warning -- assumption of classical behavior for rotation
           may cause significant error
 Rotational temperatures (Kelvin)      0.04004     0.02891     0.02272
 Rotational constants (GHZ):           0.83439     0.60229     0.47346
    1 imaginary frequencies ignored.
 Zero-point vibrational energy     378259.6 (Joules/Mol)
                                   90.40622 (Kcal/Mol)
 Warning -- explicit consideration of  16 degrees of freedom as
           vibrations may cause significant error
 Vibrational temperatures:     64.03    89.14   110.45   142.24   160.03
          (Kelvin)            217.12   242.05   257.33   268.18   308.50
                              385.39   419.11   472.49   549.70   629.05
                              825.23   967.12  1099.34  1134.60  1185.32
                             1332.01  1422.30  1450.29  1549.69  1575.06
                             1590.91  1698.83  1731.17  1748.10  1787.68
                             1930.93  1953.35  2082.29  2121.85  2128.54
                             2131.89  2144.06  2152.51  2165.27  2364.27
                             2480.52  4407.40  4413.28  4512.42  4526.18
                             4549.93  4574.14  4655.56  5078.56  5202.94

 Zero-point correction=                           0.144071 (Hartree/Particle)
 Thermal correction to Energy=                    0.156509
 Thermal correction to Enthalpy=                  0.157453
 Thermal correction to Gibbs Free Energy=         0.103224
 Sum of electronic and zero-point Energies=          -3435.422224
 Sum of electronic and thermal Energies=             -3435.409787
 Sum of electronic and thermal Enthalpies=           -3435.408843
 Sum of electronic and thermal Free Energies=        -3435.463072

                     E (Thermal)             CV                S
                      KCal/Mol        Cal/Mol-Kelvin    Cal/Mol-Kelvin
 Total                   98.211             40.769            114.135
 Electronic               0.000              0.000              0.000
 Translational            0.889              2.981             42.187
 Rotational               0.889              2.981             31.580
 Vibrational             96.433             34.808             40.367
 Vibration     1          0.595              1.980              5.048
 Vibration     2          0.597              1.972              4.394
 Vibration     3          0.599              1.965              3.972
 Vibration     4          0.604              1.950              3.477
 Vibration     5          0.607              1.940              3.247
 Vibration     6          0.618              1.902              2.661
 Vibration     7          0.625              1.882              2.455
 Vibration     8          0.629              1.868              2.340
 Vibration     9          0.632              1.858              2.263
 Vibration    10          0.644              1.819              2.006
 Vibration    11          0.673              1.732              1.610
 Vibration    12          0.687              1.690              1.466
 Vibration    13          0.712              1.619              1.268
 Vibration    14          0.752              1.508              1.031
 Vibration    15          0.798              1.389              0.835
 Vibration    16          0.930              1.088              0.497

 Optimization completed.
    -- Stationary point found.
 Normal termination of Gaussian 16 at Fri Feb 12 14:35:22 2021.
