 Gaussian 16, Revision A.03,
 Gaussian 16:  ES64L-G16RevA.03 25-Dec-2016

 ----------------------------------------------------------------------
 # wB97XD def2tzvp, opt=(ts, noeigen, calcfc, maxcycles=70, maxstep=8),
  freq=noraman, scrf=(iefpcm, solvent=water)
 ----------------------------------------------------------------------

 ------------------------
 0_iteration/TS-399-0.out
 ------------------------
 Symbolic Z-matrix:
 Charge =  0 Multiplicity = 1

 SCF Done:  E(RwB97XD) =  -1493.43271924     A.U. after   15 cycles
 SCF Done:  E(RwB97XD) =  -1493.43240596     A.U. after   12 cycles
 SCF Done:  E(RwB97XD) =  -1493.43245268     A.U. after   12 cycles
 SCF Done:  E(RwB97XD) =  -1493.43282568     A.U. after   12 cycles
 SCF Done:  E(RwB97XD) =  -1493.43354006     A.U. after   12 cycles
 SCF Done:  E(RwB97XD) =  -1493.43409654     A.U. after   12 cycles
 SCF Done:  E(RwB97XD) =  -1493.43433592     A.U. after   12 cycles
 SCF Done:  E(RwB97XD) =  -1493.43437379     A.U. after   10 cycles
 SCF Done:  E(RwB97XD) =  -1493.43437544     A.U. after   10 cycles
 SCF Done:  E(RwB97XD) =  -1493.43437737     A.U. after    8 cycles
 SCF Done:  E(RwB97XD) =  -1493.43437849     A.U. after    7 cycles
 SCF Done:  E(RwB97XD) =  -1493.43437862     A.U. after    9 cycles
 SCF Done:  E(RwB97XD) =  -1493.43437894     A.U. after    9 cycles
 SCF Done:  E(RwB97XD) =  -1493.43436597     A.U. after   11 cycles
 SCF Done:  E(RwB97XD) =  -1493.43437961     A.U. after   11 cycles
 SCF Done:  E(RwB97XD) =  -1493.43438008     A.U. after    9 cycles
 SCF Done:  E(RwB97XD) =  -1493.43437951     A.U. after   10 cycles
 SCF Done:  E(RwB97XD) =  -1493.43438029     A.U. after   10 cycles
 SCF Done:  E(RwB97XD) =  -1493.43438033     A.U. after    6 cycles
 Optimization completed.
    -- Stationary point found.
 Normal termination of Gaussian 16 at Fri Feb 12 17:16:17 2021.

 ---------------------------------------------------------------------
 #N Geom=AllCheck Guess=TCheck SCRF=Check GenChk RwB97XD/def2TZVP Freq
 ---------------------------------------------------------------------

 Structure from the checkpoint file:  "/beegfs/scratch/user/q/tla25/Gau-35011.chk"
 ------------------------
 0_iteration/TS-399-0.out
 ------------------------
 Charge =  0 Multiplicity = 1

                         Standard orientation:
 ---------------------------------------------------------------------
 Center     Atomic      Atomic             Coordinates (Angstroms)
 Number     Number       Type             X           Y           Z
 ---------------------------------------------------------------------
      1          6           0        1.251298    0.752985   -0.322254
      2          6           0        0.064103   -0.069488   -0.183207
      3          8           0        0.145339   -1.291099   -0.056734
      4          6           0        2.534874    0.265108   -0.418187
      5          6           0        4.533041   -0.807444    1.490457
      6          1           0        4.749202   -1.112645    2.515500
      7          1           0        4.734481   -1.641934    0.822145
      8          1           0        5.183627    0.024041    1.223298
      9          7           0        3.141594   -0.394507    1.331436
     10          1           0        2.490645   -1.151319    1.509095
     11          1           0        2.903988    0.374805    1.946226
     12          1           0        3.330790    0.989637   -0.513783
     13         17           0        2.902324   -1.161967   -1.374049
     14         17           0        1.142629    2.486899   -0.008389
     15          7           0       -1.135470    0.596001   -0.202934
     16          6           0       -2.430905    0.096813   -0.034517
     17          6           0       -2.734423   -1.253632    0.142820
     18          6           0       -4.056571   -1.645596    0.303842
     19          6           0       -5.089259   -0.721903    0.288975
     20          6           0       -4.786023    0.621491    0.109329
     21          6           0       -3.474218    1.027927   -0.049739
     22          1           0       -1.076381    1.593466   -0.324810
     23          1           0       -1.940564   -1.981701    0.152167
     24          1           0       -4.275160   -2.697559    0.441232
     25          1           0       -6.115615   -1.041303    0.413981
     26          1           0       -5.576020    1.361866    0.093345
     27          1           0       -3.250259    2.079567   -0.187712
 ---------------------------------------------------------------------

 SCF Done:  E(RwB97XD) =  -1493.43438033     A.U. after    1 cycles

 The electronic state is 1-A.
 Alpha  occ. eigenvalues -- -101.70283-101.69889 -19.21385 -14.48053 -14.46804
 Alpha  occ. eigenvalues --  -10.39657 -10.39505 -10.34005 -10.31981 -10.31725
 Alpha  occ. eigenvalues --  -10.29123 -10.28966 -10.28959 -10.28345 -10.28319
 Alpha  occ. eigenvalues --   -9.58854  -9.58414  -7.33516  -7.33044  -7.32641
 Alpha  occ. eigenvalues --   -7.32580  -7.32226  -7.32167  -1.14444  -1.04613
 Alpha  occ. eigenvalues --   -1.03786  -0.98587  -0.96011  -0.94848  -0.85472
 Alpha  occ. eigenvalues --   -0.85182  -0.83045  -0.78664  -0.75682  -0.71890
 Alpha  occ. eigenvalues --   -0.69491  -0.65526  -0.63014  -0.62946  -0.59216
 Alpha  occ. eigenvalues --   -0.58102  -0.56628  -0.55294  -0.54554  -0.53689
 Alpha  occ. eigenvalues --   -0.52624  -0.52198  -0.51866  -0.50541  -0.48642
 Alpha  occ. eigenvalues --   -0.47949  -0.47859  -0.46057  -0.44847  -0.43050
 Alpha  occ. eigenvalues --   -0.42870  -0.41309  -0.40809  -0.39627  -0.38498
 Alpha  occ. eigenvalues --   -0.34288  -0.33831  -0.30622  -0.27510
 Alpha virt. eigenvalues --    0.02709   0.05310   0.06664   0.08813   0.10004
 Alpha virt. eigenvalues --    0.12427   0.13007   0.14234   0.14778   0.15904
 Alpha virt. eigenvalues --    0.16753   0.17556   0.18070   0.18447   0.18715

 Mulliken charges:
               1
     1  C   -0.164978
     2  C    0.402784
     3  O   -0.521233
     4  C   -0.022668
     5  C   -0.267198
     6  H    0.150030
     7  H    0.146496
     8  H    0.150123
     9  N   -0.364424
    10  H    0.283692
    11  H    0.282333
    12  H    0.192856
    13  Cl  -0.091504
    14  Cl  -0.166994
    15  N   -0.275392
    16  C    0.302136
    17  C   -0.296111
    18  C   -0.108170
    19  C   -0.196153
    20  C   -0.097947
    21  C   -0.306836
    22  H    0.237645
    23  H    0.162343
    24  H    0.141863
    25  H    0.141091
    26  H    0.144006
    27  H    0.142209
 Sum of Mulliken charges =  -0.00000

 Dipole moment (field-independent basis, Debye):
    X=              5.1363    Y=              1.9718    Z=              4.3485  Tot=              7.0127
 Quadrupole moment (field-independent basis, Debye-Ang):
   XX=            -72.9586   YY=           -101.6385   ZZ=           -100.9177
   XY=             -3.9334   XZ=             13.4043   YZ=             -3.4288

  Exact polarizability: 325.615 -13.888 235.217   6.646  -3.451 156.837
 Approx polarizability: 226.997  -8.394 205.582   1.943  -2.173 138.986

 ******    1 imaginary frequencies (negative Signs) ******

                      1                      2                      3
                      A                      A                      A
 Frequencies --   -352.8945                16.8146                33.3290
 Red. masses --      6.8510                 4.1163                 4.3645
 Frc consts  --      0.5027                 0.0007                 0.0029
 IR Inten    --   1144.2460                 1.0477                 6.7751

                      4                      5                      6
                      A                      A                      A
 Frequencies --     51.3320                74.5443                90.5000
 Red. masses --      5.2818                 6.0165                 2.3508
 Frc consts  --      0.0082                 0.0197                 0.0113
 IR Inten    --      4.7077                 5.0263                10.0741

                      7                      8                      9
                      A                      A                      A
 Frequencies --     96.3144               119.7707               170.1000
 Red. masses --      5.2083                 5.2896                 1.9802
 Frc consts  --      0.0285                 0.0447                 0.0338
 IR Inten    --      3.2445                 9.7748                 9.2841

                     10                     11                     12
                      A                      A                      A
 Frequencies --    181.3503               191.6982               221.4456
 Red. masses --      2.6218                 5.0675                 6.4479
 Frc consts  --      0.0508                 0.1097                 0.1863
 IR Inten    --      1.6014                24.9065                32.0038

                     13                     14                     15
                      A                      A                      A
 Frequencies --    248.5232               267.3501               350.0966
 Red. masses --      4.6486                 4.3360                 6.0844
 Frc consts  --      0.1692                 0.1826                 0.4394
 IR Inten    --      3.7281                 5.4421                10.6859

                     16                     17                     18
                      A                      A                      A
 Frequencies --    363.4577               392.8697               422.7787
 Red. masses --      7.1819                 8.5295                 2.9924
 Frc consts  --      0.5590                 0.7757                 0.3151
 IR Inten    --      4.5295                85.5315                 0.0819

                     19                     20                     21
                      A                      A                      A
 Frequencies --    473.9863               498.1101               528.4110
 Red. masses --      8.8672                 6.7321                 2.8127
 Frc consts  --      1.1737                 0.9841                 0.4627
 IR Inten    --     65.0471                18.7047                39.7014

                     22                     23                     24
                      A                      A                      A
 Frequencies --    574.2847               623.7842               635.9210
 Red. masses --      1.1397                 1.9752                 6.3476
 Frc consts  --      0.2215                 0.4528                 1.5124
 IR Inten    --    104.4940                12.6049                 1.9004

                     25                     26                     27
                      A                      A                      A
 Frequencies --    660.5774               718.6122               766.4788
 Red. masses --      2.8278                 1.8793                 9.5445
 Frc consts  --      0.7270                 0.5718                 3.3037
 IR Inten    --      6.1898                66.1264                49.9294

                     28                     29                     30
                      A                      A                      A
 Frequencies --    783.9514               795.3347               861.9036
 Red. masses --      1.8374                 5.3819                 1.2636
 Frc consts  --      0.6653                 2.0058                 0.5531
 IR Inten    --     97.7724               200.0775                 0.0221

                     31                     32                     33
                      A                      A                      A
 Frequencies --    868.0594               874.2556               933.9730
 Red. masses --      6.5773                 5.7303                 1.4603
 Frc consts  --      2.9201                 2.5805                 0.7505
 IR Inten    --     24.5878                20.1181                13.2105

                     34                     35                     36
                      A                      A                      A
 Frequencies --   1001.7445              1008.2015              1018.7588
 Red. masses --      1.3480                 1.1493                 1.2866
 Frc consts  --      0.7970                 0.6883                 0.7868
 IR Inten    --      0.0304                14.8009                 0.7169

                     37                     38                     39
                      A                      A                      A
 Frequencies --   1020.6783              1027.0152              1048.6043
 Red. masses --      5.6098                 1.1205                 3.5765
 Frc consts  --      3.4433                 0.6964                 2.3170
 IR Inten    --      1.0287               128.4596                31.0048

                     40                     41                     42
                      A                      A                      A
 Frequencies --   1064.7024              1072.2581              1113.8688
 Red. masses --      2.0529                 3.6321                 1.2303
 Frc consts  --      1.3711                 2.4604                 0.8994
 IR Inten    --     21.9740               319.1878                90.4279

                     43                     44                     45
                      A                      A                      A
 Frequencies --   1123.0673              1182.1327              1208.6990
 Red. masses --      1.5145                 1.1255                 1.1779
 Frc consts  --      1.1255                 0.9267                 1.0139
 IR Inten    --     21.7039                 3.6577                42.6818

                     46                     47                     48
                      A                      A                      A
 Frequencies --   1211.8833              1225.3158              1274.9742
 Red. masses --      1.4115                 2.0849                 2.6048
 Frc consts  --      1.2214                 1.8443                 2.4948
 IR Inten    --     18.7098               109.3560               321.6778

                     49                     50                     51
                      A                      A                      A
 Frequencies --   1330.3082              1344.8788              1352.3222
 Red. masses --      1.7608                 1.3435                 3.7217
 Frc consts  --      1.8360                 1.4317                 4.0100
 IR Inten    --      8.7962                14.8238               607.8406

                     52                     53                     54
                      A                      A                      A
 Frequencies --   1363.1934              1445.2478              1466.4761
 Red. masses --      1.5090                 2.9376                 1.4712
 Frc consts  --      1.6522                 3.6152                 1.8642
 IR Inten    --     99.5887               733.6908               165.0316

                     55                     56                     57
                      A                      A                      A
 Frequencies --   1483.4762              1492.2818              1504.8664
 Red. masses --      2.2024                 1.0405                 1.0335
 Frc consts  --      2.8557                 1.3652                 1.3790
 IR Inten    --    362.3152                16.3192                23.1540

                     58                     59                     60
                      A                      A                      A
 Frequencies --   1547.7068              1579.4196              1645.6268
 Red. masses --      2.4706                 2.0686                 1.0889
 Frc consts  --      3.4868                 3.0404                 1.7375
 IR Inten    --    173.2190               859.9445                47.4595

                     61                     62                     63
                      A                      A                      A
 Frequencies --   1661.6823              1672.3909              1691.6790
 Red. masses --      5.6347                 4.6538                 6.6812
 Frc consts  --      9.1668                 7.6690                11.2653
 IR Inten    --    155.9881                35.3182               376.0048

                     64                     65                     66
                      A                      A                      A
 Frequencies --   3064.6437              3141.3171              3167.9767
 Red. masses --      1.0353                 1.1029                 1.1054
 Frc consts  --      5.7292                 6.4120                 6.5361
 IR Inten    --     62.0918                18.1072                14.6458

                     67                     68                     69
                      A                      A                      A
 Frequencies --   3189.2068              3197.5840              3207.7304
 Red. masses --      1.0877                 1.0885                 1.0932
 Frc consts  --      6.5184                 6.5570                 6.6273
 IR Inten    --     12.3804                 2.5306                29.5816

                     70                     71                     72
                      A                      A                      A
 Frequencies --   3222.2828              3223.2952              3274.5252
 Red. masses --      1.0981                 1.0924                 1.0922
 Frc consts  --      6.7174                 6.6871                 6.9001
 IR Inten    --     22.0910                 1.5376                 6.4040

                     73                     74                     75
                      A                      A                      A
 Frequencies --   3525.1377              3609.2521              3638.4643
 Red. masses --      1.0506                 1.0966                 1.0764
 Frc consts  --      7.6922                 8.4165                 8.3955
 IR Inten    --     23.5898                48.8937                88.6359

 - Thermochemistry -
 -------------------
 Temperature   298.150 Kelvin.  Pressure   1.00000 Atm.
 Atom     1 has atomic number  6 and mass  12.00000

 Molecular mass:   246.03267 amu.
 Principal axes and moments of inertia in atomic units:
                           1         2         3
     Eigenvalues --  1980.148218101.073099090.15814
           X            0.99989  -0.00237   0.01473
           Y            0.00290   0.99934  -0.03628
           Z           -0.01463   0.03632   0.99923
 This molecule is an asymmetric top.
 Rotational symmetry number  1.
 Warning -- assumption of classical behavior for rotation
           may cause significant error
 Rotational temperatures (Kelvin)      0.04374     0.01069     0.00953
 Rotational constants (GHZ):           0.91142     0.22278     0.19854
    1 imaginary frequencies ignored.
 Zero-point vibrational energy     553481.0 (Joules/Mol)
                                  132.28513 (Kcal/Mol)
 Warning -- explicit consideration of  21 degrees of freedom as
           vibrations may cause significant error
 Vibrational temperatures:     24.19    47.95    73.86   107.25   130.21
          (Kelvin)            138.57   172.32   244.74   260.92   275.81
                              318.61   357.57   384.66   503.71   522.93
                              565.25   608.28   681.96   716.67   760.27
                              826.27   897.49   914.95   950.42  1033.92
                             1102.79  1127.93  1144.31  1240.09  1248.94
                             1257.86  1343.78  1441.29  1450.58  1465.77
                             1468.53  1477.65  1508.71  1531.87  1542.74
                             1602.61  1615.84  1700.83  1739.05  1743.63
                             1762.96  1834.40  1914.02  1934.98  1945.69
                             1961.33  2079.39  2109.93  2134.39  2147.06
                             2165.17  2226.80  2272.43  2367.69  2390.79
                             2406.20  2433.95  4409.34  4519.65  4558.01
                             4588.56  4600.61  4615.21  4636.15  4637.60
                             4711.31  5071.89  5192.91  5234.94

 Zero-point correction=                           0.210810 (Hartree/Particle)
 Thermal correction to Energy=                    0.226112
 Thermal correction to Enthalpy=                  0.227056
 Thermal correction to Gibbs Free Energy=         0.165206
 Sum of electronic and zero-point Energies=          -1493.223571
 Sum of electronic and thermal Energies=             -1493.208269
 Sum of electronic and thermal Enthalpies=           -1493.207325
 Sum of electronic and thermal Free Energies=        -1493.269174

                     E (Thermal)             CV                S
                      KCal/Mol        Cal/Mol-Kelvin    Cal/Mol-Kelvin
 Total                  141.887             54.690            130.174
 Electronic               0.000              0.000              0.000
 Translational            0.889              2.981             42.402
 Rotational               0.889              2.981             33.344
 Vibrational            140.110             48.729             54.428
 Vibration     1          0.593              1.986              6.979
 Vibration     2          0.594              1.983              5.621
 Vibration     3          0.596              1.977              4.765
 Vibration     4          0.599              1.966              4.030
 Vibration     5          0.602              1.956              3.649
 Vibration     6          0.603              1.952              3.528
 Vibration     7          0.609              1.933              3.104
 Vibration     8          0.625              1.879              2.434
 Vibration     9          0.630              1.865              2.314
 Vibration    10          0.634              1.851              2.211
 Vibration    11          0.648              1.808              1.947
 Vibration    12          0.662              1.765              1.741
 Vibration    13          0.672              1.733              1.613
 Vibration    14          0.727              1.575              1.166
 Vibration    15          0.737              1.548              1.107
 Vibration    16          0.760              1.485              0.989
 Vibration    17          0.785              1.421              0.883
 Vibration    18          0.831              1.308              0.726
 Vibration    19          0.854              1.254              0.663
 Vibration    20          0.883              1.187              0.591
 Vibration    21          0.931              1.087              0.496

 Optimization completed.
    -- Stationary point found.
 Normal termination of Gaussian 16 at Fri Feb 12 17:58:03 2021.
