 Gaussian 16, Revision A.03,
 Gaussian 16:  ES64L-G16RevA.03 25-Dec-2016

 ----------------------------------------------------------------------
 # wB97XD def2tzvp, opt=(ts, noeigen, calcfc, maxcycles=70, maxstep=1),
  freq=noraman, scrf=(iefpcm, solvent=water)
 ----------------------------------------------------------------------

 ------------------------
 0_iteration/TS-314-0.out
 ------------------------
 Symbolic Z-matrix:
 Charge =  0 Multiplicity = 1

 SCF Done:  E(RwB97XD) =  -826.037894518     A.U. after   14 cycles
 SCF Done:  E(RwB97XD) =  -826.037894508     A.U. after    7 cycles
 Optimization completed.
    -- Stationary point found.
 Normal termination of Gaussian 16 at Tue Mar  2 02:17:37 2021.

 ---------------------------------------------------------------------
 #N Geom=AllCheck Guess=TCheck SCRF=Check GenChk RwB97XD/def2TZVP Freq
 ---------------------------------------------------------------------

 Structure from the checkpoint file:  "/beegfs/scratch/user/q/tla25/Gau-28784.chk"
 ------------------------
 0_iteration/TS-314-0.out
 ------------------------
 Charge =  0 Multiplicity = 1

                         Standard orientation:
 ---------------------------------------------------------------------
 Center     Atomic      Atomic             Coordinates (Angstroms)
 Number     Number       Type             X           Y           Z
 ---------------------------------------------------------------------
      1          6           0        0.556168    0.133280    0.328368
      2          6           0        1.466917   -0.822858   -0.214392
      3          8           0        1.159050   -2.012521   -0.368289
      4          6           0       -0.758309   -0.094234    0.726139
      5          6           0       -3.374595    0.337814   -0.593421
      6          1           0       -3.915793    0.707606   -1.465872
      7          1           0       -3.738601   -0.658459   -0.351268
      8          1           0       -3.573288    0.998247    0.250467
      9          7           0       -1.933431    0.282263   -0.824167
     10          1           0       -1.684181   -0.419952   -1.510197
     11          1           0       -1.574724    1.171661   -1.149636
     12          1           0       -1.205021    0.720095    1.285968
     13          6           0       -1.279509   -1.447728    1.115287
     14          1           0       -0.702431   -1.814953    1.965892
     15          1           0       -2.323040   -1.378827    1.418968
     16          1           0       -1.170557   -2.171266    0.313107
     17         17           0        1.042378    1.842503    0.325594
     18          6           0        2.858945   -0.370447   -0.604453
     19          1           0        3.351957    0.159000    0.211962
     20          1           0        3.444395   -1.244127   -0.882968
     21          1           0        2.814774    0.317797   -1.451199
 ---------------------------------------------------------------------

 SCF Done:  E(RwB97XD) =  -826.037894508     A.U. after    1 cycles

 The electronic state is 1-A.
 Alpha  occ. eigenvalues -- -101.68303 -19.20461 -14.47351 -10.35629 -10.34305
 Alpha  occ. eigenvalues --  -10.31600 -10.30332 -10.27866 -10.27044  -9.56849
 Alpha  occ. eigenvalues --   -7.31451  -7.30654  -7.30637  -1.11216  -1.02935
 Alpha  occ. eigenvalues --   -0.95860  -0.87907  -0.83215  -0.78881  -0.77281
 Alpha  occ. eigenvalues --   -0.70641  -0.62423  -0.59903  -0.56105  -0.55471
 Alpha  occ. eigenvalues --   -0.54559  -0.53526  -0.51620  -0.50148  -0.49066
 Alpha  occ. eigenvalues --   -0.47772  -0.47212  -0.45407  -0.45228  -0.44077
 Alpha  occ. eigenvalues --   -0.42076  -0.39836  -0.39013  -0.31990  -0.27182
 Alpha virt. eigenvalues --    0.04354   0.09743   0.11509   0.13331   0.14403
 Alpha virt. eigenvalues --    0.14578   0.15006   0.16485   0.18082   0.19080
 Alpha virt. eigenvalues --    0.19836   0.20431   0.20677   0.21289   0.22432

 Mulliken charges:
               1
     1  C   -0.094978
     2  C    0.239255
     3  O   -0.519085
     4  C   -0.055146
     5  C   -0.283742
     6  H    0.150123
     7  H    0.155987
     8  H    0.149436
     9  N   -0.368592
    10  H    0.280533
    11  H    0.276598
    12  H    0.158676
    13  C   -0.340414
    14  H    0.143604
    15  H    0.140948
    16  H    0.140531
    17  Cl  -0.198989
    18  C   -0.369161
    19  H    0.135790
    20  H    0.121331
    21  H    0.137295
 Sum of Mulliken charges =  -0.00000

 Dipole moment (field-independent basis, Debye):
    X=             -7.2987    Y=              2.6483    Z=             -1.5024  Tot=              7.9084
 Quadrupole moment (field-independent basis, Debye-Ang):
   XX=            -50.2050   YY=            -74.0048   ZZ=            -59.0623
   XY=              1.5103   XZ=              2.8299   YZ=             -3.5178

  Exact polarizability: 175.156  -6.863 140.016  -1.140   1.337 108.034
 Approx polarizability: 125.072  -3.223 119.388  -0.144   2.482  94.468

 ******    1 imaginary frequencies (negative Signs) ******

                      1                      2                      3
                      A                      A                      A
 Frequencies --   -333.8229                44.2717                68.0350
 Red. masses --      5.9437                 3.7551                 2.5106
 Frc consts  --      0.3902                 0.0043                 0.0068
 IR Inten    --    862.9797                 1.9629                 3.7541

                      4                      5                      6
                      A                      A                      A
 Frequencies --     76.8397               130.3293               154.9350
 Red. masses --      2.7202                 3.8080                 1.1366
 Frc consts  --      0.0095                 0.0381                 0.0161
 IR Inten    --     10.7573                17.7217                 1.4358

                      7                      8                      9
                      A                      A                      A
 Frequencies --    159.9752               187.3842               239.2949
 Red. masses --      1.1547                 2.3027                 2.7053
 Frc consts  --      0.0174                 0.0476                 0.0913
 IR Inten    --      1.3125                33.5285                 0.6230

                     10                     11                     12
                      A                      A                      A
 Frequencies --    254.8326               257.0881               312.4155
 Red. masses --      2.1951                 1.9530                 2.7664
 Frc consts  --      0.0840                 0.0761                 0.1591
 IR Inten    --      5.4843                 1.3323                 6.7501

                     13                     14                     15
                      A                      A                      A
 Frequencies --    411.4611               426.0591               459.7131
 Red. masses --      3.3627                 3.7184                 8.4428
 Frc consts  --      0.3354                 0.3977                 1.0513
 IR Inten    --      6.2431                98.4497                21.4730

                     16                     17                     18
                      A                      A                      A
 Frequencies --    511.1002               624.1597               628.1957
 Red. masses --      3.4490                 1.8774                 1.7677
 Frc consts  --      0.5308                 0.4309                 0.4110
 IR Inten    --     17.5751                24.4982                58.5181

                     19                     20                     21
                      A                      A                      A
 Frequencies --    699.8634               944.8866               955.7131
 Red. masses --      3.1233                 3.1948                 2.0152
 Frc consts  --      0.9014                 1.6806                 1.0845
 IR Inten    --     14.5752                66.9588                51.7911

                     22                     23                     24
                      A                      A                      A
 Frequencies --    984.9084              1001.0681              1023.1872
 Red. masses --      1.2912                 1.2306                 1.1663
 Frc consts  --      0.7380                 0.7266                 0.7194
 IR Inten    --     70.8177               140.6543                44.0755

                     25                     26                     27
                      A                      A                      A
 Frequencies --   1042.2108              1052.5701              1075.2085
 Red. masses --      1.7458                 1.5886                 3.5730
 Frc consts  --      1.1172                 1.0370                 2.4337
 IR Inten    --     11.4560                42.5323               157.4916

                     28                     29                     30
                      A                      A                      A
 Frequencies --   1128.9433              1170.0607              1210.7157
 Red. masses --      2.1111                 1.3071                 1.4367
 Frc consts  --      1.5853                 1.0543                 1.2408
 IR Inten    --     21.2935               168.4581                14.0529

                     31                     32                     33
                      A                      A                      A
 Frequencies --   1235.4221              1344.5857              1375.3226
 Red. masses --      1.8687                 1.3215                 1.3659
 Frc consts  --      1.6804                 1.4077                 1.5222
 IR Inten    --      9.6911                 0.4811                76.2058

                     34                     35                     36
                      A                      A                      A
 Frequencies --   1403.1258              1416.2896              1447.8060
 Red. masses --      1.4035                 1.8843                 1.4893
 Frc consts  --      1.6280                 2.2270                 1.8393
 IR Inten    --     42.1113               393.4188               315.5141

                     37                     38                     39
                      A                      A                      A
 Frequencies --   1457.7676              1471.2494              1472.9194
 Red. masses --      1.0976                 1.0860                 1.2346
 Frc consts  --      1.3742                 1.3850                 1.5781
 IR Inten    --     39.9553                30.5098               121.9152

                     40                     41                     42
                      A                      A                      A
 Frequencies --   1475.4189              1491.3414              1497.9510
 Red. masses --      1.1226                 1.1765                 1.1895
 Frc consts  --      1.4398                 1.5416                 1.5725
 IR Inten    --     87.4415               130.3020               103.1715

                     43                     44                     45
                      A                      A                      A
 Frequencies --   1511.6619              1646.3768              1651.2282
 Red. masses --      1.0532                 1.3375                 3.4011
 Frc consts  --      1.4180                 2.1359                 5.4636
 IR Inten    --     40.9795               121.4826               311.8889

                     46                     47                     48
                      A                      A                      A
 Frequencies --   3060.2402              3061.4082              3072.7830
 Red. masses --      1.0367                 1.0352                 1.0390
 Frc consts  --      5.7203                 5.7161                 5.7800
 IR Inten    --     11.3126                59.7842                20.1111

                     49                     50                     51
                      A                      A                      A
 Frequencies --   3130.2905              3133.9449              3140.5157
 Red. masses --      1.0995                 1.1041                 1.0997
 Frc consts  --      6.3476                 6.3891                 6.3904
 IR Inten    --     13.6045                23.4185                27.8262

                     52                     53                     54
                      A                      A                      A
 Frequencies --   3163.9898              3164.4885              3168.5617
 Red. masses --      1.1041                 1.1039                 1.0928
 Frc consts  --      6.5121                 6.5131                 6.4640
 IR Inten    --     26.0114                21.2121                 7.3515

                     55                     56                     57
                      A                      A                      A
 Frequencies --   3187.4439              3533.2808              3615.1306
 Red. masses --      1.0994                 1.0506                 1.0963
 Frc consts  --      6.5810                 7.7277                 8.4415
 IR Inten    --     14.5327                17.3469                40.2216

 - Thermochemistry -
 -------------------
 Temperature   298.150 Kelvin.  Pressure   1.00000 Atm.
 Atom     1 has atomic number  6 and mass  12.00000

 Molecular mass:   149.06074 amu.
 Principal axes and moments of inertia in atomic units:
                           1         2         3
     Eigenvalues --  1072.681941975.279872594.72528
           X            0.99990  -0.01293  -0.00604
           Y            0.01271   0.99926  -0.03634
           Z            0.00651   0.03626   0.99932
 This molecule is an asymmetric top.
 Rotational symmetry number  1.
 Warning -- assumption of classical behavior for rotation
           may cause significant error
 Rotational temperatures (Kelvin)      0.08075     0.04385     0.03338
 Rotational constants (GHZ):           1.68246     0.91366     0.69554
    1 imaginary frequencies ignored.
 Zero-point vibrational energy     463947.5 (Joules/Mol)
                                  110.88612 (Kcal/Mol)
 Warning -- explicit consideration of  15 degrees of freedom as
           vibrations may cause significant error
 Vibrational temperatures:     63.70    97.89   110.56   187.51   222.92
          (Kelvin)            230.17   269.60   344.29   366.65   369.89
                              449.50   592.00   613.00   661.42   735.36
                              898.03   903.83  1006.95  1359.48  1375.06
                             1417.06  1440.31  1472.14  1499.51  1514.41
                             1546.99  1624.30  1683.46  1741.95  1777.50
                             1934.56  1978.78  2018.79  2037.72  2083.07
                             2097.40  2116.80  2119.20  2122.80  2145.71
                             2155.22  2174.94  2368.77  2375.75  4403.00
                             4404.68  4421.05  4503.79  4509.05  4518.50
                             4552.28  4552.99  4558.85  4586.02  5083.60
                             5201.37

 Zero-point correction=                           0.176708 (Hartree/Particle)
 Thermal correction to Energy=                    0.188247
 Thermal correction to Enthalpy=                  0.189192
 Thermal correction to Gibbs Free Energy=         0.138573
 Sum of electronic and zero-point Energies=           -825.861186
 Sum of electronic and thermal Energies=              -825.849647
 Sum of electronic and thermal Enthalpies=            -825.848703
 Sum of electronic and thermal Free Energies=         -825.899321

                     E (Thermal)             CV                S
                      KCal/Mol        Cal/Mol-Kelvin    Cal/Mol-Kelvin
 Total                  118.127             39.584            106.535
 Electronic               0.000              0.000              0.000
 Translational            0.889              2.981             40.908
 Rotational               0.889              2.981             30.087
 Vibrational            116.350             33.623             35.540
 Vibration     1          0.595              1.980              5.058
 Vibration     2          0.598              1.969              4.209
 Vibration     3          0.599              1.965              3.970
 Vibration     4          0.612              1.923              2.941
 Vibration     5          0.620              1.897              2.611
 Vibration     6          0.622              1.891              2.550
 Vibration     7          0.632              1.857              2.254
 Vibration     8          0.657              1.780              1.808
 Vibration     9          0.665              1.755              1.697
 Vibration    10          0.667              1.751              1.681
 Vibration    11          0.701              1.650              1.350
 Vibration    12          0.775              1.445              0.921
 Vibration    13          0.788              1.414              0.872
 Vibration    14          0.818              1.339              0.767
 Vibration    15          0.866              1.225              0.631

 Optimization completed.
    -- Stationary point found.
 Normal termination of Gaussian 16 at Tue Mar  2 02:28:25 2021.
