 Gaussian 16, Revision A.03,
 Gaussian 16:  ES64L-G16RevA.03 25-Dec-2016

 ----------------------------------------------------------------------
 # wB97XD def2tzvp, opt=(ts, noeigen, calcfc, maxcycles=70, maxstep=8),
  freq=noraman, scrf=(iefpcm, solvent=water)
 ----------------------------------------------------------------------

 ------------------------
 0_iteration/TS-386-0.out
 ------------------------
 Symbolic Z-matrix:
 Charge =  0 Multiplicity = 1

 SCF Done:  E(RwB97XD) =  -3360.30668076     A.U. after   16 cycles
 SCF Done:  E(RwB97XD) =  -3360.30573426     A.U. after   14 cycles
 SCF Done:  E(RwB97XD) =  -3360.30515565     A.U. after   14 cycles
 SCF Done:  E(RwB97XD) =  -3360.30583919     A.U. after   14 cycles
 SCF Done:  E(RwB97XD) =  -3360.30797857     A.U. after   14 cycles
 SCF Done:  E(RwB97XD) =  -3360.30972537     A.U. after   14 cycles
 SCF Done:  E(RwB97XD) =  -3360.31181657     A.U. after   13 cycles
 SCF Done:  E(RwB97XD) =  -3360.31418366     A.U. after   12 cycles
 SCF Done:  E(RwB97XD) =  -3360.31669936     A.U. after   12 cycles
 SCF Done:  E(RwB97XD) =  -3360.31940313     A.U. after   12 cycles
 SCF Done:  E(RwB97XD) =  -3360.32841324     A.U. after   13 cycles
 SCF Done:  E(RwB97XD) =  -3360.32852284     A.U. after   12 cycles
 SCF Done:  E(RwB97XD) =  -3360.32851803     A.U. after   12 cycles
 SCF Done:  E(RwB97XD) =  -3360.32853116     A.U. after   11 cycles
 SCF Done:  E(RwB97XD) =  -3360.32853200     A.U. after   10 cycles
 SCF Done:  E(RwB97XD) =  -3360.32853296     A.U. after   10 cycles
 SCF Done:  E(RwB97XD) =  -3360.32853306     A.U. after    8 cycles
 SCF Done:  E(RwB97XD) =  -3360.32853310     A.U. after    8 cycles
 SCF Done:  E(RwB97XD) =  -3360.32853311     A.U. after    7 cycles
 Optimization completed.
    -- Stationary point found.
 Normal termination of Gaussian 16 at Fri Feb 12 14:03:07 2021.

 ---------------------------------------------------------------------
 #N Geom=AllCheck Guess=TCheck SCRF=Check GenChk RwB97XD/def2TZVP Freq
 ---------------------------------------------------------------------

 Structure from the checkpoint file:  "/beegfs/scratch/user/q/tla25/Gau-50886.chk"
 ------------------------
 0_iteration/TS-386-0.out
 ------------------------
 Charge =  0 Multiplicity = 1

                         Standard orientation:
 ---------------------------------------------------------------------
 Center     Atomic      Atomic             Coordinates (Angstroms)
 Number     Number       Type             X           Y           Z
 ---------------------------------------------------------------------
      1          6           0        0.172532    0.322024   -0.183693
      2          6           0        0.123994    1.574432    0.524057
      3          8           0        1.140222    2.187584    0.839513
      4          6           0       -0.843955   -0.492885   -0.641775
      5          6           0       -0.626867   -1.917076    1.823957
      6          1           0       -1.086113   -2.353846    2.710705
      7          1           0        0.117921   -2.602756    1.426208
      8          1           0       -0.131146   -0.985950    2.101714
      9          7           0       -1.615397   -1.628808    0.793183
     10          1           0       -1.971732   -2.470934    0.356790
     11          1           0       -2.406739   -1.118416    1.167237
     12          1           0       -0.553978   -1.348294   -1.232298
     13         17           0       -2.361304    0.152266   -1.256331
     14         35           0        1.925420   -0.417757   -0.428829
     15          6           0       -1.221824    2.156589    0.906524
     16          1           0       -1.932586    1.405180    1.246591
     17          1           0       -1.056056    2.884757    1.697801
     18          1           0       -1.664360    2.665732    0.049089
 ---------------------------------------------------------------------

 SCF Done:  E(RwB97XD) =  -3360.32853311     A.U. after    1 cycles

 The electronic state is 1-A.
 Alpha  occ. eigenvalues -- -483.12299-101.70999 -62.67135 -56.46245 -56.45897
 Alpha  occ. eigenvalues --  -56.45894 -19.21804 -14.48560 -10.40104 -10.37024
 Alpha  occ. eigenvalues --  -10.31841 -10.31777 -10.27939  -9.59580  -8.81249
 Alpha  occ. eigenvalues --   -7.34237  -7.33362  -7.33313  -6.63383  -6.62269
 Alpha  occ. eigenvalues --   -6.62261  -2.73774  -2.73447  -2.73440  -2.72540
 Alpha  occ. eigenvalues --   -2.72539  -1.12864  -1.04205  -0.98411  -0.91519
 Alpha  occ. eigenvalues --   -0.84770  -0.80838  -0.78977  -0.72895  -0.63675
 Alpha  occ. eigenvalues --   -0.60581  -0.57484  -0.56587  -0.56305  -0.54650
 Alpha  occ. eigenvalues --   -0.52208  -0.51080  -0.48968  -0.48050  -0.46910
 Alpha  occ. eigenvalues --   -0.45009  -0.44636  -0.40590  -0.39575  -0.38654
 Alpha  occ. eigenvalues --   -0.36918  -0.33401  -0.28765
 Alpha virt. eigenvalues --    0.02218   0.05982   0.09263   0.10777   0.13479
 Alpha virt. eigenvalues --    0.14162   0.15072   0.16246   0.17849   0.18917
 Alpha virt. eigenvalues --    0.19433   0.20013   0.21577   0.22724   0.23671

 Mulliken charges:
               1
     1  C   -0.170018
     2  C    0.222684
     3  O   -0.470646
     4  C   -0.006511
     5  C   -0.284901
     6  H    0.159054
     7  H    0.159607
     8  H    0.151149
     9  N   -0.356904
    10  H    0.291479
    11  H    0.282287
    12  H    0.204623
    13  Cl  -0.082999
    14  Br  -0.143245
    15  C   -0.366311
    16  H    0.124637
    17  H    0.132811
    18  H    0.153205
 Sum of Mulliken charges =  -0.00000

 Dipole moment (field-independent basis, Debye):
    X=             -8.1069    Y=             -7.5053    Z=              1.8576  Tot=             11.2028
 Quadrupole moment (field-independent basis, Debye-Ang):
   XX=            -73.8752   YY=            -71.0537   ZZ=            -71.7176
   XY=             -0.5403   XZ=             -6.8092   YZ=             -5.9297

  Exact polarizability: 176.265  14.113 160.678   4.719   2.322 122.543
 Approx polarizability: 142.870  10.421 129.774   5.235   3.060 105.568

 ******    1 imaginary frequencies (negative Signs) ******

                      1                      2                      3
                      A                      A                      A
 Frequencies --   -343.4497                54.3554                73.9524
 Red. masses --      6.0165                 3.0883                 4.5311
 Frc consts  --      0.4181                 0.0054                 0.0146
 IR Inten    --    848.3926                 0.3955                 8.3530

                      4                      5                      6
                      A                      A                      A
 Frequencies --     88.8115               119.0529               165.8701
 Red. masses --      3.4282                 3.0473                 1.5820
 Frc consts  --      0.0159                 0.0254                 0.0256
 IR Inten    --     11.5231                 5.5691                 1.1548

                      7                      8                      9
                      A                      A                      A
 Frequencies --    173.8206               188.3634               197.7817
 Red. masses --      1.1904                 7.0304                 2.2921
 Frc consts  --      0.0212                 0.1470                 0.0528
 IR Inten    --      1.9889                 5.5882                 1.8040

                     10                     11                     12
                      A                      A                      A
 Frequencies --    222.1002               268.9537               325.4850
 Red. masses --      4.9771                 4.6255                 9.1434
 Frc consts  --      0.1447                 0.1971                 0.5707
 IR Inten    --      2.1186                20.6770                28.7308

                     13                     14                     15
                      A                      A                      A
 Frequencies --    358.3772               440.8561               554.5586
 Red. masses --      3.4091                 3.5690                 4.1801
 Frc consts  --      0.2580                 0.4087                 0.7574
 IR Inten    --      4.2533                78.3947                29.5745

                     16                     17                     18
                      A                      A                      A
 Frequencies --    613.0688               637.5251               741.6348
 Red. masses --      1.6936                 2.8743                 2.9738
 Frc consts  --      0.3750                 0.6883                 0.9637
 IR Inten    --     23.4048                45.9801                 4.2438

                     19                     20                     21
                      A                      A                      A
 Frequencies --    760.2974               899.6376               999.5162
 Red. masses --      8.7335                 4.3883                 1.1009
 Frc consts  --      2.9744                 2.0926                 0.6480
 IR Inten    --    217.6134                33.3103                31.2638

                     22                     23                     24
                      A                      A                      A
 Frequencies --   1008.9403              1029.9972              1042.9355
 Red. masses --      1.2379                 1.3920                 1.7437
 Frc consts  --      0.7424                 0.8701                 1.1175
 IR Inten    --     67.7926                81.2499                29.3889

                     25                     26                     27
                      A                      A                      A
 Frequencies --   1078.8116              1122.6385              1209.7324
 Red. masses --      3.6883                 1.1954                 1.4128
 Frc consts  --      2.5291                 0.8877                 1.2182
 IR Inten    --     43.2747                53.1605                20.6321

                     28                     29                     30
                      A                      A                      A
 Frequencies --   1229.4807              1340.7320              1365.2878
 Red. masses --      1.8436                 1.3410                 1.6526
 Frc consts  --      1.6420                 1.4203                 1.8150
 IR Inten    --     35.4045                 9.0143               140.7456

                     31                     32                     33
                      A                      A                      A
 Frequencies --   1394.0537              1429.0242              1458.0488
 Red. masses --      1.3831                 2.9291                 1.0933
 Frc consts  --      1.5836                 3.5242                 1.3694
 IR Inten    --     53.1224               889.1375                21.8780

                     34                     35                     36
                      A                      A                      A
 Frequencies --   1465.1870              1483.9321              1492.8461
 Red. masses --      1.4671                 1.0732                 1.0414
 Frc consts  --      1.8557                 1.3924                 1.3674
 IR Inten    --    152.9630                26.0873                17.5789

                     37                     38                     39
                      A                      A                      A
 Frequencies --   1498.4745              1649.7003              1673.4321
 Red. masses --      1.0391                 1.0893                10.2265
 Frc consts  --      1.3747                 1.7466                16.8730
 IR Inten    --     19.7425                73.3196               650.0535

                     40                     41                     42
                      A                      A                      A
 Frequencies --   3064.9511              3072.1139              3138.4549
 Red. masses --      1.0339                 1.0363                 1.1046
 Frc consts  --      5.7225                 5.7623                 6.4103
 IR Inten    --     26.5483                 7.7284                13.5940

                     43                     44                     45
                      A                      A                      A
 Frequencies --   3149.1200              3169.5345              3169.6810
 Red. masses --      1.0994                 1.1048                 1.1045
 Frc consts  --      6.4240                 6.5395                 6.5383
 IR Inten    --     11.4366                11.4803                26.6325

                     46                     47                     48
                      A                      A                      A
 Frequencies --   3237.7399              3528.0785              3610.6199
 Red. masses --      1.0922                 1.0506                 1.0964
 Frc consts  --      6.7461                 7.7051                 8.4213
 IR Inten    --      1.9584                57.0226                46.6423

 - Thermochemistry -
 -------------------
 Temperature   298.150 Kelvin.  Pressure   1.00000 Atm.
 Atom     1 has atomic number  6 and mass  12.00000

 Molecular mass:   212.95560 amu.
 Principal axes and moments of inertia in atomic units:
                           1         2         3
     Eigenvalues --  1680.439632717.461813197.27755
           X            0.99949   0.02629  -0.01827
           Y           -0.02726   0.99810  -0.05529
           Z            0.01678   0.05576   0.99830
 This molecule is an asymmetric top.
 Rotational symmetry number  1.
 Warning -- assumption of classical behavior for rotation
           may cause significant error
 Rotational temperatures (Kelvin)      0.05154     0.03187     0.02709
 Rotational constants (GHZ):           1.07397     0.66413     0.56446
    1 imaginary frequencies ignored.
 Zero-point vibrational energy     364846.5 (Joules/Mol)
                                   87.20040 (Kcal/Mol)
 Warning -- explicit consideration of  15 degrees of freedom as
           vibrations may cause significant error
 Vibrational temperatures:     78.21   106.40   127.78   171.29   238.65
          (Kelvin)            250.09   271.01   284.56   319.55   386.96
                              468.30   515.62   634.29   797.89   882.07
                              917.26  1067.05  1093.90  1294.38  1438.08
                             1451.64  1481.94  1500.55  1552.17  1615.23
                             1740.54  1768.95  1929.01  1964.34  2005.73
                             2056.05  2097.81  2108.08  2135.05  2147.87
                             2155.97  2373.55  2407.70  4409.78  4420.09
                             4515.54  4530.88  4560.25  4560.46  4658.39
                             5076.12  5194.88

 Zero-point correction=                           0.138963 (Hartree/Particle)
 Thermal correction to Energy=                    0.150228
 Thermal correction to Enthalpy=                  0.151172
 Thermal correction to Gibbs Free Energy=         0.100202
 Sum of electronic and zero-point Energies=          -3360.189570
 Sum of electronic and thermal Energies=             -3360.178305
 Sum of electronic and thermal Enthalpies=           -3360.177361
 Sum of electronic and thermal Free Energies=        -3360.228332

                     E (Thermal)             CV                S
                      KCal/Mol        Cal/Mol-Kelvin    Cal/Mol-Kelvin
 Total                   94.269             37.719            107.277
 Electronic               0.000              0.000              0.000
 Translational            0.889              2.981             41.971
 Rotational               0.889              2.981             31.057
 Vibrational             92.492             31.758             34.248
 Vibration     1          0.596              1.976              4.652
 Vibration     2          0.599              1.966              4.045
 Vibration     3          0.602              1.957              3.686
 Vibration     4          0.609              1.933              3.116
 Vibration     5          0.624              1.884              2.482
 Vibration     6          0.627              1.875              2.394
 Vibration     7          0.633              1.856              2.244
 Vibration     8          0.637              1.843              2.154
 Vibration     9          0.648              1.807              1.942
 Vibration    10          0.673              1.730              1.603
 Vibration    11          0.710              1.625              1.282
 Vibration    12          0.733              1.558              1.129
 Vibration    13          0.801              1.381              0.824
 Vibration    14          0.910              1.130              0.535
 Vibration    15          0.972              1.004              0.428

 Optimization completed.
    -- Stationary point found.
 Normal termination of Gaussian 16 at Fri Feb 12 14:13:40 2021.
