 Gaussian 16, Revision A.03,
 Gaussian 16:  ES64L-G16RevA.03 25-Dec-2016

 ----------------------------------------------------------------------
 # wB97XD def2tzvp, opt=(ts, noeigen, calcfc, maxcycles=70, maxstep=8),
  freq=noraman, scrf=(iefpcm, solvent=water)
 ----------------------------------------------------------------------

 ------------------------
 0_iteration/TS-305-0.out
 ------------------------
 Symbolic Z-matrix:
 Charge =  0 Multiplicity = 1

 SCF Done:  E(RwB97XD) =  -2900.72269025     A.U. after   14 cycles
 SCF Done:  E(RwB97XD) =  -2900.72213860     A.U. after   12 cycles
 SCF Done:  E(RwB97XD) =  -2900.72181743     A.U. after   12 cycles
 SCF Done:  E(RwB97XD) =  -2900.72180160     A.U. after   12 cycles
 SCF Done:  E(RwB97XD) =  -2900.72217542     A.U. after   12 cycles
 SCF Done:  E(RwB97XD) =  -2900.72325988     A.U. after   12 cycles
 SCF Done:  E(RwB97XD) =  -2900.72438255     A.U. after   12 cycles
 SCF Done:  E(RwB97XD) =  -2900.72537959     A.U. after   12 cycles
 SCF Done:  E(RwB97XD) =  -2900.72612781     A.U. after   12 cycles
 SCF Done:  E(RwB97XD) =  -2900.72636326     A.U. after   12 cycles
 SCF Done:  E(RwB97XD) =  -2900.72644538     A.U. after   12 cycles
 SCF Done:  E(RwB97XD) =  -2900.72645750     A.U. after   11 cycles
 SCF Done:  E(RwB97XD) =  -2900.72644147     A.U. after   12 cycles
 SCF Done:  E(RwB97XD) =  -2900.72643272     A.U. after   11 cycles
 SCF Done:  E(RwB97XD) =  -2900.72646183     A.U. after   11 cycles
 SCF Done:  E(RwB97XD) =  -2900.72646841     A.U. after   10 cycles
 SCF Done:  E(RwB97XD) =  -2900.72646978     A.U. after   10 cycles
 SCF Done:  E(RwB97XD) =  -2900.72647022     A.U. after    9 cycles
 Optimization completed.
    -- Stationary point found.
 Normal termination of Gaussian 16 at Fri Feb 12 12:46:55 2021.

 ---------------------------------------------------------------------
 #N Geom=AllCheck Guess=TCheck SCRF=Check GenChk RwB97XD/def2TZVP Freq
 ---------------------------------------------------------------------

 Structure from the checkpoint file:  "/beegfs/scratch/user/q/tla25/Gau-47721.chk"
 ------------------------
 0_iteration/TS-305-0.out
 ------------------------
 Charge =  0 Multiplicity = 1

                         Standard orientation:
 ---------------------------------------------------------------------
 Center     Atomic      Atomic             Coordinates (Angstroms)
 Number     Number       Type             X           Y           Z
 ---------------------------------------------------------------------
      1          6           0       -0.098708    0.474541    0.323246
      2          6           0       -0.177477    1.747640   -0.288414
      3          8           0       -1.126722    2.228697   -0.902682
      4          6           0        1.005612   -0.036397    0.986160
      5          6           0        2.291833   -0.536194   -1.551683
      6          1           0        2.579427   -1.211476   -2.358229
      7          1           0        1.395008    0.008694   -1.854052
      8          1           0        3.095188    0.179411   -1.386398
      9          7           0        2.009250   -1.242596   -0.312310
     10          1           0        1.371566   -2.014225   -0.463954
     11          1           0        2.847092   -1.609342    0.121519
     12          1           0        0.825300   -0.892149    1.624219
     13          6           0        2.151187    0.828185    1.434754
     14          1           0        1.815122    1.468708    2.251816
     15          1           0        2.966978    0.210720    1.805750
     16          1           0        2.533940    1.467299    0.641587
     17         35           0       -1.607257   -0.684466    0.107316
     18          1           0        0.738697    2.350642   -0.155084
 ---------------------------------------------------------------------

 SCF Done:  E(RwB97XD) =  -2900.72647022     A.U. after    1 cycles

 The electronic state is 1-A.
 Alpha  occ. eigenvalues -- -483.12068 -62.66914 -56.46009 -56.45683 -56.45678
 Alpha  occ. eigenvalues --  -19.21609 -14.47100 -10.35446 -10.34949 -10.31371
 Alpha  occ. eigenvalues --  -10.30968 -10.28948  -8.81034  -6.63126  -6.62081
 Alpha  occ. eigenvalues --   -6.62066  -2.73526  -2.73217  -2.73207  -2.72361
 Alpha  occ. eigenvalues --   -2.72361  -1.11950  -1.02759  -0.93520  -0.86972
 Alpha  occ. eigenvalues --   -0.79454  -0.78393  -0.72934  -0.62309  -0.61321
 Alpha  occ. eigenvalues --   -0.58039  -0.56998  -0.53929  -0.53510  -0.50372
 Alpha  occ. eigenvalues --   -0.49757  -0.48336  -0.46971  -0.46285  -0.44521
 Alpha  occ. eigenvalues --   -0.41303  -0.38195  -0.36838  -0.33104  -0.28536
 Alpha virt. eigenvalues --    0.03244   0.07970   0.10238   0.13315   0.13510
 Alpha virt. eigenvalues --    0.15102   0.15847   0.17567   0.18274   0.18651
 Alpha virt. eigenvalues --    0.19650   0.21263   0.22858   0.23426   0.24519

 Mulliken charges:
               1
     1  C   -0.102985
     2  C    0.079933
     3  O   -0.487366
     4  C    0.008317
     5  C   -0.302778
     6  H    0.154343
     7  H    0.150341
     8  H    0.156218
     9  N   -0.388049
    10  H    0.279950
    11  H    0.283668
    12  H    0.174993
    13  C   -0.391289
    14  H    0.163290
    15  H    0.148562
    16  H    0.144940
    17  Br  -0.161009
    18  H    0.088920
 Sum of Mulliken charges =  -0.00000

 Dipole moment (field-independent basis, Debye):
    X=             10.4117    Y=             -5.7392    Z=              1.9728  Tot=             12.0513
 Quadrupole moment (field-independent basis, Debye-Ang):
   XX=            -54.2543   YY=            -65.1411   ZZ=            -60.6510
   XY=              1.4051   XZ=             -2.3373   YZ=              5.9191

  Exact polarizability: 155.536 -14.836 141.518  10.123  -4.697 109.430
 Approx polarizability: 121.382 -10.437 115.742   9.408  -5.950  94.292

 ******    1 imaginary frequencies (negative Signs) ******

                      1                      2                      3
                      A                      A                      A
 Frequencies --   -327.9740                48.9919                69.4515
 Red. masses --      5.4057                 2.5813                 3.5838
 Frc consts  --      0.3426                 0.0037                 0.0102
 IR Inten    --    768.2495                 0.5457                 0.5633

                      4                      5                      6
                      A                      A                      A
 Frequencies --    106.7301               161.0587               181.5911
 Red. masses --      2.4978                 1.3530                 5.2328
 Frc consts  --      0.0168                 0.0207                 0.1017
 IR Inten    --     10.4958                 0.2817                11.3914

                      7                      8                      9
                      A                      A                      A
 Frequencies --    196.8195               233.9459               246.7311
 Red. masses --      2.5553                 3.1412                 1.3565
 Frc consts  --      0.0583                 0.1013                 0.0487
 IR Inten    --      2.6220                 4.4728                 1.0089

                     10                     11                     12
                      A                      A                      A
 Frequencies --    289.6768               333.4495               389.7830
 Red. masses --      2.6380                 2.8096                 3.3296
 Frc consts  --      0.1304                 0.1841                 0.2980
 IR Inten    --      4.6252                 6.7792                10.3705

                     13                     14                     15
                      A                      A                      A
 Frequencies --    494.0808               601.3818               608.5935
 Red. masses --      3.5604                 2.1786                 2.3364
 Frc consts  --      0.5121                 0.4642                 0.5099
 IR Inten    --     76.3514                44.8043                46.0427

                     16                     17                     18
                      A                      A                      A
 Frequencies --    672.5840               955.5905               984.4557
 Red. masses --      3.2561                 1.3283                 1.3668
 Frc consts  --      0.8678                 0.7147                 0.7805
 IR Inten    --     73.2936                33.6811               150.1342

                     19                     20                     21
                      A                      A                      A
 Frequencies --    995.7330              1013.5795              1045.0666
 Red. masses --      1.1547                 1.6792                 1.6276
 Frc consts  --      0.6745                 1.0164                 1.0473
 IR Inten    --     20.0228                 1.6138                 4.6424

                     22                     23                     24
                      A                      A                      A
 Frequencies --   1067.2391              1073.9240              1152.7115
 Red. masses --      1.8542                 2.2937                 1.6442
 Frc consts  --      1.2443                 1.5586                 1.2872
 IR Inten    --     58.0285                48.4711               108.3272

                     25                     26                     27
                      A                      A                      A
 Frequencies --   1197.6911              1200.5851              1344.3999
 Red. masses --      1.5734                 1.6954                 1.3376
 Frc consts  --      1.3298                 1.4398                 1.4244
 IR Inten    --      5.3469                20.5025                 5.1703

                     28                     29                     30
                      A                      A                      A
 Frequencies --   1347.9127              1414.8016              1427.2054
 Red. masses --      1.5117                 1.2268                 1.6236
 Frc consts  --      1.6183                 1.4468                 1.9485
 IR Inten    --    341.2467                52.4529                23.5987

                     31                     32                     33
                      A                      A                      A
 Frequencies --   1456.1248              1472.3511              1492.0814
 Red. masses --      1.2032                 1.1978                 1.0512
 Frc consts  --      1.5031                 1.5298                 1.3788
 IR Inten    --     41.9787                89.4833                 9.1343

                     34                     35                     36
                      A                      A                      A
 Frequencies --   1499.6326              1506.6108              1533.2986
 Red. masses --      1.0592                 1.0403                 2.2654
 Frc consts  --      1.4034                 1.3913                 3.1380
 IR Inten    --     14.2130                20.9754               284.9136

                     37                     38                     39
                      A                      A                      A
 Frequencies --   1651.9694              1677.7677              2958.9804
 Red. masses --      1.0905                 8.3359                 1.0810
 Frc consts  --      1.7535                13.8251                 5.5767
 IR Inten    --     80.2963              1026.2520               106.9840

                     40                     41                     42
                      A                      A                      A
 Frequencies --   3056.4423              3073.3532              3126.1041
 Red. masses --      1.0343                 1.0376                 1.1036
 Frc consts  --      5.6927                 5.7743                 6.3546
 IR Inten    --     33.5214                15.2491                18.8357

                     43                     44                     45
                      A                      A                      A
 Frequencies --   3145.1568              3155.5346              3163.1525
 Red. masses --      1.1000                 1.1043                 1.1029
 Frc consts  --      6.4109                 6.4787                 6.5014
 IR Inten    --     16.0098                20.0994                11.8075

                     46                     47                     48
                      A                      A                      A
 Frequencies --   3197.9825              3537.6137              3619.9222
 Red. masses --      1.0916                 1.0503                 1.0962
 Frc consts  --      6.5776                 7.7442                 8.4634
 IR Inten    --     12.7164                40.6513                41.3995

 - Thermochemistry -
 -------------------
 Temperature   298.150 Kelvin.  Pressure   1.00000 Atm.
 Atom     1 has atomic number  6 and mass  12.00000

 Molecular mass:   178.99458 amu.
 Principal axes and moments of inertia in atomic units:
                           1         2         3
     Eigenvalues --  1117.595721996.813972363.66319
           X            0.99908  -0.04283  -0.00066
           Y            0.04278   0.99695   0.06531
           Z           -0.00214  -0.06528   0.99786
 This molecule is an asymmetric top.
 Rotational symmetry number  1.
 Warning -- assumption of classical behavior for rotation
           may cause significant error
 Rotational temperatures (Kelvin)      0.07750     0.04338     0.03664
 Rotational constants (GHZ):           1.61484     0.90381     0.76354
    1 imaginary frequencies ignored.
 Zero-point vibrational energy     389862.0 (Joules/Mol)
                                   93.17926 (Kcal/Mol)
 Warning -- explicit consideration of  14 degrees of freedom as
           vibrations may cause significant error
 Vibrational temperatures:     70.49    99.93   153.56   231.73   261.27
          (Kelvin)            283.18   336.60   354.99   416.78   479.76
                              560.81   710.87   865.25   875.63   967.70
                             1374.88  1416.41  1432.64  1458.31  1503.62
                             1535.52  1545.14  1658.49  1723.21  1727.37
                             1934.29  1939.35  2035.58  2053.43  2095.04
                             2118.38  2146.77  2157.64  2167.68  2206.07
                             2376.82  2413.93  4257.31  4397.54  4421.87
                             4497.77  4525.18  4540.11  4551.07  4601.18
                             5089.84  5208.26

 Zero-point correction=                           0.148491 (Hartree/Particle)
 Thermal correction to Energy=                    0.158621
 Thermal correction to Enthalpy=                  0.159565
 Thermal correction to Gibbs Free Energy=         0.111580
 Sum of electronic and zero-point Energies=          -2900.577980
 Sum of electronic and thermal Energies=             -2900.567849
 Sum of electronic and thermal Enthalpies=           -2900.566905
 Sum of electronic and thermal Free Energies=        -2900.614890

                     E (Thermal)             CV                S
                      KCal/Mol        Cal/Mol-Kelvin    Cal/Mol-Kelvin
 Total                   99.536             34.146            100.993
 Electronic               0.000              0.000              0.000
 Translational            0.889              2.981             41.453
 Rotational               0.889              2.981             30.046
 Vibrational             97.759             28.185             29.494
 Vibration     1          0.595              1.978              4.858
 Vibration     2          0.598              1.969              4.169
 Vibration     3          0.606              1.944              3.328
 Vibration     4          0.622              1.890              2.537
 Vibration     5          0.630              1.865              2.312
 Vibration     6          0.636              1.844              2.163
 Vibration     7          0.654              1.789              1.848
 Vibration     8          0.661              1.768              1.754
 Vibration     9          0.686              1.693              1.476
 Vibration    10          0.715              1.609              1.243
 Vibration    11          0.758              1.492              1.001
 Vibration    12          0.850              1.263              0.673
 Vibration    13          0.960              1.029              0.447
 Vibration    14          0.967              1.014              0.435

 Optimization completed.
    -- Stationary point found.
 Normal termination of Gaussian 16 at Fri Feb 12 12:55:28 2021.
