 Gaussian 16, Revision A.03,
 Gaussian 16:  ES64L-G16RevA.03 25-Dec-2016

 ----------------------------------------------------------------------
 # wB97XD def2tzvp, opt=(ts, noeigen, calcfc, maxcycles=70, maxstep=1),
  freq=noraman, scrf=(iefpcm, solvent=water)
 ----------------------------------------------------------------------

 ------------------------
 0_iteration/TS-390-0.out
 ------------------------
 Symbolic Z-matrix:
 Charge =  0 Multiplicity = 1

 SCF Done:  E(RwB97XD) =  -3454.99446091     A.U. after   15 cycles
 SCF Done:  E(RwB97XD) =  -3454.99446091     A.U. after    7 cycles
 Optimization completed.
    -- Stationary point found.
 Normal termination of Gaussian 16 at Tue Mar  2 02:35:56 2021.

 ---------------------------------------------------------------------
 #N Geom=AllCheck Guess=TCheck SCRF=Check GenChk RwB97XD/def2TZVP Freq
 ---------------------------------------------------------------------

 Structure from the checkpoint file:  "/beegfs/scratch/user/q/tla25/Gau-30857.chk"
 ------------------------
 0_iteration/TS-390-0.out
 ------------------------
 Charge =  0 Multiplicity = 1

                         Standard orientation:
 ---------------------------------------------------------------------
 Center     Atomic      Atomic             Coordinates (Angstroms)
 Number     Number       Type             X           Y           Z
 ---------------------------------------------------------------------
      1          6           0       -0.236073   -0.148201   -0.350928
      2          6           0        0.703469   -0.912746    0.485399
      3          8           0        0.333266   -1.573141    1.459410
      4          6           0       -0.286108    1.235696   -0.462549
      5          6           0       -1.580263    1.536619    1.929762
      6          1           0       -1.642307    2.040684    2.893085
      7          1           0       -2.528251    1.632659    1.405731
      8          1           0       -1.354309    0.482903    2.079228
      9          7           0       -0.518481    2.123806    1.109323
     10          1           0       -0.698225    3.101313    0.901998
     11          1           0        0.377407    2.075028    1.584263
     12          1           0       -1.151988    1.633771   -0.974702
     13         17           0        1.157930    2.165385   -0.994545
     14         35           0       -1.950309   -1.005125   -0.578898
     15          7           0        2.030801   -0.830959    0.173014
     16          6           0        2.524035   -0.724821   -1.186758
     17          6           0        2.983334   -1.383472    1.114036
     18          1           0        1.705503   -0.498572   -1.862699
     19          1           0        3.279550    0.058147   -1.268154
     20          1           0        2.977537   -1.676226   -1.484771
     21          1           0        2.656567   -1.191333    2.132607
     22          1           0        3.100355   -2.465053    0.985464
     23          1           0        3.951453   -0.908764    0.951246
 ---------------------------------------------------------------------

 SCF Done:  E(RwB97XD) =  -3454.99446091     A.U. after    1 cycles

 The electronic state is 1-A.
 Alpha  occ. eigenvalues -- -483.11630-101.69818 -62.66466 -56.45570 -56.45238
 Alpha  occ. eigenvalues --  -56.45222 -19.20647 -14.50445 -14.45739 -10.39806
 Alpha  occ. eigenvalues --  -10.38319 -10.32080 -10.30467 -10.30346 -10.30010
 Alpha  occ. eigenvalues --   -9.58415  -8.80579  -7.33046  -7.32201  -7.32168
 Alpha  occ. eigenvalues --   -6.62690  -6.61633  -6.61581  -2.73083  -2.72786
 Alpha  occ. eigenvalues --   -2.72744  -2.71888  -2.71888  -1.13474  -1.05979
 Alpha  occ. eigenvalues --   -1.03035  -0.96657  -0.90444  -0.82331  -0.81203
 Alpha  occ. eigenvalues --   -0.79696  -0.78497  -0.70748  -0.64793  -0.61822
 Alpha  occ. eigenvalues --   -0.59126  -0.58099  -0.56833  -0.55867  -0.54681
 Alpha  occ. eigenvalues --   -0.53412  -0.50430  -0.49075  -0.48456  -0.48217
 Alpha  occ. eigenvalues --   -0.47584  -0.46630  -0.45783  -0.43755  -0.40001
 Alpha  occ. eigenvalues --   -0.39577  -0.39307  -0.36420  -0.34462  -0.31936
 Alpha  occ. eigenvalues --   -0.26532
 Alpha virt. eigenvalues --    0.04935   0.07060   0.09290   0.11858   0.12785
 Alpha virt. eigenvalues --    0.14214   0.14521   0.14977   0.16651   0.17179
 Alpha virt. eigenvalues --    0.17631   0.18867   0.18994   0.20105   0.20803

 Mulliken charges:
               1
     1  C   -0.208608
     2  C    0.240801
     3  O   -0.509145
     4  C   -0.034174
     5  C   -0.303675
     6  H    0.164312
     7  H    0.162936
     8  H    0.158880
     9  N   -0.271015
    10  H    0.295547
    11  H    0.290183
    12  H    0.196608
    13  Cl  -0.130794
    14  Br  -0.182715
    15  N   -0.131033
    16  C   -0.292988
    17  C   -0.286987
    18  H    0.159987
    19  H    0.143026
    20  H    0.130969
    21  H    0.138926
    22  H    0.131878
    23  H    0.137081
 Sum of Mulliken charges =  -0.00000

 Dipole moment (field-independent basis, Debye):
    X=              1.5621    Y=              8.2967    Z=              1.8752  Tot=              8.6482
 Quadrupole moment (field-independent basis, Debye-Ang):
   XX=            -79.1833   YY=            -79.8891   ZZ=            -86.0071
   XY=            -10.8508   XZ=             -2.8527   YZ=             13.2343

  Exact polarizability: 192.881   7.290 183.611 -10.710  -0.572 154.371
 Approx polarizability: 153.417   8.748 148.553  -7.513  -2.614 132.366

 ******    1 imaginary frequencies (negative Signs) ******

                      1                      2                      3
                      A                      A                      A
 Frequencies --   -340.5582                38.6402                63.1749
 Red. masses --      6.3054                 4.8476                 5.1730
 Frc consts  --      0.4309                 0.0043                 0.0122
 IR Inten    --    722.2403                 2.9986                12.7076

                      4                      5                      6
                      A                      A                      A
 Frequencies --     80.9311                97.1971               113.3732
 Red. masses --      3.2986                 2.7629                 4.0214
 Frc consts  --      0.0127                 0.0154                 0.0305
 IR Inten    --      0.1659                12.7013                20.6355

                      7                      8                      9
                      A                      A                      A
 Frequencies --    153.5371               159.1351               172.7179
 Red. masses --      3.2427                 1.4255                 2.0525
 Frc consts  --      0.0450                 0.0213                 0.0361
 IR Inten    --      1.9500                 2.9240                 5.4083

                     10                     11                     12
                      A                      A                      A
 Frequencies --    185.9872               207.5745               230.1190
 Red. masses --      2.0884                 2.6717                 1.0989
 Frc consts  --      0.0426                 0.0678                 0.0343
 IR Inten    --      3.3926                 9.6685                 1.7084

                     13                     14                     15
                      A                      A                      A
 Frequencies --    250.9267               263.7955               285.7434
 Red. masses --      3.5056                 4.8647                 3.8010
 Frc consts  --      0.1301                 0.1995                 0.1829
 IR Inten    --     18.2289                28.7318                 7.0344

                     16                     17                     18
                      A                      A                      A
 Frequencies --    350.2696               375.9742               440.2363
 Red. masses --      6.5525                 3.3485                 2.9192
 Frc consts  --      0.4737                 0.2789                 0.3333
 IR Inten    --     50.2962                27.1596                33.8675

                     19                     20                     21
                      A                      A                      A
 Frequencies --    477.7726               589.7722               676.3108
 Red. masses --      2.9471                 6.4324                 7.0243
 Frc consts  --      0.3964                 1.3182                 1.8930
 IR Inten    --     15.2781                48.8275               246.7094

                     22                     23                     24
                      A                      A                      A
 Frequencies --    706.6090               765.7169               802.3088
 Red. masses --      2.8911                 2.7923                 4.8386
 Frc consts  --      0.8505                 0.9646                 1.8351
 IR Inten    --     53.7440                14.3069                25.5696

                     25                     26                     27
                      A                      A                      A
 Frequencies --    877.3399              1014.9743              1027.8497
 Red. masses --      4.4324                 2.3211                 1.1298
 Frc consts  --      2.0101                 1.4088                 0.7033
 IR Inten    --     34.6560                55.9657                32.6955

                     28                     29                     30
                      A                      A                      A
 Frequencies --   1051.4163              1081.3851              1091.3942
 Red. masses --      1.5664                 1.3839                 2.2653
 Frc consts  --      1.0203                 0.9535                 1.5898
 IR Inten    --     23.3122                20.3667                63.3386

                     31                     32                     33
                      A                      A                      A
 Frequencies --   1129.5927              1171.1948              1177.2958
 Red. masses --      1.2392                 1.4409                 1.9003
 Frc consts  --      0.9316                 1.1645                 1.5518
 IR Inten    --      2.2465                 4.2713               158.0403

                     34                     35                     36
                      A                      A                      A
 Frequencies --   1180.4770              1260.7979              1296.4227
 Red. masses --      1.1688                 1.3582                 3.2522
 Frc consts  --      0.9596                 1.2721                 3.2204
 IR Inten    --    103.5998                60.8041                22.1409

                     37                     38                     39
                      A                      A                      A
 Frequencies --   1325.7314              1344.5578              1388.0604
 Red. masses --      1.6888                 1.3143                 4.9450
 Frc consts  --      1.7488                 1.3999                 5.6135
 IR Inten    --     38.9223                 6.7335               685.4499

                     40                     41                     42
                      A                      A                      A
 Frequencies --   1422.6594              1442.7169              1465.6901
 Red. masses --      2.2142                 1.1795                 1.2114
 Frc consts  --      2.6404                 1.4465                 1.5333
 IR Inten    --    227.1600                14.9825                 7.0816

                     43                     44                     45
                      A                      A                      A
 Frequencies --   1467.6986              1474.3819              1481.8687
 Red. masses --      1.1925                 1.0798                 1.0602
 Frc consts  --      1.5134                 1.3830                 1.3717
 IR Inten    --     47.5224                 6.3059                25.9308

                     46                     47                     48
                      A                      A                      A
 Frequencies --   1495.4599              1500.2561              1504.6691
 Red. masses --      1.0385                 1.0565                 1.0317
 Frc consts  --      1.3684                 1.4010                 1.3762
 IR Inten    --     23.7595                24.4660                22.4650

                     49                     50                     51
                      A                      A                      A
 Frequencies --   1530.4420              1642.9899              1647.4493
 Red. masses --      1.3857                 1.1177                 7.2214
 Frc consts  --      1.9123                 1.7777                11.5478
 IR Inten    --    179.0019                40.8973               693.1996

                     52                     53                     54
                      A                      A                      A
 Frequencies --   3026.8317              3029.0594              3080.1703
 Red. masses --      1.0444                 1.0481                 1.0328
 Frc consts  --      5.6378                 5.6660                 5.7732
 IR Inten    --     43.8787               156.1924                25.3756

                     55                     56                     57
                      A                      A                      A
 Frequencies --   3098.8658              3108.9969              3166.4848
 Red. masses --      1.0946                 1.0917                 1.1058
 Frc consts  --      6.1931                 6.2174                 6.5325
 IR Inten    --     63.5281                27.3142                 9.2263

                     58                     59                     60
                      A                      A                      A
 Frequencies --   3169.5752              3178.6802              3181.5575
 Red. masses --      1.1013                 1.0996                 1.1068
 Frc consts  --      6.5189                 6.5459                 6.6008
 IR Inten    --     14.6940                 7.4080                 4.7376

                     61                     62                     63
                      A                      A                      A
 Frequencies --   3205.8071              3504.9178              3586.1777
 Red. masses --      1.0912                 1.0511                 1.0968
 Frc consts  --      6.6072                 7.6075                 8.3105
 IR Inten    --      0.8999                50.5828                55.1863

 - Thermochemistry -
 -------------------
 Temperature   298.150 Kelvin.  Pressure   1.00000 Atm.
 Atom     1 has atomic number  6 and mass  12.00000

 Molecular mass:   241.98215 amu.
 Principal axes and moments of inertia in atomic units:
                           1         2         3
     Eigenvalues --  2478.778563338.574364194.37171
           X            0.97718  -0.20863  -0.03988
           Y            0.21026   0.97673   0.04230
           Z            0.03013  -0.04972   0.99831
 This molecule is an asymmetric top.
 Rotational symmetry number  1.
 Warning -- assumption of classical behavior for rotation
           may cause significant error
 Rotational temperatures (Kelvin)      0.03494     0.02594     0.02065
 Rotational constants (GHZ):           0.72808     0.54057     0.43028
    1 imaginary frequencies ignored.
 Zero-point vibrational energy     486399.9 (Joules/Mol)
                                  116.25237 (Kcal/Mol)
 Warning -- explicit consideration of  19 degrees of freedom as
           vibrations may cause significant error
 Vibrational temperatures:     55.59    90.89   116.44   139.84   163.12
          (Kelvin)            220.91   228.96   248.50   267.59   298.65
                              331.09   361.03   379.54   411.12   503.96
                              540.94   633.40   687.41   848.55   973.06
                             1016.65  1101.70  1154.34  1262.30  1460.32
                             1478.85  1512.75  1555.87  1570.27  1625.23
                             1685.09  1693.87  1698.44  1814.01  1865.26
                             1907.43  1934.52  1997.11  2046.89  2075.75
                             2108.80  2111.69  2121.31  2132.08  2151.63
                             2158.53  2164.88  2201.96  2363.90  2370.31
                             4354.94  4358.14  4431.68  4458.58  4473.15
                             4555.87  4560.31  4573.41  4577.55  4612.44
                             5042.79  5159.71

 Zero-point correction=                           0.185260 (Hartree/Particle)
 Thermal correction to Energy=                    0.199058
 Thermal correction to Enthalpy=                  0.200002
 Thermal correction to Gibbs Free Energy=         0.143222
 Sum of electronic and zero-point Energies=          -3454.809201
 Sum of electronic and thermal Energies=             -3454.795403
 Sum of electronic and thermal Enthalpies=           -3454.794458
 Sum of electronic and thermal Free Energies=        -3454.851239

                     E (Thermal)             CV                S
                      KCal/Mol        Cal/Mol-Kelvin    Cal/Mol-Kelvin
 Total                  124.911             46.657            119.504
 Electronic               0.000              0.000              0.000
 Translational            0.889              2.981             42.352
 Rotational               0.889              2.981             31.918
 Vibrational            123.133             40.695             45.234
 Vibration     1          0.594              1.981              5.328
 Vibration     2          0.597              1.972              4.355
 Vibration     3          0.600              1.962              3.868
 Vibration     4          0.603              1.951              3.510
 Vibration     5          0.607              1.938              3.210
 Vibration     6          0.619              1.899              2.628
 Vibration     7          0.621              1.892              2.560
 Vibration     8          0.626              1.876              2.406
 Vibration     9          0.632              1.859              2.267
 Vibration    10          0.641              1.829              2.065
 Vibration    11          0.652              1.795              1.878
 Vibration    12          0.663              1.761              1.724
 Vibration    13          0.670              1.739              1.637
 Vibration    14          0.684              1.700              1.499
 Vibration    15          0.727              1.575              1.165
 Vibration    16          0.747              1.521              1.055
 Vibration    17          0.800              1.382              0.826
 Vibration    18          0.834              1.299              0.716
 Vibration    19          0.947              1.054              0.468

 Optimization completed.
    -- Stationary point found.
 Normal termination of Gaussian 16 at Tue Mar  2 03:01:34 2021.
