 Gaussian 16, Revision A.03,
 Gaussian 16:  ES64L-G16RevA.03 25-Dec-2016

 ----------------------------------------------------------------------
 # wB97XD def2tzvp, opt=(ts, noeigen, calcfc, maxcycles=70, maxstep=8),
  freq=noraman, scrf=(iefpcm, solvent=water)
 ----------------------------------------------------------------------

 ------------------------
 0_iteration/TS-395-0.out
 ------------------------
 Symbolic Z-matrix:
 Charge =  0 Multiplicity = 1

 SCF Done:  E(RwB97XD) =  -1262.38879496     A.U. after   15 cycles
 SCF Done:  E(RwB97XD) =  -1262.38777134     A.U. after   13 cycles
 SCF Done:  E(RwB97XD) =  -1262.38719434     A.U. after   13 cycles
 SCF Done:  E(RwB97XD) =  -1262.38712953     A.U. after   12 cycles
 SCF Done:  E(RwB97XD) =  -1262.38767681     A.U. after   12 cycles
 SCF Done:  E(RwB97XD) =  -1262.38877321     A.U. after   12 cycles
 SCF Done:  E(RwB97XD) =  -1262.38972261     A.U. after   12 cycles
 SCF Done:  E(RwB97XD) =  -1262.39029939     A.U. after   12 cycles
 SCF Done:  E(RwB97XD) =  -1262.39037600     A.U. after   12 cycles
 SCF Done:  E(RwB97XD) =  -1262.39038254     A.U. after   10 cycles
 SCF Done:  E(RwB97XD) =  -1262.39038521     A.U. after   10 cycles
 SCF Done:  E(RwB97XD) =  -1262.39038375     A.U. after   11 cycles
 SCF Done:  E(RwB97XD) =  -1262.39038706     A.U. after   11 cycles
 SCF Done:  E(RwB97XD) =  -1262.39038703     A.U. after    9 cycles
 SCF Done:  E(RwB97XD) =  -1262.39038677     A.U. after   10 cycles
 SCF Done:  E(RwB97XD) =  -1262.39038662     A.U. after    9 cycles
 SCF Done:  E(RwB97XD) =  -1262.39038699     A.U. after    8 cycles
 SCF Done:  E(RwB97XD) =  -1262.39038693     A.U. after    8 cycles
 SCF Done:  E(RwB97XD) =  -1262.39038693     A.U. after    7 cycles
 Optimization completed.
    -- Stationary point found.
 Normal termination of Gaussian 16 at Fri Feb 12 13:20:06 2021.

 ---------------------------------------------------------------------
 #N Geom=AllCheck Guess=TCheck SCRF=Check GenChk RwB97XD/def2TZVP Freq
 ---------------------------------------------------------------------

 Structure from the checkpoint file:  "/beegfs/scratch/user/q/tla25/Gau-27398.chk"
 ------------------------
 0_iteration/TS-395-0.out
 ------------------------
 Charge =  0 Multiplicity = 1

                         Standard orientation:
 ---------------------------------------------------------------------
 Center     Atomic      Atomic             Coordinates (Angstroms)
 Number     Number       Type             X           Y           Z
 ---------------------------------------------------------------------
      1          6           0       -0.553001   -0.037360   -0.380126
      2          6           0       -1.038082   -0.972792    0.617688
      3          8           0       -0.254367   -1.612193    1.327485
      4          6           0        0.769143    0.145638   -0.699552
      5          6           0        0.985212    2.127060    1.323271
      6          1           0        0.971059    2.943349    0.603421
      7          1           0       -0.037994    1.790340    1.493384
      8          1           0        1.400496    2.484464    2.266052
      9          7           0        1.750380    1.015937    0.778122
     10          1           0        2.676528    1.289481    0.472854
     11          1           0        1.837675    0.257883    1.444936
     12          1           0        0.997524    0.904857   -1.433084
     13         17           0        1.874970   -1.217830   -0.881671
     14         17           0       -1.677458    1.139673   -1.063407
     15          7           0       -2.378264   -1.118624    0.754809
     16          1           0       -3.033534   -0.587224    0.212746
     17          1           0       -2.718963   -1.713397    1.487923
 ---------------------------------------------------------------------

 SCF Done:  E(RwB97XD) =  -1262.39038693     A.U. after    1 cycles

 The electronic state is 1-A.
 Alpha  occ. eigenvalues -- -101.69973-101.69538 -19.20593 -14.47805 -14.44355
 Alpha  occ. eigenvalues --  -10.39095 -10.38920 -10.31695 -10.31513  -9.58546
 Alpha  occ. eigenvalues --   -9.58061  -7.33202  -7.32693  -7.32331  -7.32280
 Alpha  occ. eigenvalues --   -7.31869  -7.31816  -1.13325  -1.03609  -1.00395
 Alpha  occ. eigenvalues --   -0.97870  -0.94697  -0.82918  -0.78623  -0.74588
 Alpha  occ. eigenvalues --   -0.65940  -0.63008  -0.61626  -0.57638  -0.56959
 Alpha  occ. eigenvalues --   -0.54858  -0.53338  -0.51885  -0.50365  -0.48084
 Alpha  occ. eigenvalues --   -0.47791  -0.46026  -0.42739  -0.41056  -0.40369
 Alpha  occ. eigenvalues --   -0.38140  -0.35300  -0.34156  -0.27977
 Alpha virt. eigenvalues --    0.03952   0.08273   0.10235   0.12781   0.13228
 Alpha virt. eigenvalues --    0.15074   0.15799   0.17530   0.18380   0.18812
 Alpha virt. eigenvalues --    0.19346   0.20659   0.22844   0.23469   0.25272

 Mulliken charges:
               1
     1  C   -0.154289
     2  C    0.291079
     3  O   -0.519974
     4  C    0.008613
     5  C   -0.284737
     6  H    0.154231
     7  H    0.152814
     8  H    0.152170
     9  N   -0.364240
    10  H    0.286769
    11  H    0.280096
    12  H    0.194705
    13  Cl  -0.104972
    14  Cl  -0.169233
    15  N   -0.465694
    16  H    0.270099
    17  H    0.272563
 Sum of Mulliken charges =  -0.00000

 Dipole moment (field-independent basis, Debye):
    X=              1.7932    Y=              5.4235    Z=              1.3223  Tot=              5.8633
 Quadrupole moment (field-independent basis, Debye-Ang):
   XX=            -52.1769   YY=            -68.9271   ZZ=            -68.3964
   XY=             10.9751   XZ=             -0.4053   YZ=              4.4298

  Exact polarizability: 161.648   2.595 127.789   4.424  -3.170 109.601
 Approx polarizability: 128.807  -2.454 107.393   4.839  -5.441  95.973

 ******    1 imaginary frequencies (negative Signs) ******

                      1                      2                      3
                      A                      A                      A
 Frequencies --   -359.3464                57.5321                63.5607
 Red. masses --      5.9734                 3.7430                 2.8892
 Frc consts  --      0.4545                 0.0073                 0.0069
 IR Inten    --    784.1043                 1.3197                48.2482

                      4                      5                      6
                      A                      A                      A
 Frequencies --     81.8043                97.0142               119.9109
 Red. masses --      3.7455                 1.1623                 5.0868
 Frc consts  --      0.0148                 0.0064                 0.0431
 IR Inten    --      8.8308               297.0859                10.4732

                      7                      8                      9
                      A                      A                      A
 Frequencies --    158.1547               185.5720               206.9180
 Red. masses --      8.6326                 1.2814                 5.2406
 Frc consts  --      0.1272                 0.0260                 0.1322
 IR Inten    --      2.1457                 5.4415                 2.0664

                     10                     11                     12
                      A                      A                      A
 Frequencies --    250.4950               287.8911               352.6803
 Red. masses --      5.2270                 4.3699                 9.4572
 Frc consts  --      0.1932                 0.2134                 0.6931
 IR Inten    --      3.7046                44.2930                17.0310

                     13                     14                     15
                      A                      A                      A
 Frequencies --    408.8662               456.6621               511.9420
 Red. masses --      3.4609                 7.8156                 2.6214
 Frc consts  --      0.3409                 0.9603                 0.4048
 IR Inten    --     50.3625                36.3608                16.0911

                     16                     17                     18
                      A                      A                      A
 Frequencies --    553.6291               641.1584               757.0648
 Red. masses --      1.1255                 1.7018                 4.3598
 Frc consts  --      0.2032                 0.4122                 1.4723
 IR Inten    --      1.8241                48.7122                61.8714

                     19                     20                     21
                      A                      A                      A
 Frequencies --    778.4929               793.8411               987.7874
 Red. masses --      7.8020                 6.5084                 1.1308
 Frc consts  --      2.7859                 2.4165                 0.6501
 IR Inten    --     79.9730               136.0732                82.1493

                     22                     23                     24
                      A                      A                      A
 Frequencies --    999.0035              1029.2753              1083.7428
 Red. masses --      1.5986                 1.4711                 2.4767
 Frc consts  --      0.9400                 0.9182                 1.7139
 IR Inten    --      2.4057                61.3188                85.5877

                     25                     26                     27
                      A                      A                      A
 Frequencies --   1086.9266              1099.9652              1203.5298
 Red. masses --      2.0850                 1.4545                 1.4160
 Frc consts  --      1.4513                 1.0368                 1.2085
 IR Inten    --     15.8515                25.1382                20.1857

                     28                     29                     30
                      A                      A                      A
 Frequencies --   1284.0513              1343.4873              1402.9348
 Red. masses --      1.3759                 1.3274                 3.2695
 Frc consts  --      1.3366                 1.4116                 3.7915
 IR Inten    --     15.9762                 2.4311               339.8820

                     31                     32                     33
                      A                      A                      A
 Frequencies --   1444.6915              1474.0548              1489.9599
 Red. masses --      2.1501                 1.9520                 1.0414
 Frc consts  --      2.6440                 2.4990                 1.3621
 IR Inten    --    579.6891               327.1687                12.8401

                     34                     35                     36
                      A                      A                      A
 Frequencies --   1505.8977              1600.4170              1638.5098
 Red. masses --      1.0334                 1.3543                 1.1092
 Frc consts  --      1.3807                 2.0438                 1.7545
 IR Inten    --     10.9824               280.2353               121.8622

                     37                     38                     39
                      A                      A                      A
 Frequencies --   1673.4022              3063.4012              3138.1659
 Red. masses --      5.6505                 1.0331                 1.1046
 Frc consts  --      9.3227                 5.7119                 6.4091
 IR Inten    --    534.1208                36.2192                15.2564

                     40                     41                     42
                      A                      A                      A
 Frequencies --   3159.4098              3230.8190              3527.5388
 Red. masses --      1.1055                 1.0923                 1.0501
 Frc consts  --      6.5019                 6.7177                 7.6987
 IR Inten    --     18.0295                 2.1400                45.5676

                     43                     44                     45
                      A                      A                      A
 Frequencies --   3616.2963              3634.4064              3763.2260
 Red. masses --      1.0971                 1.0452                 1.1058
 Frc consts  --      8.4529                 8.1343                 9.2264
 IR Inten    --     56.7757               101.4235                98.4426

 - Thermochemistry -
 -------------------
 Temperature   298.150 Kelvin.  Pressure   1.00000 Atm.
 Atom     1 has atomic number  6 and mass  12.00000

 Molecular mass:   170.00137 amu.
 Principal axes and moments of inertia in atomic units:
                           1         2         3
     Eigenvalues --  1485.873132043.109452400.30942
           X            0.99033   0.13823   0.01219
           Y           -0.13876   0.98742   0.07577
           Z           -0.00156  -0.07673   0.99705
 This molecule is an asymmetric top.
 Rotational symmetry number  1.
 Warning -- assumption of classical behavior for rotation
           may cause significant error
 Rotational temperatures (Kelvin)      0.05829     0.04239     0.03608
 Rotational constants (GHZ):           1.21460     0.88333     0.75188
    1 imaginary frequencies ignored.
 Zero-point vibrational energy     336414.4 (Joules/Mol)
                                   80.40496 (Kcal/Mol)
 Warning -- explicit consideration of  15 degrees of freedom as
           vibrations may cause significant error
 Vibrational temperatures:     82.78    91.45   117.70   139.58   172.52
          (Kelvin)            227.55   267.00   297.71   360.41   414.21
                              507.43   588.27   657.03   736.57   796.55
                              922.48  1089.25  1120.08  1142.16  1421.21
                             1437.34  1480.90  1559.26  1563.84  1582.60
                             1731.61  1847.46  1932.98  2018.51  2078.59
                             2120.84  2143.72  2166.65  2302.64  2357.45
                             2407.65  4407.55  4515.12  4545.69  4648.43
                             5075.34  5203.04  5229.10  5414.44

 Zero-point correction=                           0.128133 (Hartree/Particle)
 Thermal correction to Energy=                    0.139461
 Thermal correction to Enthalpy=                  0.140405
 Thermal correction to Gibbs Free Energy=         0.089620
 Sum of electronic and zero-point Energies=          -1262.262253
 Sum of electronic and thermal Energies=             -1262.250926
 Sum of electronic and thermal Enthalpies=           -1262.249982
 Sum of electronic and thermal Free Energies=        -1262.300767

                     E (Thermal)             CV                S
                      KCal/Mol        Cal/Mol-Kelvin    Cal/Mol-Kelvin
 Total                   87.513             37.570            106.886
 Electronic               0.000              0.000              0.000
 Translational            0.889              2.981             41.300
 Rotational               0.889              2.981             30.367
 Vibrational             85.736             31.608             35.219
 Vibration     1          0.596              1.974              4.540
 Vibration     2          0.597              1.972              4.343
 Vibration     3          0.600              1.962              3.847
 Vibration     4          0.603              1.951              3.513
 Vibration     5          0.609              1.933              3.102
 Vibration     6          0.621              1.893              2.572
 Vibration     7          0.632              1.860              2.272
 Vibration     8          0.641              1.830              2.071
 Vibration     9          0.663              1.762              1.727
 Vibration    10          0.685              1.696              1.486
 Vibration    11          0.729              1.570              1.154
 Vibration    12          0.773              1.451              0.931
 Vibration    13          0.815              1.346              0.776
 Vibration    14          0.867              1.224              0.629
 Vibration    15          0.909              1.132              0.537

 Optimization completed.
    -- Stationary point found.
 Normal termination of Gaussian 16 at Fri Feb 12 13:28:22 2021.
