 Gaussian 16, Revision A.03,
 Gaussian 16:  ES64L-G16RevA.03 25-Dec-2016

 ----------------------------------------------------------------------
 # wB97XD def2tzvp, opt=(ts, noeigen, calcfc, maxcycles=70, maxstep=8),
  freq=noraman, scrf=(iefpcm, solvent=water)
 ----------------------------------------------------------------------

 ------------------------
 0_iteration/TS-330-0.out
 ------------------------
 Symbolic Z-matrix:
 Charge =  0 Multiplicity = 1

 SCF Done:  E(RwB97XD) =  -2900.71465749     A.U. after   15 cycles
 SCF Done:  E(RwB97XD) =  -2900.71422169     A.U. after   12 cycles
 SCF Done:  E(RwB97XD) =  -2900.71410606     A.U. after   12 cycles
 SCF Done:  E(RwB97XD) =  -2900.71421726     A.U. after   11 cycles
 SCF Done:  E(RwB97XD) =  -2900.71484149     A.U. after   13 cycles
 SCF Done:  E(RwB97XD) =  -2900.71576320     A.U. after   13 cycles
 SCF Done:  E(RwB97XD) =  -2900.71662003     A.U. after   14 cycles
 SCF Done:  E(RwB97XD) =  -2900.71711088     A.U. after   12 cycles
 SCF Done:  E(RwB97XD) =  -2900.71727211     A.U. after   12 cycles
 SCF Done:  E(RwB97XD) =  -2900.71729082     A.U. after   11 cycles
 SCF Done:  E(RwB97XD) =  -2900.71712369     A.U. after   12 cycles
 SCF Done:  E(RwB97XD) =  -2900.71728618     A.U. after   12 cycles
 SCF Done:  E(RwB97XD) =  -2900.71728710     A.U. after   11 cycles
 SCF Done:  E(RwB97XD) =  -2900.71727446     A.U. after   11 cycles
 SCF Done:  E(RwB97XD) =  -2900.71729763     A.U. after   11 cycles
 SCF Done:  E(RwB97XD) =  -2900.71729747     A.U. after    9 cycles
 SCF Done:  E(RwB97XD) =  -2900.71729852     A.U. after    8 cycles
 SCF Done:  E(RwB97XD) =  -2900.71729854     A.U. after    7 cycles
 SCF Done:  E(RwB97XD) =  -2900.71729853     A.U. after    7 cycles
 Optimization completed.
    -- Stationary point found.
 Normal termination of Gaussian 16 at Fri Feb 12 12:49:37 2021.

 ---------------------------------------------------------------------
 #N Geom=AllCheck Guess=TCheck SCRF=Check GenChk RwB97XD/def2TZVP Freq
 ---------------------------------------------------------------------

 Structure from the checkpoint file:  "/beegfs/scratch/user/q/tla25/Gau-76902.chk"
 ------------------------
 0_iteration/TS-330-0.out
 ------------------------
 Charge =  0 Multiplicity = 1

                         Standard orientation:
 ---------------------------------------------------------------------
 Center     Atomic      Atomic             Coordinates (Angstroms)
 Number     Number       Type             X           Y           Z
 ---------------------------------------------------------------------
      1          6           0       -1.082181    0.101314   -0.931487
      2          6           0       -1.956335   -0.664489   -0.095752
      3          8           0       -3.130871   -0.864052   -0.425980
      4          6           0        0.245209    0.442575   -0.778593
      5          6           0       -0.495359    2.933510    0.254574
      6          1           0       -0.490426    3.686697    1.041946
      7          1           0       -0.315834    3.413157   -0.706041
      8          1           0       -1.470371    2.445584    0.226190
      9          7           0        0.519507    1.913318    0.476910
     10          1           0        1.460282    2.270101    0.355083
     11          1           0        0.454913    1.517243    1.407297
     12          1           0        0.704410    0.975168   -1.598794
     13         35           0        1.580176   -0.758515   -0.043219
     14          1           0       -1.566787    0.565911   -1.783553
     15          6           0       -1.476381   -1.244688    1.219104
     16          1           0       -0.811968   -0.573087    1.761968
     17          1           0       -2.344283   -1.473566    1.834788
     18          1           0       -0.925397   -2.169311    1.036152
 ---------------------------------------------------------------------

 SCF Done:  E(RwB97XD) =  -2900.71729853     A.U. after    1 cycles

 The electronic state is 1-A.
 Alpha  occ. eigenvalues -- -483.13160 -62.68026 -56.47133 -56.46791 -56.46776
 Alpha  occ. eigenvalues --  -19.20557 -14.48591 -10.38510 -10.35564 -10.31650
 Alpha  occ. eigenvalues --  -10.27238 -10.25683  -8.82149  -6.64280  -6.63192
 Alpha  occ. eigenvalues --   -6.63140  -2.74671  -2.74365  -2.74324  -2.73444
 Alpha  occ. eigenvalues --   -2.73444  -1.11228  -1.03973  -0.92602  -0.85127
 Alpha  occ. eigenvalues --   -0.81720  -0.78875  -0.71515  -0.63583  -0.60010
 Alpha  occ. eigenvalues --   -0.57164  -0.55965  -0.54927  -0.53240  -0.51474
 Alpha  occ. eigenvalues --   -0.49224  -0.48048  -0.47266  -0.45208  -0.43656
 Alpha  occ. eigenvalues --   -0.42957  -0.37443  -0.36906  -0.32347  -0.28637
 Alpha virt. eigenvalues --    0.03753   0.05849   0.09831   0.13132   0.14284
 Alpha virt. eigenvalues --    0.14843   0.15597   0.17359   0.18785   0.19342
 Alpha virt. eigenvalues --    0.19976   0.20919   0.22163   0.23283   0.24619

 Mulliken charges:
               1
     1  C   -0.423565
     2  C    0.279481
     3  O   -0.514134
     4  C   -0.008268
     5  C   -0.272392
     6  H    0.155618
     7  H    0.155188
     8  H    0.150817
     9  N   -0.345414
    10  H    0.291168
    11  H    0.280280
    12  H    0.194242
    13  Br  -0.109042
    14  H    0.136268
    15  C   -0.354870
    16  H    0.112636
    17  H    0.126070
    18  H    0.145918
 Sum of Mulliken charges =  -0.00000

 Dipole moment (field-independent basis, Debye):
    X=              6.9231    Y=              7.3832    Z=              2.9005  Tot=             10.5287
 Quadrupole moment (field-independent basis, Debye-Ang):
   XX=            -84.5281   YY=            -50.2541   ZZ=            -59.1551
   XY=             -2.6411   XZ=             -4.4010   YZ=             -0.9514

  Exact polarizability: 167.223  14.897 138.362   9.508   0.154 109.069
 Approx polarizability: 131.101   9.120 108.692   8.383  -0.180  94.026

 ******    1 imaginary frequencies (negative Signs) ******

                      1                      2                      3
                      A                      A                      A
 Frequencies --   -377.8052                59.3279                72.3685
 Red. masses --      5.5309                 2.5606                 5.4332
 Frc consts  --      0.4651                 0.0053                 0.0168
 IR Inten    --    853.2798                 0.7154                 7.1752

                      4                      5                      6
                      A                      A                      A
 Frequencies --    105.2661               155.9406               160.0730
 Red. masses --      2.2071                 4.7617                 1.4820
 Frc consts  --      0.0144                 0.0682                 0.0224
 IR Inten    --     16.0813                 2.1212                 4.8796

                      7                      8                      9
                      A                      A                      A
 Frequencies --    197.2067               220.1609               269.1985
 Red. masses --      2.4965                 1.0571                 3.9029
 Frc consts  --      0.0572                 0.0302                 0.1666
 IR Inten    --      4.5717                 1.2826                24.8490

                     10                     11                     12
                      A                      A                      A
 Frequencies --    299.8018               407.3864               502.0004
 Red. masses --      4.1342                 3.0536                 4.0863
 Frc consts  --      0.2189                 0.2986                 0.6067
 IR Inten    --      4.0967                62.3378                30.1204

                     13                     14                     15
                      A                      A                      A
 Frequencies --    585.4641               594.5098               613.5577
 Red. masses --      1.8214                 2.9231                 2.1759
 Frc consts  --      0.3678                 0.6087                 0.4826
 IR Inten    --      4.4005                72.5568                54.9618

                     16                     17                     18
                      A                      A                      A
 Frequencies --    733.5347               764.0855               814.9858
 Red. masses --      1.8854                 1.7997                 3.4717
 Frc consts  --      0.5977                 0.6191                 1.3586
 IR Inten    --     36.0644                64.2417                17.7927

                     19                     20                     21
                      A                      A                      A
 Frequencies --    999.9740              1003.9997              1024.6080
 Red. masses --      1.0911                 1.2020                 1.3834
 Frc consts  --      0.6428                 0.7139                 0.8557
 IR Inten    --     30.6495                79.6761                51.6921

                     22                     23                     24
                      A                      A                      A
 Frequencies --   1040.8656              1083.2897              1131.8148
 Red. masses --      1.8150                 4.7606                 1.1133
 Frc consts  --      1.1586                 3.2915                 0.8403
 IR Inten    --     47.4770                42.4629                87.4033

                     25                     26                     27
                      A                      A                      A
 Frequencies --   1189.2772              1212.2325              1282.2647
 Red. masses --      1.3352                 1.4056                 1.4912
 Frc consts  --      1.1127                 1.2170                 1.4446
 IR Inten    --    113.5166                18.9249               432.5627

                     28                     29                     30
                      A                      A                      A
 Frequencies --   1341.3576              1350.6298              1395.6824
 Red. masses --      1.3339                 1.7693                 1.4859
 Frc consts  --      1.4140                 1.9016                 1.7054
 IR Inten    --      3.4158               101.9166                95.7539

                     31                     32                     33
                      A                      A                      A
 Frequencies --   1453.7269              1461.5675              1481.1704
 Red. masses --      1.2589                 1.0801                 1.1801
 Frc consts  --      1.5675                 1.3594                 1.5254
 IR Inten    --    164.7514                69.4342               117.7214

                     34                     35                     36
                      A                      A                      A
 Frequencies --   1490.9971              1495.9030              1501.6825
 Red. masses --      1.1814                 1.9949                 1.0379
 Frc consts  --      1.5474                 2.6301                 1.3789
 IR Inten    --    187.1977               343.8576                13.7395

                     37                     38                     39
                      A                      A                      A
 Frequencies --   1645.7269              1648.3497              3066.2412
 Red. masses --      1.7921                 2.1071                 1.0349
 Frc consts  --      2.8598                 3.3732                 5.7328
 IR Inten    --    608.3067               352.0427                22.3026

                     40                     41                     42
                      A                      A                      A
 Frequencies --   3066.3809              3141.0332              3145.2821
 Red. masses --      1.0342                 1.0992                 1.1045
 Frc consts  --      5.7292                 6.3894                 6.4375
 IR Inten    --     19.2856                15.2094                 7.7449

                     43                     44                     45
                      A                      A                      A
 Frequencies --   3161.9122              3162.6430              3174.0295
 Red. masses --      1.1043                 1.1058                 1.0861
 Frc consts  --      6.5050                 6.5168                 6.4465
 IR Inten    --     36.3754                14.7906                 5.8315

                     46                     47                     48
                      A                      A                      A
 Frequencies --   3223.9261              3525.9248              3610.2933
 Red. masses --      1.0932                 1.0504                 1.0967
 Frc consts  --      6.6943                 7.6942                 8.4223
 IR Inten    --      5.3392                45.0587                48.6615

 - Thermochemistry -
 -------------------
 Temperature   298.150 Kelvin.  Pressure   1.00000 Atm.
 Atom     1 has atomic number  6 and mass  12.00000

 Molecular mass:   178.99458 amu.
 Principal axes and moments of inertia in atomic units:
                           1         2         3
     Eigenvalues --  1224.652781859.522582658.42938
           X            0.99765   0.06754  -0.01111
           Y           -0.06771   0.99757  -0.01613
           Z            0.01000   0.01685   0.99981
 This molecule is an asymmetric top.
 Rotational symmetry number  1.
 Warning -- assumption of classical behavior for rotation
           may cause significant error
 Rotational temperatures (Kelvin)      0.07073     0.04658     0.03258
 Rotational constants (GHZ):           1.47368     0.97054     0.67887
    1 imaginary frequencies ignored.
 Zero-point vibrational energy     389191.0 (Joules/Mol)
                                   93.01888 (Kcal/Mol)
 Warning -- explicit consideration of  14 degrees of freedom as
           vibrations may cause significant error
 Vibrational temperatures:     85.36   104.12   151.45   224.36   230.31
          (Kelvin)            283.74   316.76   387.32   431.35   586.14
                              722.27   842.35   855.37   882.77  1055.39
                             1099.35  1172.58  1438.74  1444.53  1474.18
                             1497.57  1558.61  1628.43  1711.10  1744.13
                             1844.89  1929.91  1943.26  2008.08  2091.59
                             2102.87  2131.07  2145.21  2152.27  2160.59
                             2367.83  2371.61  4411.64  4411.84  4519.25
                             4525.36  4549.29  4550.34  4566.72  4638.51
                             5073.02  5194.41

 Zero-point correction=                           0.148235 (Hartree/Particle)
 Thermal correction to Energy=                    0.158199
 Thermal correction to Enthalpy=                  0.159143
 Thermal correction to Gibbs Free Energy=         0.111520
 Sum of electronic and zero-point Energies=          -2900.569064
 Sum of electronic and thermal Energies=             -2900.559100
 Sum of electronic and thermal Enthalpies=           -2900.558156
 Sum of electronic and thermal Free Energies=        -2900.605778

                     E (Thermal)             CV                S
                      KCal/Mol        Cal/Mol-Kelvin    Cal/Mol-Kelvin
 Total                   99.271             34.089            100.230
 Electronic               0.000              0.000              0.000
 Translational            0.889              2.981             41.453
 Rotational               0.889              2.981             30.183
 Vibrational             97.494             28.128             28.594
 Vibration     1          0.597              1.974              4.479
 Vibration     2          0.598              1.967              4.088
 Vibration     3          0.605              1.945              3.354
 Vibration     4          0.620              1.896              2.598
 Vibration     5          0.622              1.891              2.549
 Vibration     6          0.637              1.844              2.159
 Vibration     7          0.647              1.810              1.958
 Vibration     8          0.674              1.730              1.601
 Vibration     9          0.692              1.674              1.418
 Vibration    10          0.772              1.454              0.936
 Vibration    11          0.857              1.246              0.653
 Vibration    12          0.942              1.063              0.475
 Vibration    13          0.952              1.043              0.459
 Vibration    14          0.973              1.003              0.427

 Optimization completed.
    -- Stationary point found.
 Normal termination of Gaussian 16 at Fri Feb 12 12:57:52 2021.
