 Gaussian 16, Revision A.03,
 Gaussian 16:  ES64L-G16RevA.03 25-Dec-2016

 ----------------------------------------------------------------------
 # wB97XD def2tzvp, opt=(ts, noeigen, calcfc, maxcycles=70, maxstep=8),
  freq=noraman, scrf=(iefpcm, solvent=water)
 ----------------------------------------------------------------------

 ------------------------
 0_iteration/TS-383-0.out
 ------------------------
 Symbolic Z-matrix:
 Charge =  0 Multiplicity = 1

 SCF Done:  E(RwB97XD) =  -1073.13892397     A.U. after   15 cycles
 SCF Done:  E(RwB97XD) =  -1073.13871053     A.U. after   12 cycles
 SCF Done:  E(RwB97XD) =  -1073.13917457     A.U. after   12 cycles
 SCF Done:  E(RwB97XD) =  -1073.13982640     A.U. after   12 cycles
 SCF Done:  E(RwB97XD) =  -1073.14051543     A.U. after   12 cycles
 SCF Done:  E(RwB97XD) =  -1073.14074416     A.U. after   12 cycles
 SCF Done:  E(RwB97XD) =  -1073.14078893     A.U. after   11 cycles
 SCF Done:  E(RwB97XD) =  -1073.14079691     A.U. after   10 cycles
 SCF Done:  E(RwB97XD) =  -1073.14080006     A.U. after   10 cycles
 SCF Done:  E(RwB97XD) =  -1073.14080167     A.U. after    9 cycles
 SCF Done:  E(RwB97XD) =  -1073.14080285     A.U. after    9 cycles
 SCF Done:  E(RwB97XD) =  -1073.14080274     A.U. after    7 cycles
 SCF Done:  E(RwB97XD) =  -1073.14080187     A.U. after   10 cycles
 SCF Done:  E(RwB97XD) =  -1073.14080250     A.U. after    9 cycles
 SCF Done:  E(RwB97XD) =  -1073.14080256     A.U. after    7 cycles
 Optimization completed.
    -- Stationary point found.
 Normal termination of Gaussian 16 at Fri Feb 12 18:46:43 2021.

 ---------------------------------------------------------------------
 #N Geom=AllCheck Guess=TCheck SCRF=Check GenChk RwB97XD/def2TZVP Freq
 ---------------------------------------------------------------------

 Structure from the checkpoint file:  "/beegfs/scratch/user/q/tla25/Gau-60781.chk"
 ------------------------
 0_iteration/TS-383-0.out
 ------------------------
 Charge =  0 Multiplicity = 1

                         Standard orientation:
 ---------------------------------------------------------------------
 Center     Atomic      Atomic             Coordinates (Angstroms)
 Number     Number       Type             X           Y           Z
 ---------------------------------------------------------------------
      1          6           0        1.816984    0.794150   -0.640428
      2          6           0        0.397946    1.046199   -0.532643
      3          8           0       -0.073116    2.175022   -0.699513
      4          6           0        2.475251   -0.388489   -0.356962
      5          6           0        2.906526    0.366417    2.239092
      6          1           0        2.825239    0.191746    3.310909
      7          1           0        3.932148    0.631970    1.989699
      8          1           0        2.248318    1.186056    1.953490
      9          7           0        2.520407   -0.815971    1.476639
     10          1           0        3.156231   -1.592907    1.620051
     11          1           0        1.587466   -1.126448    1.724964
     12          1           0        3.547585   -0.381970   -0.495188
     13         17           0        1.886044   -2.006228   -0.916987
     14          6           0        2.671416    2.014187   -0.904545
     15          1           0        3.727227    1.744430   -0.959057
     16          1           0        2.403362    2.490992   -1.850832
     17          1           0        2.563826    2.774778   -0.125559
     18          7           0       -0.426849   -0.019163   -0.199287
     19          6           0       -1.814394   -0.026166   -0.039040
     20          6           0       -2.570660    1.108216    0.262044
     21          6           0       -3.941983    0.996154    0.442721
     22          6           0       -4.585109   -0.227756    0.337455
     23          6           0       -3.832474   -1.357878    0.046857
     24          6           0       -2.465617   -1.259797   -0.141550
     25          1           0       -0.020590   -0.935141   -0.296109
     26          1           0       -2.082472    2.064987    0.347857
     27          1           0       -4.512816    1.887230    0.674534
     28          1           0       -5.655177   -0.301816    0.481229
     29          1           0       -4.311675   -2.325303   -0.038511
     30          1           0       -1.888709   -2.148394   -0.372066
 ---------------------------------------------------------------------

 SCF Done:  E(RwB97XD) =  -1073.14080256     A.U. after    1 cycles

 The electronic state is 1-A.
 Alpha  occ. eigenvalues -- -101.70131 -19.20029 -14.49553 -14.45595 -10.38951
 Alpha  occ. eigenvalues --  -10.37855 -10.33497 -10.32017 -10.28909 -10.28762
 Alpha  occ. eigenvalues --  -10.28642 -10.28112 -10.28051 -10.26952 -10.26222
 Alpha  occ. eigenvalues --   -9.58737  -7.33334  -7.32538  -7.32509  -1.12889
 Alpha  occ. eigenvalues --   -1.05122  -1.03351  -0.96678  -0.95011  -0.88332
 Alpha  occ. eigenvalues --   -0.84940  -0.84201  -0.79486  -0.76886  -0.74391
 Alpha  occ. eigenvalues --   -0.71375  -0.68579  -0.65166  -0.63571  -0.62163
 Alpha  occ. eigenvalues --   -0.58362  -0.57854  -0.57572  -0.55108  -0.53960
 Alpha  occ. eigenvalues --   -0.53207  -0.52068  -0.51570  -0.50830  -0.49692
 Alpha  occ. eigenvalues --   -0.48644  -0.47979  -0.46667  -0.45703  -0.45615
 Alpha  occ. eigenvalues --   -0.44952  -0.44304  -0.42767  -0.40340  -0.39263
 Alpha  occ. eigenvalues --   -0.38838  -0.34065  -0.33181  -0.30200  -0.26530
 Alpha virt. eigenvalues --    0.04287   0.05540   0.07023   0.08521   0.10411
 Alpha virt. eigenvalues --    0.12764   0.13038   0.14074   0.15343   0.16467
 Alpha virt. eigenvalues --    0.17129   0.17467   0.17824   0.18450   0.18776

 Mulliken charges:
               1
     1  C   -0.212310
     2  C    0.333992
     3  O   -0.532891
     4  C   -0.066509
     5  C   -0.288858
     6  H    0.164127
     7  H    0.158350
     8  H    0.160154
     9  N   -0.296578
    10  H    0.293740
    11  H    0.283341
    12  H    0.195493
    13  Cl  -0.148480
    14  C   -0.335081
    15  H    0.119168
    16  H    0.118707
    17  H    0.110099
    18  N   -0.263449
    19  C    0.283936
    20  C   -0.299392
    21  C   -0.100443
    22  C   -0.199234
    23  C   -0.102316
    24  C   -0.298094
    25  H    0.210895
    26  H    0.149968
    27  H    0.140156
    28  H    0.139450
    29  H    0.141956
    30  H    0.140102
 Sum of Mulliken charges =  -0.00000

 Dipole moment (field-independent basis, Debye):
    X=              6.6787    Y=             -6.1294    Z=              6.6338  Tot=             11.2330
 Quadrupole moment (field-independent basis, Debye-Ang):
   XX=            -74.8221   YY=           -102.7267   ZZ=            -94.2407
   XY=             -1.9409   XZ=             11.7925   YZ=              1.1013

  Exact polarizability: 287.134  -6.967 249.745  -0.921  -1.519 170.908
 Approx polarizability: 212.069  -6.268 209.621  -2.137  -0.272 145.400

 ******    1 imaginary frequencies (negative Signs) ******

                      1                      2                      3
                      A                      A                      A
 Frequencies --   -403.4437                18.0606                31.6653
 Red. masses --      5.9178                 3.8583                 4.3602
 Frc consts  --      0.5675                 0.0007                 0.0026
 IR Inten    --    914.1010                 1.3357                 6.2686

                      4                      5                      6
                      A                      A                      A
 Frequencies --     68.6940                75.4107                88.2453
 Red. masses --      3.2140                 6.3571                 3.3425
 Frc consts  --      0.0089                 0.0213                 0.0153
 IR Inten    --      2.3935                 5.7218                 7.3681

                      7                      8                      9
                      A                      A                      A
 Frequencies --    111.6797               146.0785               162.2941
 Red. masses --      3.5666                 2.9180                 1.0737
 Frc consts  --      0.0262                 0.0367                 0.0167
 IR Inten    --     29.1266                 1.3901                 3.1084

                     10                     11                     12
                      A                      A                      A
 Frequencies --    190.5456               195.8008               222.3871
 Red. masses --      3.1718                 1.3816                 4.5306
 Frc consts  --      0.0679                 0.0312                 0.1320
 IR Inten    --     15.6327                 1.5563                 1.7867

                     13                     14                     15
                      A                      A                      A
 Frequencies --    251.3630               288.5652               318.2817
 Red. masses --      4.3916                 3.8224                 4.6225
 Frc consts  --      0.1635                 0.1875                 0.2759
 IR Inten    --      4.1927                 1.2030                27.8401

                     16                     17                     18
                      A                      A                      A
 Frequencies --    327.5212               365.0945               416.4164
 Red. masses --      4.2142                 6.3129                 6.5193
 Frc consts  --      0.2663                 0.4958                 0.6661
 IR Inten    --     25.1351                 8.7257                41.0651

                     19                     20                     21
                      A                      A                      A
 Frequencies --    424.6156               480.0747               526.9889
 Red. masses --      3.0191                 3.2535                 2.7224
 Frc consts  --      0.3207                 0.4418                 0.4455
 IR Inten    --      1.0097                60.2512                48.6276

                     22                     23                     24
                      A                      A                      A
 Frequencies --    570.6012               606.8148               616.7639
 Red. masses --      1.2584                 3.0738                 4.5521
 Frc consts  --      0.2414                 0.6669                 1.0202
 IR Inten    --     99.9292                26.9872                43.0083

                     25                     26                     27
                      A                      A                      A
 Frequencies --    637.7832               718.6646               733.3181
 Red. masses --      5.5272                 1.9159                 2.5356
 Frc consts  --      1.3246                 0.5830                 0.8034
 IR Inten    --      7.4041                57.7384               135.1257

                     28                     29                     30
                      A                      A                      A
 Frequencies --    751.2566               781.5757               783.9218
 Red. masses --      2.8506                 4.0859                 2.2608
 Frc consts  --      0.9479                 1.4705                 0.8186
 IR Inten    --     97.6814                 8.0976               141.8873

                     31                     32                     33
                      A                      A                      A
 Frequencies --    858.5940               862.4521               923.4758
 Red. masses --      2.6947                 1.6070                 2.6214
 Frc consts  --      1.1704                 0.7043                 1.3172
 IR Inten    --      5.1716                 2.0443                54.4802

                     34                     35                     36
                      A                      A                      A
 Frequencies --    938.3004              1001.3799              1002.3747
 Red. masses --      2.1189                 1.3395                 1.1697
 Frc consts  --      1.0991                 0.7914                 0.6924
 IR Inten    --     16.2151                 1.8293                49.8646

                     37                     38                     39
                      A                      A                      A
 Frequencies --   1017.0731              1020.0198              1025.9529
 Red. masses --      1.2936                 5.3148                 1.4363
 Frc consts  --      0.7884                 3.2580                 0.8907
 IR Inten    --      1.1631                 8.2466               123.3586

                     40                     41                     42
                      A                      A                      A
 Frequencies --   1038.6179              1062.7092              1063.9045
 Red. masses --      1.1349                 1.4721                 1.8818
 Frc consts  --      0.7213                 0.9795                 1.2550
 IR Inten    --     59.9280                 6.1623                 5.4884

                     43                     44                     45
                      A                      A                      A
 Frequencies --   1085.2500              1116.3027              1129.4295
 Red. masses --      4.7467                 2.0915                 2.1527
 Frc consts  --      3.2938                 1.5355                 1.6179
 IR Inten    --     50.1583                72.3246                57.6970

                     46                     47                     48
                      A                      A                      A
 Frequencies --   1154.9655              1182.3257              1212.2358
 Red. masses --      1.1180                 1.1181                 1.1318
 Frc consts  --      0.8787                 0.9209                 0.9799
 IR Inten    --     57.3120                 3.8260                24.7252

                     49                     50                     51
                      A                      A                      A
 Frequencies --   1229.8364              1250.3937              1280.8549
 Red. masses --      1.4015                 1.5539                 2.6441
 Frc consts  --      1.2489                 1.4314                 2.5558
 IR Inten    --     36.4082               322.7466               112.7979

                     52                     53                     54
                      A                      A                      A
 Frequencies --   1341.8959              1344.9665              1362.1963
 Red. masses --      3.4038                 1.3500                 1.7297
 Frc consts  --      3.6112                 1.4388                 1.8911
 IR Inten    --    241.6699                 1.7358                56.1522

                     55                     56                     57
                      A                      A                      A
 Frequencies --   1380.3961              1416.8606              1445.3030
 Red. masses --      2.2631                 1.3713                 1.5659
 Frc consts  --      2.5408                 1.6220                 1.9272
 IR Inten    --    390.3127                66.9099               239.2438

                     58                     59                     60
                      A                      A                      A
 Frequencies --   1465.5447              1466.8579              1478.0747
 Red. masses --      1.1670                 1.2995                 2.1556
 Frc consts  --      1.4768                 1.6475                 2.7746
 IR Inten    --     43.6845                90.2925               249.8426

                     61                     62                     63
                      A                      A                      A
 Frequencies --   1494.5220              1501.9238              1510.2330
 Red. masses --      1.0471                 1.0430                 1.2750
 Frc consts  --      1.3780                 1.3863                 1.7134
 IR Inten    --     52.4994                 8.4092               244.8980

                     64                     65                     66
                      A                      A                      A
 Frequencies --   1547.6015              1566.9288              1641.3978
 Red. masses --      2.4008                 2.1068                 1.0973
 Frc consts  --      3.3878                 3.0477                 1.7418
 IR Inten    --    193.1851               477.3475                93.5828

                     67                     68                     69
                      A                      A                      A
 Frequencies --   1655.2354              1669.1870              1678.5649
 Red. masses --      7.3203                 3.6238                 5.9509
 Frc consts  --     11.8168                 5.9487                 9.8789
 IR Inten    --    324.2583               230.3093               517.8879

                     70                     71                     72
                      A                      A                      A
 Frequencies --   3028.1512              3074.2211              3079.1211
 Red. masses --      1.0378                 1.0325                 1.1006
 Frc consts  --      5.6067                 5.7494                 6.1480
 IR Inten    --    101.7209                27.2188                58.1038

                     73                     74                     75
                      A                      A                      A
 Frequencies --   3117.7424              3158.2218              3167.6909
 Red. masses --      1.1002                 1.1055                 1.1062
 Frc consts  --      6.3008                 6.4967                 6.5397
 IR Inten    --     39.1539                 7.7269                13.6982

                     76                     77                     78
                      A                      A                      A
 Frequencies --   3185.6116              3195.2981              3204.8752
 Red. masses --      1.0878                 1.0882                 1.0931
 Frc consts  --      6.5040                 6.5459                 6.6152
 IR Inten    --     14.2725                 2.7908                32.1586

                     79                     80                     81
                      A                      A                      A
 Frequencies --   3210.9600              3220.0984              3268.4097
 Red. masses --      1.0918                 1.0979                 1.0924
 Frc consts  --      6.6325                 6.7074                 6.8753
 IR Inten    --      6.3965                23.6762                 1.9191

                     82                     83                     84
                      A                      A                      A
 Frequencies --   3518.4520              3602.0397              3616.8774
 Red. masses --      1.0505                 1.0969                 1.0766
 Frc consts  --      7.6619                 8.3851                 8.2977
 IR Inten    --     49.5172                58.0461               168.7367

 - Thermochemistry -
 -------------------
 Temperature   298.150 Kelvin.  Pressure   1.00000 Atm.
 Atom     1 has atomic number  6 and mass  12.00000

 Molecular mass:   226.08729 amu.
 Principal axes and moments of inertia in atomic units:
                           1         2         3
     Eigenvalues --  2110.002175955.878226762.00078
           X            0.99968   0.02240   0.01148
           Y           -0.02214   0.99951  -0.02207
           Z           -0.01197   0.02181   0.99969
 This molecule is an asymmetric top.
 Rotational symmetry number  1.
 Warning -- assumption of classical behavior for rotation
           may cause significant error
 Rotational temperatures (Kelvin)      0.04105     0.01454     0.01281
 Rotational constants (GHZ):           0.85533     0.30302     0.26689
    1 imaginary frequencies ignored.
 Zero-point vibrational energy     651859.5 (Joules/Mol)
                                  155.79815 (Kcal/Mol)
 Warning -- explicit consideration of  23 degrees of freedom as
           vibrations may cause significant error
 Vibrational temperatures:     25.99    45.56    98.84   108.50   126.97
          (Kelvin)            160.68   210.17   233.51   274.15   281.71
                              319.97   361.66   415.18   457.94   471.23
                              525.29   599.13   610.93   690.72   758.22
                              820.97   873.07   887.39   917.63  1034.00
                             1055.08  1080.89  1124.51  1127.89  1235.33
                             1240.88  1328.68  1350.01  1440.76  1442.19
                             1463.34  1467.58  1476.12  1494.34  1529.00
                             1530.72  1561.43  1606.11  1625.00  1661.74
                             1701.10  1744.14  1769.46  1799.04  1842.86
                             1930.69  1935.11  1959.90  1986.08  2038.55
                             2079.47  2108.59  2110.48  2126.62  2150.28
                             2160.93  2172.89  2226.65  2254.46  2361.61
                             2381.51  2401.59  2415.08  4356.83  4423.12
                             4430.17  4485.74  4543.98  4557.60  4583.38
                             4597.32  4611.10  4619.86  4633.00  4702.51
                             5062.27  5182.53  5203.88

 Zero-point correction=                           0.248280 (Hartree/Particle)
 Thermal correction to Energy=                    0.263795
 Thermal correction to Enthalpy=                  0.264739
 Thermal correction to Gibbs Free Energy=         0.203399
 Sum of electronic and zero-point Energies=          -1072.892522
 Sum of electronic and thermal Energies=             -1072.877008
 Sum of electronic and thermal Enthalpies=           -1072.876064
 Sum of electronic and thermal Free Energies=        -1072.937404

                     E (Thermal)             CV                S
                      KCal/Mol        Cal/Mol-Kelvin    Cal/Mol-Kelvin
 Total                  165.534             56.611            129.101
 Electronic               0.000              0.000              0.000
 Translational            0.889              2.981             42.150
 Rotational               0.889              2.981             32.808
 Vibrational            163.756             50.649             54.144
 Vibration     1          0.593              1.986              6.837
 Vibration     2          0.594              1.983              5.722
 Vibration     3          0.598              1.969              4.190
 Vibration     4          0.599              1.965              4.007
 Vibration     5          0.601              1.957              3.699
 Vibration     6          0.607              1.940              3.240
 Vibration     7          0.617              1.907              2.723
 Vibration     8          0.622              1.889              2.523
 Vibration     9          0.634              1.853              2.223
 Vibration    10          0.636              1.846              2.172
 Vibration    11          0.648              1.807              1.940
 Vibration    12          0.663              1.760              1.721
 Vibration    13          0.685              1.695              1.482
 Vibration    14          0.705              1.639              1.319
 Vibration    15          0.711              1.620              1.272
 Vibration    16          0.738              1.544              1.100
 Vibration    17          0.780              1.435              0.904
 Vibration    18          0.787              1.417              0.876
 Vibration    19          0.836              1.294              0.710
 Vibration    20          0.882              1.190              0.594
 Vibration    21          0.927              1.095              0.503
 Vibration    22          0.966              1.017              0.438
 Vibration    23          0.976              0.996              0.422

 Optimization completed.
    -- Stationary point found.
 Normal termination of Gaussian 16 at Fri Feb 12 19:39:50 2021.
