 Gaussian 16, Revision A.03,
 Gaussian 16:  ES64L-G16RevA.03 25-Dec-2016

 ----------------------------------------------------------------------
 # wB97XD def2tzvp, opt=(ts, noeigen, calcfc, maxcycles=70, maxstep=8),
  freq=noraman, scrf=(iefpcm, solvent=water)
 ----------------------------------------------------------------------

 -----------------------
 1_iteration/TS-36-1.out
 -----------------------
 Symbolic Z-matrix:
 Charge =  0 Multiplicity = 1

 SCF Done:  E(RwB97XD) =  -1324.04898561     A.U. after   14 cycles
 Optimization completed.
    -- Stationary point found.
 Normal termination of Gaussian 16 at Sat Apr 17 07:12:18 2021.

 ---------------------------------------------------------------------
 #N Geom=AllCheck Guess=TCheck SCRF=Check GenChk RwB97XD/def2TZVP Freq
 ---------------------------------------------------------------------

 Structure from the checkpoint file:  "/beegfs/scratch/user/q/tla25/Gau-149740.chk"
 -----------------------
 1_iteration/TS-36-1.out
 -----------------------
 Charge =  0 Multiplicity = 1

                         Standard orientation:
 ---------------------------------------------------------------------
 Center     Atomic      Atomic             Coordinates (Angstroms)
 Number     Number       Type             X           Y           Z
 ---------------------------------------------------------------------
      1          6           0        0.910359   -0.926050   -0.112580
      2          6           0        2.232049   -0.441700   -0.363710
      3          8           0        2.601149    0.723570   -0.296730
      4          6           0       -0.169031   -0.135120    0.342540
      5          6           0        1.192639   -0.284730    2.783190
      6          1           0        1.630929    0.701940    2.658460
      7          1           0        1.163909   -0.545890    3.839940
      8          1           0        1.803329   -1.010090    2.251020
      9          7           0       -0.156851   -0.298940    2.217240
     10          1           0       -0.582901   -1.209960    2.354870
     11          1           0       -0.750311    0.375800    2.684620
     12          6           0       -1.586691   -0.606170    0.038880
     13          6           0       -2.677131   -0.253260    0.829670
     14          6           0       -3.967811   -0.604660    0.464400
     15          6           0       -4.196781   -1.296600   -0.714230
     16          6           0       -3.122351   -1.624530   -1.527170
     17          6           0       -1.833021   -1.280970   -1.154650
     18          1           0       -2.549651    0.323400    1.735550
     19          1           0       -4.796211   -0.324020    1.102100
     20          1           0       -5.204361   -1.567840   -1.002030
     21          1           0       -3.285201   -2.150160   -2.459520
     22          1           0       -1.004831   -1.532460   -1.802230
     23          6           0       -0.097521    1.356720    0.054100
     24          6           0       -0.172671    1.730470   -1.288100
     25          6           0       -0.180811    3.061620   -1.658600
     26          6           0       -0.124061    4.057340   -0.691190
     27          6           0       -0.062861    3.697380    0.642760
     28          6           0       -0.053911    2.357500    1.013260
     29          1           0       -0.214901    0.962270   -2.049450
     30          1           0       -0.232351    3.323800   -2.707870
     31          1           0       -0.130761    5.101160   -0.977560
     32          1           0       -0.019711    4.458420    1.411550
     33          1           0        0.009349    2.134040    2.067540
     34         17           0        0.718489   -2.678490    0.049550
     35          8           0        3.101109   -1.417840   -0.726220
     36          6           0        4.428859   -0.996920   -1.001890
     37          1           0        4.877289   -0.513330   -0.133450
     38          1           0        4.980299   -1.901440   -1.247390
     39          1           0        4.456159   -0.306450   -1.845610
 ---------------------------------------------------------------------

 SCF Done:  E(RwB97XD) =  -1324.04898561     A.U. after    1 cycles

 The electronic state is 1-A.
 Alpha  occ. eigenvalues -- -101.68360 -19.27882 -19.20854 -14.50076 -10.39754
 Alpha  occ. eigenvalues --  -10.37316 -10.32471 -10.32079 -10.31333 -10.31274
 Alpha  occ. eigenvalues --  -10.30619 -10.29843 -10.29480 -10.29441 -10.29399
 Alpha  occ. eigenvalues --  -10.29335 -10.29277 -10.29184 -10.29106 -10.29018
 Alpha  occ. eigenvalues --  -10.28933  -9.56896  -7.31517  -7.30693  -7.30675
 Alpha  occ. eigenvalues --   -1.19345  -1.09588  -1.05651  -0.98698  -0.96739
 Alpha  occ. eigenvalues --   -0.95560  -0.90225  -0.85736  -0.85559  -0.85294
 Alpha  occ. eigenvalues --   -0.83278  -0.80860  -0.79688  -0.73810  -0.71527
 Alpha  occ. eigenvalues --   -0.70575  -0.70230  -0.67902  -0.65403  -0.63706
 Alpha  occ. eigenvalues --   -0.62020  -0.60680  -0.58747  -0.57774  -0.56818
 Alpha  occ. eigenvalues --   -0.56144  -0.55931  -0.54955  -0.54279  -0.53850
 Alpha  occ. eigenvalues --   -0.52619  -0.52024  -0.51336  -0.50994  -0.50686
 Alpha  occ. eigenvalues --   -0.49146  -0.48378  -0.47445  -0.47012  -0.46357
 Alpha  occ. eigenvalues --   -0.45795  -0.44190  -0.43557  -0.43295  -0.42824
 Alpha  occ. eigenvalues --   -0.42282  -0.41134  -0.39627  -0.37836  -0.35938
 Alpha  occ. eigenvalues --   -0.34301  -0.34191  -0.33718  -0.31581  -0.27177
 Alpha virt. eigenvalues --    0.02674   0.04136   0.05377   0.05776   0.07585
 Alpha virt. eigenvalues --    0.10376   0.11334   0.12384   0.13244   0.13820
 Alpha virt. eigenvalues --    0.14286   0.15432   0.15959   0.16681   0.16767

 Mulliken charges:
               1
     1  C   -0.278960
     2  C    0.401728
     3  O   -0.504877
     4  C    0.350615
     5  C   -0.306728
     6  H    0.162362
     7  H    0.168676
     8  H    0.163180
     9  N   -0.329961
    10  H    0.292723
    11  H    0.283971
    12  C    0.189459
    13  C   -0.255729
    14  C   -0.153527
    15  C   -0.145570
    16  C   -0.138728
    17  C   -0.274353
    18  H    0.135068
    19  H    0.145038
    20  H    0.146139
    21  H    0.144567
    22  H    0.175220
    23  C    0.235651
    24  C   -0.309190
    25  C   -0.127836
    26  C   -0.155973
    27  C   -0.166997
    28  C   -0.269678
    29  H    0.151402
    30  H    0.141496
    31  H    0.142925
    32  H    0.142226
    33  H    0.141895
    34  Cl  -0.179859
    35  O   -0.308539
    36  C   -0.193493
    37  H    0.124057
    38  H    0.136791
    39  H    0.124808
 Sum of Mulliken charges =  -0.00000

 Dipole moment (field-independent basis, Debye):
    X=             -4.3717    Y=              1.1336    Z=              5.9116  Tot=              7.4393
 Quadrupole moment (field-independent basis, Debye-Ang):
   XX=           -124.4879   YY=           -134.3369   ZZ=           -104.4245
   XY=             -1.0217   XZ=             -0.6199   YZ=              1.7821

  Exact polarizability: 317.884   9.183 313.489 -10.703  21.622 300.575
 Approx polarizability: 245.733   6.253 257.043  -8.205  19.759 260.298

 ******    1 imaginary frequencies (negative Signs) ******

                      1                      2                      3
                      A                      A                      A
 Frequencies --   -331.4130                40.4794                48.7771
 Red. masses --      5.1325                 3.8812                 4.5084
 Frc consts  --      0.3321                 0.0037                 0.0063
 IR Inten    --    592.3731                 0.9779                 1.9079

                      4                      5                      6
                      A                      A                      A
 Frequencies --     52.3545                61.4012                70.2504
 Red. masses --      4.2402                 5.2851                 4.9851
 Frc consts  --      0.0068                 0.0117                 0.0145
 IR Inten    --      0.3010                 0.2430                 0.8371

                      7                      8                      9
                      A                      A                      A
 Frequencies --     91.2540               123.3404               131.7647
 Red. masses --      5.1915                 3.0084                 3.8432
 Frc consts  --      0.0255                 0.0270                 0.0393
 IR Inten    --      1.9334                 3.5575                 1.0767

                     10                     11                     12
                      A                      A                      A
 Frequencies --    141.7216               155.1570               170.9495
 Red. masses --      1.9630                 1.9046                 3.7148
 Frc consts  --      0.0232                 0.0270                 0.0640
 IR Inten    --     12.1147                 3.1087                 7.2596

                     13                     14                     15
                      A                      A                      A
 Frequencies --    180.5423               187.6370               235.1684
 Red. masses --      2.5219                 1.5051                 4.1877
 Frc consts  --      0.0484                 0.0312                 0.1365
 IR Inten    --      1.3456                 1.8049                 6.5955

                     16                     17                     18
                      A                      A                      A
 Frequencies --    246.4987               266.7815               286.8278
 Red. masses --      4.8445                 4.9403                 2.8794
 Frc consts  --      0.1734                 0.2072                 0.1396
 IR Inten    --      5.9368                 1.2394                 4.6482

                     19                     20                     21
                      A                      A                      A
 Frequencies --    290.3329               314.4332               333.6449
 Red. masses --      5.8469                 4.3043                 3.5718
 Frc consts  --      0.2904                 0.2507                 0.2343
 IR Inten    --      6.7335                 4.4832                11.1812

                     22                     23                     24
                      A                      A                      A
 Frequencies --    357.4457               402.8297               422.2622
 Red. masses --      4.9051                 6.9182                 2.8837
 Frc consts  --      0.3692                 0.6614                 0.3029
 IR Inten    --     23.4842                57.5914                 0.4365

                     25                     26                     27
                      A                      A                      A
 Frequencies --    425.4862               461.5850               490.5538
 Red. masses --      2.9230                13.9268                 3.5646
 Frc consts  --      0.3118                 1.7483                 0.5054
 IR Inten    --      0.5864                 5.1374                14.9706

                     28                     29                     30
                      A                      A                      A
 Frequencies --    536.3947               605.1530               633.2173
 Red. masses --      3.5558                 2.6516                 5.3850
 Frc consts  --      0.6028                 0.5721                 1.2722
 IR Inten    --      2.0250               102.5126                13.6031

                     31                     32                     33
                      A                      A                      A
 Frequencies --    637.3187               645.3674               660.8572
 Red. masses --      6.3015                 4.6890                 5.7839
 Frc consts  --      1.5080                 1.1507                 1.4883
 IR Inten    --      1.8920                36.9516               117.4586

                     34                     35                     36
                      A                      A                      A
 Frequencies --    697.2939               722.0982               727.8594
 Red. masses --      2.2752                 1.6753                 1.5098
 Frc consts  --      0.6518                 0.5147                 0.4713
 IR Inten    --     52.8505                73.1305               120.6178

                     37                     38                     39
                      A                      A                      A
 Frequencies --    762.4245               775.1819               787.0881
 Red. masses --      5.5326                 2.1359                 5.0963
 Frc consts  --      1.8948                 0.7562                 1.8602
 IR Inten    --      2.7837                38.9598                66.3054

                     40                     41                     42
                      A                      A                      A
 Frequencies --    793.4715               855.3872               866.8494
 Red. masses --      3.3305                 3.6991                 1.2557
 Frc consts  --      1.2355                 1.5947                 0.5560
 IR Inten    --     91.4279                46.3488                 0.9324

                     43                     44                     45
                      A                      A                      A
 Frequencies --    873.9497               906.7676               946.4075
 Red. masses --      1.2535                 4.2040                 1.5546
 Frc consts  --      0.5641                 2.0366                 0.8204
 IR Inten    --      0.4147                24.3623                 0.1496

                     46                     47                     48
                      A                      A                      A
 Frequencies --    962.0729              1004.9740              1012.1312
 Red. masses --      1.4747                 1.3743                 3.2076
 Frc consts  --      0.8042                 0.8178                 1.9360
 IR Inten    --      3.4650                 3.3092                12.5991

                     49                     50                     51
                      A                      A                      A
 Frequencies --   1015.7707              1015.9975              1025.5039
 Red. masses --      1.2180                 1.5792                 4.4374
 Frc consts  --      0.7405                 0.9605                 2.7495
 IR Inten    --     32.5581                12.7028                 6.4133

                     52                     53                     54
                      A                      A                      A
 Frequencies --   1025.8371              1026.6549              1033.6771
 Red. masses --      1.3434                 5.0397                 1.3181
 Frc consts  --      0.8330                 3.1297                 0.8298
 IR Inten    --      1.0725                 6.3382                 0.1493

                     55                     56                     57
                      A                      A                      A
 Frequencies --   1060.1292              1067.5075              1075.2007
 Red. masses --      1.9557                 2.2371                 2.7003
 Frc consts  --      1.2950                 1.5020                 1.8392
 IR Inten    --     41.4022                20.1997                 6.4224

                     58                     59                     60
                      A                      A                      A
 Frequencies --   1085.6099              1103.0720              1128.0505
 Red. masses --      1.8121                 4.6102                 1.5940
 Frc consts  --      1.2583                 3.3050                 1.1951
 IR Inten    --     88.6004               252.2605                 1.3102

                     61                     62                     63
                      A                      A                      A
 Frequencies --   1133.4940              1181.7864              1183.1850
 Red. masses --      1.6650                 2.5005                 1.3063
 Frc consts  --      1.2604                 2.0576                 1.0775
 IR Inten    --     38.7695                38.3173                 0.8864

                     64                     65                     66
                      A                      A                      A
 Frequencies --   1186.6812              1187.5368              1216.8318
 Red. masses --      1.2426                 1.1409                 1.5742
 Frc consts  --      1.0310                 0.9479                 1.3733
 IR Inten    --      3.6732                 0.3989               174.4337

                     67                     68                     69
                      A                      A                      A
 Frequencies --   1223.9117              1230.4331              1251.0134
 Red. masses --      1.1714                 1.1653                 3.3634
 Frc consts  --      1.0339                 1.0394                 3.1013
 IR Inten    --      2.7240                 1.2751                17.7467

                     70                     71                     72
                      A                      A                      A
 Frequencies --   1257.6198              1293.9055              1318.4448
 Red. masses --      1.4752                 5.8069                 4.7640
 Frc consts  --      1.3747                 5.7280                 4.8792
 IR Inten    --     54.0022               492.7704                 6.1653

                     73                     74                     75
                      A                      A                      A
 Frequencies --   1332.2364              1354.1496              1372.4100
 Red. masses --      5.6636                 1.3446                 1.3562
 Frc consts  --      5.9226                 1.4527                 1.5051
 IR Inten    --    119.8759                12.7851                 0.3892

                     76                     77                     78
                      A                      A                      A
 Frequencies --   1377.1280              1404.9795              1463.7978
 Red. masses --      1.3751                 5.3115                 1.2107
 Frc consts  --      1.5365                 6.1774                 1.5284
 IR Inten    --     22.4836               794.0419                 5.4952

                     79                     80                     81
                      A                      A                      A
 Frequencies --   1480.5538              1484.4501              1488.3557
 Red. masses --      1.1730                 1.0801                 2.1808
 Frc consts  --      1.5150                 1.4024                 2.8463
 IR Inten    --     96.1227                34.8908                 6.0856

                     82                     83                     84
                      A                      A                      A
 Frequencies --   1492.1996              1493.6962              1497.8579
 Red. masses --      1.0951                 2.0007                 1.0782
 Frc consts  --      1.4367                 2.6301                 1.4253
 IR Inten    --      3.8856                65.8304                 8.7379

                     85                     86                     87
                      A                      A                      A
 Frequencies --   1508.0368              1543.9237              1548.7276
 Red. masses --      1.0460                 2.1830                 2.2352
 Frc consts  --      1.4016                 3.0659                 3.1587
 IR Inten    --     17.3624                32.8043                13.2024

                     88                     89                     90
                      A                      A                      A
 Frequencies --   1649.7813              1654.8075              1664.7509
 Red. masses --      3.0717                 5.0080                 1.4409
 Frc consts  --      4.9259                 8.0799                 2.3528
 IR Inten    --     11.7074                34.2179                61.9399

                     91                     92                     93
                      A                      A                      A
 Frequencies --   1674.0308              1677.4779              1690.2775
 Red. masses --      4.7275                 5.3282                10.8865
 Frc consts  --      7.8057                 8.8337                18.3254
 IR Inten    --      8.5327                12.5172               670.3506

                     94                     95                     96
                      A                      A                      A
 Frequencies --   3058.6027              3086.9060              3132.1739
 Red. masses --      1.0310                 1.0339                 1.1065
 Frc consts  --      5.6826                 5.8044                 6.3957
 IR Inten    --     68.0381                26.5439                42.0161

                     97                     98                     99
                      A                      A                      A
 Frequencies --   3166.9756              3169.6799              3188.0618
 Red. masses --      1.1049                 1.1042                 1.1058
 Frc consts  --      6.5294                 6.5363                 6.6216
 IR Inten    --     29.6345                 5.7998                 8.3084

                    100                    101                    102
                      A                      A                      A
 Frequencies --   3196.5923              3199.1801              3204.9082
 Red. masses --      1.0859                 1.0860                 1.0891
 Frc consts  --      6.5376                 6.5489                 6.5912
 IR Inten    --      0.9116                 1.2996                 6.1630

                    103                    104                    105
                      A                      A                      A
 Frequencies --   3207.4100              3214.5648              3216.8895
 Red. masses --      1.0891                 1.0933                 1.0928
 Frc consts  --      6.6014                 6.6564                 6.6629
 IR Inten    --      5.7418                24.6028                33.2694

                    106                    107                    108
                      A                      A                      A
 Frequencies --   3222.8524              3225.9156              3232.7846
 Red. masses --      1.0977                 1.0960                 1.0949
 Frc consts  --      6.7177                 6.7201                 6.7418
 IR Inten    --     23.1428                22.2643                 3.7325

                    109                    110                    111
                      A                      A                      A
 Frequencies --   3244.7485              3521.4704              3600.4828
 Red. masses --      1.0916                 1.0525                 1.0936
 Frc consts  --      6.7714                 7.6901                 8.3524
 IR Inten    --     20.1913                44.3431                48.6678

 - Thermochemistry -
 -------------------
 Temperature   298.150 Kelvin.  Pressure   1.00000 Atm.
 Atom     1 has atomic number  6 and mass  12.00000

 Molecular mass:   303.10261 amu.
 Principal axes and moments of inertia in atomic units:
                           1         2         3
     Eigenvalues --  5286.377826522.271768935.83054
           X            0.99995   0.00974   0.00090
           Y           -0.00974   0.99994   0.00520
           Z           -0.00085  -0.00521   0.99999
 This molecule is an asymmetric top.
 Rotational symmetry number  1.
 Warning -- assumption of classical behavior for rotation
           may cause significant error
 Rotational temperatures (Kelvin)      0.01638     0.01328     0.00969
 Rotational constants (GHZ):           0.34139     0.27670     0.20197
    1 imaginary frequencies ignored.
 Zero-point vibrational energy     835432.6 (Joules/Mol)
                                  199.67319 (Kcal/Mol)
 Warning -- explicit consideration of  28 degrees of freedom as
           vibrations may cause significant error
 Vibrational temperatures:     58.24    70.18    75.33    88.34   101.07
          (Kelvin)            131.29   177.46   189.58   203.91   223.24
                              245.96   259.76   269.97   338.35   354.66
                              383.84   412.68   417.72   452.40   480.04
                              514.28   579.58   607.54   612.18   664.12
                              705.80   771.75   870.68   911.06   916.96
                              928.54   950.83  1003.25  1038.94  1047.23
                             1096.96  1115.31  1132.44  1141.63  1230.71
                             1247.20  1257.42  1304.64  1361.67  1384.21
                             1445.93  1456.23  1461.47  1461.79  1475.47
                             1475.95  1477.13  1487.23  1525.29  1535.91
                             1546.97  1561.95  1587.07  1623.01  1630.85
                             1700.33  1702.34  1707.37  1708.60  1750.75
                             1760.94  1770.32  1799.93  1809.43  1861.64
                             1896.95  1916.79  1948.32  1974.59  1981.38
                             2021.45  2106.08  2130.19  2135.79  2141.41
                             2146.94  2149.10  2155.08  2169.73  2221.36
                             2228.27  2373.67  2380.90  2395.21  2408.56
                             2413.52  2431.93  4400.65  4441.37  4506.50
                             4556.57  4560.46  4586.91  4599.18  4602.91
                             4611.15  4614.75  4625.04  4628.39  4636.97
                             4641.37  4651.26  4668.47  5066.61  5180.29

 Zero-point correction=                           0.318199 (Hartree/Particle)
 Thermal correction to Energy=                    0.337795
 Thermal correction to Enthalpy=                  0.338739
 Thermal correction to Gibbs Free Energy=         0.269619
 Sum of electronic and zero-point Energies=          -1323.730786
 Sum of electronic and thermal Energies=             -1323.711191
 Sum of electronic and thermal Enthalpies=           -1323.710247
 Sum of electronic and thermal Free Energies=        -1323.779366

                     E (Thermal)             CV                S
                      KCal/Mol        Cal/Mol-Kelvin    Cal/Mol-Kelvin
 Total                  211.969             74.051            145.475
 Electronic               0.000              0.000              0.000
 Translational            0.889              2.981             43.023
 Rotational               0.889              2.981             34.087
 Vibrational            210.192             68.089             68.364
 Vibration     1          0.594              1.981              5.235
 Vibration     2          0.595              1.978              4.866
 Vibration     3          0.596              1.977              4.726
 Vibration     4          0.597              1.973              4.412
 Vibration     5          0.598              1.968              4.146
 Vibration     6          0.602              1.955              3.633
 Vibration     7          0.610              1.930              3.047
 Vibration     8          0.612              1.922              2.920
 Vibration     9          0.615              1.912              2.780
 Vibration    10          0.620              1.897              2.608
 Vibration    11          0.626              1.878              2.425
 Vibration    12          0.629              1.866              2.323
 Vibration    13          0.632              1.857              2.251
 Vibration    14          0.655              1.787              1.839
 Vibration    15          0.661              1.769              1.755
 Vibration    16          0.672              1.734              1.617
 Vibration    17          0.684              1.698              1.493
 Vibration    18          0.686              1.692              1.472
 Vibration    19          0.702              1.646              1.339
 Vibration    20          0.715              1.608              1.242
 Vibration    21          0.733              1.560              1.133
 Vibration    22          0.768              1.464              0.952
 Vibration    23          0.785              1.422              0.884
 Vibration    24          0.787              1.415              0.874
 Vibration    25          0.819              1.335              0.762
 Vibration    26          0.846              1.271              0.682
 Vibration    27          0.891              1.170              0.573
 Vibration    28          0.964              1.021              0.441

 Optimization completed.
    -- Stationary point found.
 Normal termination of Gaussian 16 at Sat Apr 17 08:31:17 2021.
