 Gaussian 16, Revision A.03,
 Gaussian 16:  ES64L-G16RevA.03 25-Dec-2016

 ----------------------------------------------------------------------
 # wB97XD def2tzvp, opt=(ts, noeigen, calcfc, maxcycles=70, maxstep=1),
  freq=noraman, scrf=(iefpcm, solvent=water)
 ----------------------------------------------------------------------

 ------------------------
 0_iteration/TS-354-0.out
 ------------------------
 Symbolic Z-matrix:
 Charge =  0 Multiplicity = 1

 SCF Done:  E(RwB97XD) =  -3360.32613977     A.U. after   15 cycles
 SCF Done:  E(RwB97XD) =  -3360.32613985     A.U. after    8 cycles
 Optimization completed.
    -- Stationary point found.
 Normal termination of Gaussian 16 at Tue Mar  2 02:08:06 2021.

 ---------------------------------------------------------------------
 #N Geom=AllCheck Guess=TCheck SCRF=Check GenChk RwB97XD/def2TZVP Freq
 ---------------------------------------------------------------------

 Structure from the checkpoint file:  "/beegfs/scratch/user/q/tla25/Gau-56915.chk"
 ------------------------
 0_iteration/TS-354-0.out
 ------------------------
 Charge =  0 Multiplicity = 1

                         Standard orientation:
 ---------------------------------------------------------------------
 Center     Atomic      Atomic             Coordinates (Angstroms)
 Number     Number       Type             X           Y           Z
 ---------------------------------------------------------------------
      1          6           0       -0.900917   -0.181551   -0.346540
      2          6           0       -1.260845   -1.264803    0.532062
      3          8           0       -2.382930   -1.763901    0.521213
      4          6           0        0.287791    0.499046   -0.508955
      5          6           0       -0.698713    2.386680    1.377155
      6          1           0       -0.574400    2.993119    2.274232
      7          1           0       -1.171484    2.981595    0.599017
      8          1           0       -1.343637    1.537786    1.608329
      9          7           0        0.577675    1.882004    0.888839
     10          1           0        1.148876    2.612380    0.479889
     11          1           0        1.115486    1.447866    1.629751
     12          1           0        0.313988    1.226284   -1.305461
     13         35           0        2.009071   -0.349386   -0.411234
     14         17           0       -2.233094    0.492502   -1.290659
     15          6           0       -0.237112   -1.798802    1.511870
     16          1           0        0.379356   -1.019094    1.956108
     17          1           0       -0.773200   -2.327487    2.297394
     18          1           0        0.428618   -2.502710    1.010014
 ---------------------------------------------------------------------

 SCF Done:  E(RwB97XD) =  -3360.32613985     A.U. after    1 cycles

 The electronic state is 1-A.
 Alpha  occ. eigenvalues -- -483.14152-101.68846 -62.69005 -56.48128 -56.47764
 Alpha  occ. eigenvalues --  -56.47747 -19.21777 -14.48653 -10.39438 -10.36946
 Alpha  occ. eigenvalues --  -10.32260 -10.31807 -10.27929  -9.57371  -8.83123
 Alpha  occ. eigenvalues --   -7.32008  -7.31155  -7.31144  -6.65303  -6.64141
 Alpha  occ. eigenvalues --   -6.64084  -2.75687  -2.75359  -2.75314  -2.74375
 Alpha  occ. eigenvalues --   -2.74375  -1.12862  -1.04030  -0.97130  -0.91917
 Alpha  occ. eigenvalues --   -0.85055  -0.81057  -0.79001  -0.72867  -0.63674
 Alpha  occ. eigenvalues --   -0.60239  -0.57427  -0.56680  -0.55976  -0.54415
 Alpha  occ. eigenvalues --   -0.52147  -0.50372  -0.48745  -0.48114  -0.46390
 Alpha  occ. eigenvalues --   -0.45952  -0.44411  -0.41331  -0.39332  -0.38082
 Alpha  occ. eigenvalues --   -0.37362  -0.33505  -0.28682
 Alpha virt. eigenvalues --    0.02068   0.04848   0.09483   0.11484   0.13550
 Alpha virt. eigenvalues --    0.14169   0.14927   0.16499   0.17703   0.19100
 Alpha virt. eigenvalues --    0.19286   0.19946   0.21693   0.23151   0.23461

 Mulliken charges:
               1
     1  C   -0.111669
     2  C    0.204701
     3  O   -0.471370
     4  C   -0.044086
     5  C   -0.281565
     6  H    0.158317
     7  H    0.158979
     8  H    0.150986
     9  N   -0.356127
    10  H    0.292432
    11  H    0.283286
    12  H    0.200978
    13  Br  -0.063008
    14  Cl  -0.170990
    15  C   -0.366010
    16  H    0.125888
    17  H    0.134987
    18  H    0.154270
 Sum of Mulliken charges =  -0.00000

 Dipole moment (field-independent basis, Debye):
    X=              7.4509    Y=              7.4940    Z=              3.5224  Tot=             11.1393
 Quadrupole moment (field-independent basis, Debye-Ang):
   XX=            -90.3473   YY=            -65.8705   ZZ=            -70.0518
   XY=             -6.0250   XZ=              0.8774   YZ=              4.4243

  Exact polarizability: 179.927  15.594 157.902   5.949  -1.381 123.462
 Approx polarizability: 145.421  10.854 127.350   4.888  -1.827 106.123

 ******    1 imaginary frequencies (negative Signs) ******

                      1                      2                      3
                      A                      A                      A
 Frequencies --   -350.1363                52.7126                75.1701
 Red. masses --      6.0240                 2.7753                 5.4207
 Frc consts  --      0.4351                 0.0045                 0.0180
 IR Inten    --    836.4495                 0.7136                10.0542

                      4                      5                      6
                      A                      A                      A
 Frequencies --     91.3862               126.9134               141.0941
 Red. masses --      3.3313                 3.3952                 1.4528
 Frc consts  --      0.0164                 0.0322                 0.0170
 IR Inten    --     13.3084                 2.1068                 0.6620

                      7                      8                      9
                      A                      A                      A
 Frequencies --    170.4441               180.0972               198.1112
 Red. masses --      2.6428                 1.4296                 2.5221
 Frc consts  --      0.0452                 0.0273                 0.0583
 IR Inten    --      2.0287                 2.9311                 2.7387

                     10                     11                     12
                      A                      A                      A
 Frequencies --    246.9961               266.2714               290.6576
 Red. masses --      7.3607                 5.0984                 5.6855
 Frc consts  --      0.2646                 0.2130                 0.2830
 IR Inten    --      2.9642                31.0730                 2.5303

                     13                     14                     15
                      A                      A                      A
 Frequencies --    390.4821               445.5939               558.5906
 Red. masses --      3.9923                 3.8329                 3.6867
 Frc consts  --      0.3587                 0.4484                 0.6778
 IR Inten    --      8.4276                64.9491                19.1299

                     16                     17                     18
                      A                      A                      A
 Frequencies --    613.5142               641.4391               711.8021
 Red. masses --      1.9527                 2.9560                 3.1488
 Frc consts  --      0.4331                 0.7166                 0.9400
 IR Inten    --     24.8995                44.1269                83.3595

                     19                     20                     21
                      A                      A                      A
 Frequencies --    750.5394               906.4672               999.1993
 Red. masses --      4.7610                 4.3639                 1.0909
 Frc consts  --      1.5801                 2.1127                 0.6417
 IR Inten    --    131.3843                41.9503                26.5357

                     22                     23                     24
                      A                      A                      A
 Frequencies --   1007.0853              1026.1368              1043.0204
 Red. masses --      1.2114                 1.4423                 1.7377
 Frc consts  --      0.7239                 0.8948                 1.1138
 IR Inten    --     79.0727                89.3469                31.5195

                     25                     26                     27
                      A                      A                      A
 Frequencies --   1077.7938              1112.6896              1209.6395
 Red. masses --      3.6926                 1.1941                 1.4421
 Frc consts  --      2.5273                 0.8710                 1.2433
 IR Inten    --     50.1992                44.2438                20.3991

                     28                     29                     30
                      A                      A                      A
 Frequencies --   1219.5307              1339.6139              1357.5595
 Red. masses --      1.5861                 1.3514                 1.8603
 Frc consts  --      1.3899                 1.4289                 2.0200
 IR Inten    --     33.4274                11.9119               101.7878

                     31                     32                     33
                      A                      A                      A
 Frequencies --   1395.5431              1429.1939              1458.6858
 Red. masses --      1.3972                 3.4052                 1.0725
 Frc consts  --      1.6032                 4.0980                 1.3445
 IR Inten    --     53.2401               978.5362                 9.6442

                     34                     35                     36
                      A                      A                      A
 Frequencies --   1468.2738              1478.3935              1492.1962
 Red. masses --      1.3630                 1.1193                 1.0408
 Frc consts  --      1.7312                 1.4414                 1.3655
 IR Inten    --    117.0297                31.2609                15.4842

                     37                     38                     39
                      A                      A                      A
 Frequencies --   1502.3552              1647.9852              1675.0649
 Red. masses --      1.0323                 1.0895                10.3217
 Frc consts  --      1.3728                 1.7433                17.0633
 IR Inten    --     17.9143                69.2716               715.2048

                     40                     41                     42
                      A                      A                      A
 Frequencies --   3065.4808              3071.4052              3138.9897
 Red. masses --      1.0339                 1.0363                 1.1045
 Frc consts  --      5.7241                 5.7599                 6.4120
 IR Inten    --     27.4398                 6.4575                13.7417

                     43                     44                     45
                      A                      A                      A
 Frequencies --   3147.7592              3167.9703              3170.3053
 Red. masses --      1.0998                 1.1041                 1.1049
 Frc consts  --      6.4202                 6.5289                 6.5432
 IR Inten    --     11.1668                24.7297                13.2311

                     46                     47                     48
                      A                      A                      A
 Frequencies --   3241.0066              3526.5505              3609.9416
 Red. masses --      1.0917                 1.0505                 1.0965
 Frc consts  --      6.7562                 7.6976                 8.4191
 IR Inten    --      2.2479                57.5450                48.6241

 - Thermochemistry -
 -------------------
 Temperature   298.150 Kelvin.  Pressure   1.00000 Atm.
 Atom     1 has atomic number  6 and mass  12.00000

 Molecular mass:   212.95560 amu.
 Principal axes and moments of inertia in atomic units:
                           1         2         3
     Eigenvalues --  1633.721312848.634553289.93139
           X            0.99990   0.01375   0.00169
           Y           -0.01379   0.99957   0.02582
           Z           -0.00133  -0.02584   0.99967
 This molecule is an asymmetric top.
 Rotational symmetry number  1.
 Warning -- assumption of classical behavior for rotation
           may cause significant error
 Rotational temperatures (Kelvin)      0.05302     0.03041     0.02633
 Rotational constants (GHZ):           1.10468     0.63355     0.54856
    1 imaginary frequencies ignored.
 Zero-point vibrational energy     364488.1 (Joules/Mol)
                                   87.11475 (Kcal/Mol)
 Warning -- explicit consideration of  15 degrees of freedom as
           vibrations may cause significant error
 Vibrational temperatures:     75.84   108.15   131.48   182.60   203.00
          (Kelvin)            245.23   259.12   285.04   355.37   383.11
                              418.19   561.82   641.11   803.69   882.71
                              922.89  1024.12  1079.86  1304.20  1437.62
                             1448.97  1476.38  1500.67  1550.70  1600.91
                             1740.40  1754.63  1927.41  1953.23  2007.88
                             2056.29  2098.72  2112.52  2127.08  2146.94
                             2161.55  2371.08  2410.04  4410.54  4419.07
                             4516.31  4528.92  4558.00  4561.36  4663.09
                             5073.92  5193.90

 Zero-point correction=                           0.138826 (Hartree/Particle)
 Thermal correction to Energy=                    0.150118
 Thermal correction to Enthalpy=                  0.151062
 Thermal correction to Gibbs Free Energy=         0.099987
 Sum of electronic and zero-point Energies=          -3360.187314
 Sum of electronic and thermal Energies=             -3360.176022
 Sum of electronic and thermal Enthalpies=           -3360.175078
 Sum of electronic and thermal Free Energies=        -3360.226153

                     E (Thermal)             CV                S
                      KCal/Mol        Cal/Mol-Kelvin    Cal/Mol-Kelvin
 Total                   94.200             37.776            107.497
 Electronic               0.000              0.000              0.000
 Translational            0.889              2.981             41.971
 Rotational               0.889              2.981             31.105
 Vibrational             92.423             31.814             34.421
 Vibration     1          0.596              1.977              4.713
 Vibration     2          0.599              1.966              4.013
 Vibration     3          0.602              1.955              3.630
 Vibration     4          0.611              1.926              2.992
 Vibration     5          0.615              1.912              2.789
 Vibration     6          0.626              1.879              2.431
 Vibration     7          0.629              1.867              2.327
 Vibration     8          0.637              1.843              2.151
 Vibration     9          0.661              1.768              1.752
 Vibration    10          0.672              1.735              1.620
 Vibration    11          0.687              1.691              1.470
 Vibration    12          0.758              1.491              0.998
 Vibration    13          0.805              1.371              0.809
 Vibration    14          0.914              1.121              0.527
 Vibration    15          0.973              1.003              0.427

 Optimization completed.
    -- Stationary point found.
 Normal termination of Gaussian 16 at Tue Mar  2 02:18:39 2021.
