 Gaussian 16, Revision A.03,
 Gaussian 16:  ES64L-G16RevA.03 25-Dec-2016

 ----------------------------------------------------------------------
 # wB97XD def2tzvp, opt=(ts, noeigen, calcfc, maxcycles=70, maxstep=8),
  freq=noraman, scrf=(iefpcm, solvent=water)
 ----------------------------------------------------------------------

 ------------------------
 0_iteration/TS-324-0.out
 ------------------------
 Symbolic Z-matrix:
 Charge =  0 Multiplicity = 1

 SCF Done:  E(RwB97XD) =  -3206.99935872     A.U. after   15 cycles
 SCF Done:  E(RwB97XD) =  -3206.99920679     A.U. after   12 cycles
 SCF Done:  E(RwB97XD) =  -3206.99970372     A.U. after   13 cycles
 SCF Done:  E(RwB97XD) =  -3207.00078990     A.U. after   13 cycles
 SCF Done:  E(RwB97XD) =  -3207.00220844     A.U. after   13 cycles
 SCF Done:  E(RwB97XD) =  -3207.00365032     A.U. after   12 cycles
 SCF Done:  E(RwB97XD) =  -3207.00521835     A.U. after   12 cycles
 SCF Done:  E(RwB97XD) =  -3207.00685647     A.U. after   12 cycles
 SCF Done:  E(RwB97XD) =  -3207.00853196     A.U. after   13 cycles
 SCF Done:  E(RwB97XD) =  -3207.00999762     A.U. after   13 cycles
 SCF Done:  E(RwB97XD) =  -3207.01031652     A.U. after   12 cycles
 SCF Done:  E(RwB97XD) =  -3207.01075468     A.U. after   12 cycles
 SCF Done:  E(RwB97XD) =  -3207.01072405     A.U. after   12 cycles
 SCF Done:  E(RwB97XD) =  -3207.01076758     A.U. after   12 cycles
 SCF Done:  E(RwB97XD) =  -3207.01063850     A.U. after   12 cycles
 SCF Done:  E(RwB97XD) =  -3207.01076171     A.U. after   12 cycles
 SCF Done:  E(RwB97XD) =  -3207.01076518     A.U. after   10 cycles
 SCF Done:  E(RwB97XD) =  -3207.01076935     A.U. after    9 cycles
 SCF Done:  E(RwB97XD) =  -3207.01076930     A.U. after    7 cycles
 Optimization completed.
    -- Stationary point found.
 Normal termination of Gaussian 16 at Fri Feb 12 21:22:01 2021.

 ---------------------------------------------------------------------
 #N Geom=AllCheck Guess=TCheck SCRF=Check GenChk RwB97XD/def2TZVP Freq
 ---------------------------------------------------------------------

 Structure from the checkpoint file:  "/beegfs/scratch/user/q/tla25/Gau-22986.chk"
 ------------------------
 0_iteration/TS-324-0.out
 ------------------------
 Charge =  0 Multiplicity = 1

                         Standard orientation:
 ---------------------------------------------------------------------
 Center     Atomic      Atomic             Coordinates (Angstroms)
 Number     Number       Type             X           Y           Z
 ---------------------------------------------------------------------
      1          6           0        0.231873    0.234861   -0.089061
      2          6           0       -0.315477    1.560125    0.152136
      3          8           0        0.277937    2.618622    0.065513
      4          6           0       -0.556515   -0.886782   -0.200044
      5          6           0       -0.438243   -1.132626    2.695150
      6          1           0       -0.961000   -0.965628    3.637427
      7          1           0        0.251781   -1.964856    2.816038
      8          1           0        0.133837   -0.234530    2.446788
      9          7           0       -1.355346   -1.409232    1.602518
     10          1           0       -1.673181   -2.369909    1.584145
     11          1           0       -2.162750   -0.799674    1.632741
     12          1           0       -0.059965   -1.830075   -0.369760
     13         35           0       -2.229879   -0.938615   -1.166592
     14          6           0        1.705102    0.049454   -0.145854
     15          6           0        2.525556    0.952530   -0.830618
     16          6           0        3.895175    0.755461   -0.913743
     17          6           0        4.488283   -0.352991   -0.325888
     18          6           0        3.689223   -1.261887    0.350911
     19          6           0        2.320816   -1.058584    0.444164
     20          1           0        2.080540    1.816087   -1.302479
     21          1           0        4.502711    1.472475   -1.452776
     22          1           0        5.557884   -0.505664   -0.394232
     23          1           0        4.131747   -2.131221    0.821701
     24          1           0        1.727078   -1.775226    0.996989
     25          8           0       -1.598736    1.514176    0.568310
     26          6           0       -2.241898    2.763093    0.791457
     27          1           0       -2.244187    3.366478   -0.116305
     28          1           0       -3.261268    2.522507    1.081566
     29          1           0       -1.747016    3.317083    1.589009
 ---------------------------------------------------------------------

 SCF Done:  E(RwB97XD) =  -3207.01076930     A.U. after    1 cycles

 The electronic state is 1-A.
 Alpha  occ. eigenvalues -- -483.13087 -62.67936 -56.47052 -56.46701 -56.46683
 Alpha  occ. eigenvalues --  -19.28953 -19.22299 -14.47238 -10.40726 -10.38164
 Alpha  occ. eigenvalues --  -10.32954 -10.31347 -10.30357 -10.28621 -10.28513
 Alpha  occ. eigenvalues --  -10.28429 -10.28246 -10.28241 -10.28021  -8.82049
 Alpha  occ. eigenvalues --   -6.64201  -6.63086  -6.63024  -2.74588  -2.74277
 Alpha  occ. eigenvalues --   -2.74228  -2.73326  -2.73326  -1.20544  -1.10965
 Alpha  occ. eigenvalues --   -1.02818  -0.96687  -0.93165  -0.87900  -0.84584
 Alpha  occ. eigenvalues --   -0.83887  -0.80198  -0.78354  -0.72886  -0.69620
 Alpha  occ. eigenvalues --   -0.68929  -0.64495  -0.62898  -0.60843  -0.58358
 Alpha  occ. eigenvalues --   -0.57519  -0.57176  -0.56284  -0.54013  -0.53763
 Alpha  occ. eigenvalues --   -0.53051  -0.52260  -0.50718  -0.49870  -0.48529
 Alpha  occ. eigenvalues --   -0.47735  -0.46645  -0.46057  -0.44649  -0.43871
 Alpha  occ. eigenvalues --   -0.42670  -0.42191  -0.39247  -0.36923  -0.36481
 Alpha  occ. eigenvalues --   -0.36039  -0.34887  -0.33228  -0.27431
 Alpha virt. eigenvalues --    0.03123   0.05161   0.05756   0.06906   0.10452
 Alpha virt. eigenvalues --    0.12886   0.13462   0.14772   0.15658   0.15885
 Alpha virt. eigenvalues --    0.16606   0.17176   0.17827   0.17967   0.19292

 Mulliken charges:
               1
     1  C   -0.264722
     2  C    0.425147
     3  O   -0.474179
     4  C   -0.004807
     5  C   -0.293933
     6  H    0.155225
     7  H    0.154371
     8  H    0.149218
     9  N   -0.374640
    10  H    0.284685
    11  H    0.278385
    12  H    0.207341
    13  Br  -0.102502
    14  C    0.239170
    15  C   -0.252705
    16  C   -0.138356
    17  C   -0.160912
    18  C   -0.179154
    19  C   -0.259682
    20  H    0.138672
    21  H    0.137257
    22  H    0.139291
    23  H    0.137482
    24  H    0.157154
    25  O   -0.301289
    26  C   -0.201002
    27  H    0.132494
    28  H    0.140313
    29  H    0.131677
 Sum of Mulliken charges =  -0.00000

 Dipole moment (field-independent basis, Debye):
    X=             -3.9680    Y=             -5.4125    Z=              5.0362  Tot=              8.3907
 Quadrupole moment (field-independent basis, Debye-Ang):
   XX=            -94.5516   YY=            -99.0518   ZZ=            -95.0636
   XY=             -5.2438   XZ=             -8.0851   YZ=             -8.0581

  Exact polarizability: 291.527  13.737 233.497  -7.340 -27.952 192.522
 Approx polarizability: 218.889  10.521 195.649  -4.601 -22.668 160.797

 ******    1 imaginary frequencies (negative Signs) ******

                      1                      2                      3
                      A                      A                      A
 Frequencies --   -361.4905                41.4868                59.2593
 Red. masses --      5.9037                 4.4819                 5.1661
 Frc consts  --      0.4545                 0.0045                 0.0107
 IR Inten    --    696.6607                 1.1767                 4.4017

                      4                      5                      6
                      A                      A                      A
 Frequencies --     67.1292                75.1707                84.6333
 Red. masses --      3.4213                 5.2846                 2.1633
 Frc consts  --      0.0091                 0.0176                 0.0091
 IR Inten    --      1.3147                 1.6196                18.2639

                      7                      8                      9
                      A                      A                      A
 Frequencies --    106.3963               121.9747               151.5221
 Red. masses --      4.6161                 3.8100                 1.4944
 Frc consts  --      0.0308                 0.0334                 0.0202
 IR Inten    --      3.8003                 1.6738                 3.6780

                     10                     11                     12
                      A                      A                      A
 Frequencies --    165.6274               182.7843               213.7379
 Red. masses --      4.0978                 2.5216                 1.1445
 Frc consts  --      0.0662                 0.0496                 0.0308
 IR Inten    --      2.0571                 6.2048                 0.4151

                     13                     14                     15
                      A                      A                      A
 Frequencies --    217.6463               263.3986               281.3357
 Red. masses --      4.2836                 5.1704                 3.6870
 Frc consts  --      0.1196                 0.2113                 0.1719
 IR Inten    --      5.3934                31.6476                 2.2908

                     16                     17                     18
                      A                      A                      A
 Frequencies --    293.9617               341.5989               383.0755
 Red. masses --      6.2248                 3.4534                 4.8316
 Frc consts  --      0.3169                 0.2374                 0.4177
 IR Inten    --     18.5217                21.0739                23.5916

                     19                     20                     21
                      A                      A                      A
 Frequencies --    423.6647               451.6688               539.8388
 Red. masses --      2.9569                 4.9690                 2.3738
 Frc consts  --      0.3127                 0.5973                 0.4076
 IR Inten    --      3.0241                21.6561                27.7950

                     22                     23                     24
                      A                      A                      A
 Frequencies --    566.0412               618.4705               638.6027
 Red. masses --      2.5511                 4.4754                 6.4069
 Frc consts  --      0.4816                 1.0086                 1.5394
 IR Inten    --     10.0582                38.8394                 7.1587

                     25                     26                     27
                      A                      A                      A
 Frequencies --    684.3353               726.2461               738.2021
 Red. masses --      3.9340                 1.7577                 3.7241
 Frc consts  --      1.0855                 0.5462                 1.1957
 IR Inten    --     23.7666                57.3203               161.9915

                     28                     29                     30
                      A                      A                      A
 Frequencies --    786.1023               820.3104               843.9020
 Red. masses --      3.0061                 4.9364                 5.5928
 Frc consts  --      1.0945                 1.9571                 2.3467
 IR Inten    --     10.4995                95.0966                 7.3619

                     31                     32                     33
                      A                      A                      A
 Frequencies --    873.4901               932.4151               950.4266
 Red. masses --      1.2475                 3.5917                 1.6578
 Frc consts  --      0.5608                 1.8398                 0.8823
 IR Inten    --      1.5165                16.4567                 5.5542

                     34                     35                     36
                      A                      A                      A
 Frequencies --    980.1628              1009.1246              1016.7196
 Red. masses --      1.1353                 1.3611                 1.1031
 Frc consts  --      0.6426                 0.8166                 0.6719
 IR Inten    --    125.0099                 0.2397                26.5141

                     37                     38                     39
                      A                      A                      A
 Frequencies --   1021.4612              1022.6549              1053.6608
 Red. masses --      1.3036                 5.5578                 1.3023
 Frc consts  --      0.8014                 3.4246                 0.8518
 IR Inten    --      0.3110                 1.8320                65.5809

                     40                     41                     42
                      A                      A                      A
 Frequencies --   1064.6388              1094.3988              1096.4276
 Red. masses --      2.3340                 3.5526                 3.1991
 Frc consts  --      1.5587                 2.5070                 2.2659
 IR Inten    --     32.7116                31.6023                46.2647

                     43                     44                     45
                      A                      A                      A
 Frequencies --   1119.1075              1181.8358              1183.1672
 Red. masses --      1.5726                 1.2845                 1.1216
 Frc consts  --      1.1604                 1.0570                 0.9251
 IR Inten    --     12.4359                 1.5689                 1.2757

                     46                     47                     48
                      A                      A                      A
 Frequencies --   1192.9887              1211.6355              1218.1289
 Red. masses --      1.4236                 1.7117                 1.1896
 Frc consts  --      1.1938                 1.4805                 1.0400
 IR Inten    --     30.1083                60.6470                25.0328

                     49                     50                     51
                      A                      A                      A
 Frequencies --   1228.7231              1263.3377              1307.3508
 Red. masses --      2.5057                 1.7033                 4.2550
 Frc consts  --      2.2289                 1.6017                 4.2849
 IR Inten    --    402.5716                 4.7346                82.9246

                     52                     53                     54
                      A                      A                      A
 Frequencies --   1340.2475              1360.6733              1378.6321
 Red. masses --      1.3394                 1.9186                 2.0806
 Frc consts  --      1.4175                 2.0928                 2.3299
 IR Inten    --      8.5817               123.5249               222.4640

                     55                     56                     57
                      A                      A                      A
 Frequencies --   1449.1165              1473.0170              1480.9996
 Red. masses --      2.1672                 1.4443                 1.2393
 Frc consts  --      2.6814                 1.8464                 1.6015
 IR Inten    --    495.8013                84.0586                55.1737

                     58                     59                     60
                      A                      A                      A
 Frequencies --   1483.3345              1495.1655              1495.4766
 Red. masses --      1.0556                 1.0679                 1.0804
 Frc consts  --      1.3684                 1.4065                 1.4237
 IR Inten    --     17.5955                20.7916                15.8796

                     61                     62                     63
                      A                      A                      A
 Frequencies --   1502.4190              1512.1948              1544.2793
 Red. masses --      2.4770                 1.0543                 2.2926
 Frc consts  --      3.2943                 1.4204                 3.2213
 IR Inten    --    137.3008                27.3787               134.7055

                     64                     65                     66
                      A                      A                      A
 Frequencies --   1636.9039              1642.6926              1669.6217
 Red. masses --      1.0952                 5.5661                 5.7884
 Frc consts  --      1.7289                 8.8495                 9.5070
 IR Inten    --     64.5762                 6.3391                59.8200

                     67                     68                     69
                      A                      A                      A
 Frequencies --   1721.8248              3050.8524              3065.2705
 Red. masses --     11.4002                 1.0365                 1.0307
 Frc consts  --     19.9132                 5.6841                 5.7059
 IR Inten    --    943.4206                34.5812                56.6312

                     70                     71                     72
                      A                      A                      A
 Frequencies --   3120.9361              3142.3762              3162.0110
 Red. masses --      1.1012                 1.1069                 1.1038
 Frc consts  --      6.3197                 6.4400                 6.5024
 IR Inten    --     20.9580                34.1473                19.5620

                     73                     74                     75
                      A                      A                      A
 Frequencies --   3175.9503              3190.0292              3197.2055
 Red. masses --      1.1056                 1.0856                 1.0894
 Frc consts  --      6.5707                 6.5089                 6.5612
 IR Inten    --     21.5620                 4.1508                14.1744

                     76                     77                     78
                      A                      A                      A
 Frequencies --   3210.1478              3218.9448              3239.0445
 Red. masses --      1.0925                 1.0973                 1.0914
 Frc consts  --      6.6329                 6.6988                 6.7466
 IR Inten    --     36.5856                21.6242                 1.5500

                     79                     80                     81
                      A                      A                      A
 Frequencies --   3244.0617              3537.9699              3626.7810
 Red. masses --      1.0922                 1.0502                 1.0971
 Frc consts  --      6.7724                 7.7449                 8.5027
 IR Inten    --      5.8930                46.7621                54.3130

 - Thermochemistry -
 -------------------
 Temperature   298.150 Kelvin.  Pressure   1.00000 Atm.
 Atom     1 has atomic number  6 and mass  12.00000

 Molecular mass:   271.02079 amu.
 Principal axes and moments of inertia in atomic units:
                           1         2         3
     Eigenvalues --  2868.551866070.076536768.17524
           X            0.99832  -0.04667  -0.03428
           Y            0.04259   0.99285  -0.11152
           Z            0.03924   0.10987   0.99317
 This molecule is an asymmetric top.
 Rotational symmetry number  1.
 Warning -- assumption of classical behavior for rotation
           may cause significant error
 Rotational temperatures (Kelvin)      0.03019     0.01427     0.01280
 Rotational constants (GHZ):           0.62915     0.29732     0.26665
    1 imaginary frequencies ignored.
 Zero-point vibrational energy     617740.6 (Joules/Mol)
                                  147.64354 (Kcal/Mol)
 Warning -- explicit consideration of  22 degrees of freedom as
           vibrations may cause significant error
 Vibrational temperatures:     59.69    85.26    96.58   108.15   121.77
          (Kelvin)            153.08   175.49   218.01   238.30   262.99
                              307.52   313.14   378.97   404.78   422.95
                              491.48   551.16   609.56   649.85   776.71
                              814.41   889.84   918.81   984.61  1044.91
                             1062.11  1131.03  1180.24  1214.19  1256.76
                             1341.54  1367.45  1410.24  1451.91  1462.83
                             1469.65  1471.37  1515.98  1531.78  1574.60
                             1577.51  1610.15  1700.40  1702.31  1716.44
                             1743.27  1752.62  1767.86  1817.66  1880.99
                             1928.32  1957.71  1983.54  2084.96  2119.34
                             2130.83  2134.19  2151.21  2151.66  2161.65
                             2175.71  2221.87  2355.14  2363.47  2402.21
                             2477.32  4389.50  4410.24  4490.33  4521.18
                             4549.43  4569.48  4589.74  4600.07  4618.69
                             4631.34  4660.26  4667.48  5090.35  5218.13

 Zero-point correction=                           0.235285 (Hartree/Particle)
 Thermal correction to Energy=                    0.250929
 Thermal correction to Enthalpy=                  0.251873
 Thermal correction to Gibbs Free Energy=         0.190639
 Sum of electronic and zero-point Energies=          -3206.775484
 Sum of electronic and thermal Energies=             -3206.759840
 Sum of electronic and thermal Enthalpies=           -3206.758896
 Sum of electronic and thermal Free Energies=        -3206.820130

                     E (Thermal)             CV                S
                      KCal/Mol        Cal/Mol-Kelvin    Cal/Mol-Kelvin
 Total                  157.460             55.943            128.878
 Electronic               0.000              0.000              0.000
 Translational            0.889              2.981             42.690
 Rotational               0.889              2.981             33.132
 Vibrational            155.683             49.981             53.056
 Vibration     1          0.594              1.981              5.187
 Vibration     2          0.597              1.974              4.482
 Vibration     3          0.598              1.970              4.236
 Vibration     4          0.599              1.966              4.013
 Vibration     5          0.601              1.960              3.780
 Vibration     6          0.605              1.944              3.334
 Vibration     7          0.609              1.931              3.069
 Vibration     8          0.619              1.901              2.653
 Vibration     9          0.624              1.885              2.485
 Vibration    10          0.630              1.863              2.300
 Vibration    11          0.644              1.820              2.012
 Vibration    12          0.646              1.814              1.979
 Vibration    13          0.670              1.740              1.639
 Vibration    14          0.681              1.708              1.526
 Vibration    15          0.689              1.685              1.451
 Vibration    16          0.721              1.592              1.205
 Vibration    17          0.752              1.506              1.027
 Vibration    18          0.786              1.419              0.880
 Vibration    19          0.810              1.357              0.791
 Vibration    20          0.895              1.162              0.566
 Vibration    21          0.922              1.105              0.512
 Vibration    22          0.978              0.993              0.419

 Optimization completed.
    -- Stationary point found.
 Normal termination of Gaussian 16 at Fri Feb 12 22:21:36 2021.
