 Gaussian 16, Revision A.03,
 Gaussian 16:  ES64L-G16RevA.03 25-Dec-2016

 ----------------------------------------------------------------------
 # wB97XD def2tzvp, opt=(ts, noeigen, calcfc, maxcycles=70, maxstep=1),
  freq=noraman, scrf=(iefpcm, solvent=water)
 ----------------------------------------------------------------------

 ------------------------
 0_iteration/TS-315-0.out
 ------------------------
 Symbolic Z-matrix:
 Charge =  0 Multiplicity = 1

 SCF Done:  E(RwB97XD) =  -842.103211715     A.U. after   15 cycles
 SCF Done:  E(RwB97XD) =  -842.103211843     A.U. after    7 cycles
 Optimization completed.
    -- Stationary point found.
 Normal termination of Gaussian 16 at Tue Mar  2 02:17:08 2021.

 ---------------------------------------------------------------------
 #N Geom=AllCheck Guess=TCheck SCRF=Check GenChk RwB97XD/def2TZVP Freq
 ---------------------------------------------------------------------

 Structure from the checkpoint file:  "/beegfs/scratch/user/q/tla25/Gau-60117.chk"
 ------------------------
 0_iteration/TS-315-0.out
 ------------------------
 Charge =  0 Multiplicity = 1

                         Standard orientation:
 ---------------------------------------------------------------------
 Center     Atomic      Atomic             Coordinates (Angstroms)
 Number     Number       Type             X           Y           Z
 ---------------------------------------------------------------------
      1          6           0        0.567351    0.144230    0.349726
      2          6           0        1.450800   -0.835728   -0.211876
      3          8           0        1.126290   -2.026194   -0.360512
      4          6           0       -0.770407   -0.053108    0.704067
      5          6           0       -3.302875    0.365243   -0.626985
      6          1           0       -3.800550    0.713038   -1.532678
      7          1           0       -3.715052   -0.601250   -0.346708
      8          1           0       -3.490333    1.076740    0.176669
      9          7           0       -1.858005    0.238963   -0.819867
     10          1           0       -1.624663   -0.518505   -1.451698
     11          1           0       -1.462905    1.088863   -1.205079
     12          1           0       -1.202693    0.781331    1.248114
     13          6           0       -1.293741   -1.385532    1.172722
     14          1           0       -0.759956   -1.671545    2.079979
     15          1           0       -2.353628   -1.316558    1.414469
     16          1           0       -1.127400   -2.164007    0.434078
     17         17           0        1.082033    1.848841    0.301460
     18          7           0        2.721472   -0.445823   -0.552662
     19          1           0        2.938610    0.527970   -0.665947
     20          1           0        3.242654   -1.099429   -1.110140
 ---------------------------------------------------------------------

 SCF Done:  E(RwB97XD) =  -842.103211843     A.U. after    1 cycles

 The electronic state is 1-A.
 Alpha  occ. eigenvalues -- -101.68386 -19.19248 -14.48386 -14.43097 -10.37524
 Alpha  occ. eigenvalues --  -10.34215 -10.31911 -10.29680 -10.27658  -9.56926
 Alpha  occ. eigenvalues --   -7.31516  -7.30750  -7.30709  -1.11767  -1.03898
 Alpha  occ. eigenvalues --   -0.98958  -0.94939  -0.87687  -0.79374  -0.77925
 Alpha  occ. eigenvalues --   -0.72112  -0.64312  -0.62869  -0.60548  -0.56694
 Alpha  occ. eigenvalues --   -0.55560  -0.54764  -0.52660  -0.50045  -0.49920
 Alpha  occ. eigenvalues --   -0.48490  -0.48005  -0.45586  -0.45379  -0.43049
 Alpha  occ. eigenvalues --   -0.40607  -0.39467  -0.34700  -0.32982  -0.26353
 Alpha virt. eigenvalues --    0.07008   0.09816   0.11599   0.13399   0.14601
 Alpha virt. eigenvalues --    0.14710   0.15869   0.17062   0.18369   0.19032
 Alpha virt. eigenvalues --    0.19313   0.20456   0.21088   0.22059   0.23416

 Mulliken charges:
               1
     1  C   -0.118205
     2  C    0.278578
     3  O   -0.558113
     4  C   -0.058828
     5  C   -0.291214
     6  H    0.155122
     7  H    0.159165
     8  H    0.152207
     9  N   -0.321126
    10  H    0.283868
    11  H    0.281227
    12  H    0.151638
    13  C   -0.347086
    14  H    0.139105
    15  H    0.138232
    16  H    0.141512
    17  Cl  -0.218665
    18  N   -0.486050
    19  H    0.256698
    20  H    0.261933
 Sum of Mulliken charges =  -0.00000

 Dipole moment (field-independent basis, Debye):
    X=             -6.9576    Y=              3.1369    Z=             -2.8937  Tot=              8.1622
 Quadrupole moment (field-independent basis, Debye-Ang):
   XX=            -45.7046   YY=            -73.2203   ZZ=            -58.1888
   XY=              1.6981   XZ=             -1.0516   YZ=             -2.6463

  Exact polarizability: 167.385  -2.312 131.151  -1.693   1.066 101.896
 Approx polarizability: 122.147   0.536 112.153  -0.919   2.105  88.978

 ******    1 imaginary frequencies (negative Signs) ******

                      1                      2                      3
                      A                      A                      A
 Frequencies --   -357.4319                40.2742                64.2095
 Red. masses --      5.8768                 3.2947                 2.1989
 Frc consts  --      0.4424                 0.0031                 0.0053
 IR Inten    --   1078.7201                 2.3117                 6.3001

                      4                      5                      6
                      A                      A                      A
 Frequencies --     73.3485               128.3477               158.2649
 Red. masses --      4.2565                 4.3480                 1.1238
 Frc consts  --      0.0135                 0.0422                 0.0166
 IR Inten    --     17.8523                26.2089                 1.3836

                      7                      8                      9
                      A                      A                      A
 Frequencies --    193.1798               218.1222               248.7648
 Red. masses --      1.9582                 2.3235                 2.0760
 Frc consts  --      0.0431                 0.0651                 0.0757
 IR Inten    --     30.1277                 7.2301                 1.1745

                     10                     11                     12
                      A                      A                      A
 Frequencies --    262.7944               321.2339               330.6587
 Red. masses --      4.4837                 1.2872                 2.8813
 Frc consts  --      0.1824                 0.0783                 0.1856
 IR Inten    --     11.7312               339.3425                 6.3251

                     13                     14                     15
                      A                      A                      A
 Frequencies --    414.9018               444.4836               454.2537
 Red. masses --      3.4252                 3.4740                 7.7471
 Frc consts  --      0.3474                 0.4044                 0.9419
 IR Inten    --     11.2916               102.6812                13.5000

                     16                     17                     18
                      A                      A                      A
 Frequencies --    497.9375               557.8570               666.5439
 Red. masses --      1.1888                 2.9215                 1.3732
 Frc consts  --      0.1737                 0.5357                 0.3594
 IR Inten    --     20.7395                19.9708                45.5263

                     19                     20                     21
                      A                      A                      A
 Frequencies --    729.4617               777.3166               952.2996
 Red. masses --      2.8446                 9.6791                 4.1217
 Frc consts  --      0.8918                 3.4457                 2.2023
 IR Inten    --     20.2593                52.3329                79.9160

                     22                     23                     24
                      A                      A                      A
 Frequencies --    977.2682              1009.6019              1046.4414
 Red. masses --      1.4623                 1.2228                 1.3523
 Frc consts  --      0.8228                 0.7343                 0.8725
 IR Inten    --     38.2412                12.4888                 7.3340

                     25                     26                     27
                      A                      A                      A
 Frequencies --   1056.3408              1073.6429              1101.4143
 Red. masses --      1.3766                 2.6768                 1.8844
 Frc consts  --      0.9050                 1.8180                 1.3469
 IR Inten    --     93.2853               223.0280                29.0674

                     28                     29                     30
                      A                      A                      A
 Frequencies --   1149.0603              1202.6710              1231.4949
 Red. masses --      2.3822                 1.1626                 1.4289
 Frc consts  --      1.8532                 0.9908                 1.2768
 IR Inten    --      7.2211               198.4411                17.4278

                     31                     32                     33
                      A                      A                      A
 Frequencies --   1291.5623              1346.1925              1404.0806
 Red. masses --      1.7109                 1.3043                 1.3417
 Frc consts  --      1.6815                 1.3927                 1.5584
 IR Inten    --     20.2289                 0.3877                48.9386

                     34                     35                     36
                      A                      A                      A
 Frequencies --   1418.9761              1448.8033              1468.5334
 Red. masses --      2.5158                 1.6087                 1.1850
 Frc consts  --      2.9846                 1.9895                 1.5057
 IR Inten    --    504.5571               302.0157               128.7579

                     37                     38                     39
                      A                      A                      A
 Frequencies --   1473.0611              1492.3013              1499.8327
 Red. masses --      1.3179                 1.0948                 1.1600
 Frc consts  --      1.6850                 1.4364                 1.5374
 IR Inten    --    133.5733                55.4082                60.9601

                     40                     41                     42
                      A                      A                      A
 Frequencies --   1512.0553              1603.7293              1641.9833
 Red. masses --      1.0614                 1.5158                 2.0863
 Frc consts  --      1.4298                 2.2969                 3.3141
 IR Inten    --     38.2091               373.2722               324.3975

                     43                     44                     45
                      A                      A                      A
 Frequencies --   1645.6997              3069.2006              3074.6563
 Red. masses --      1.3665                 1.0344                 1.0380
 Frc consts  --      2.1805                 5.7411                 5.7815
 IR Inten    --    220.5844                47.0754                28.5918

                     46                     47                     48
                      A                      A                      A
 Frequencies --   3141.3099              3144.1020              3152.9624
 Red. masses --      1.1013                 1.1044                 1.0908
 Frc consts  --      6.4027                 6.4324                 6.3893
 IR Inten    --     30.8411                18.5608                15.7688

                     49                     50                     51
                      A                      A                      A
 Frequencies --   3172.4315              3185.7536              3525.8289
 Red. masses --      1.1043                 1.1011                 1.0510
 Frc consts  --      6.5482                 6.5843                 7.6982
 IR Inten    --     15.9397                 8.9848                19.6504

                     52                     53                     54
                      A                      A                      A
 Frequencies --   3605.5096              3619.6342              3740.9211
 Red. masses --      1.0963                 1.0458                 1.1032
 Frc consts  --      8.3971                 8.0725                 9.0961
 IR Inten    --     46.8078                60.5997                74.7215

 - Thermochemistry -
 -------------------
 Temperature   298.150 Kelvin.  Pressure   1.00000 Atm.
 Atom     1 has atomic number  6 and mass  12.00000

 Molecular mass:   150.05599 amu.
 Principal axes and moments of inertia in atomic units:
                           1         2         3
     Eigenvalues --  1074.289391916.879132535.37637
           X            0.99992  -0.01129  -0.00475
           Y            0.01111   0.99931  -0.03541
           Z            0.00515   0.03535   0.99936
 This molecule is an asymmetric top.
 Rotational symmetry number  1.
 Warning -- assumption of classical behavior for rotation
           may cause significant error
 Rotational temperatures (Kelvin)      0.08062     0.04518     0.03416
 Rotational constants (GHZ):           1.67994     0.94150     0.71182
    1 imaginary frequencies ignored.
 Zero-point vibrational energy     437003.7 (Joules/Mol)
                                  104.44639 (Kcal/Mol)
 Warning -- explicit consideration of  16 degrees of freedom as
           vibrations may cause significant error
 Vibrational temperatures:     57.95    92.38   105.53   184.66   227.71
          (Kelvin)            277.94   313.83   357.92   378.10   462.18
                              475.74   596.95   639.51   653.57   716.42
                              802.63   959.01  1049.53  1118.39  1370.15
                             1406.07  1452.59  1505.60  1519.84  1544.73
                             1584.69  1653.24  1730.38  1771.85  1858.27
                             1936.87  2020.16  2041.59  2084.50  2112.89
                             2119.41  2147.09  2157.92  2175.51  2307.41
                             2362.45  2367.79  4415.90  4423.74  4519.64
                             4523.66  4536.41  4564.42  4583.59  5072.88
                             5187.52  5207.85  5382.35

 Zero-point correction=                           0.166446 (Hartree/Particle)
 Thermal correction to Energy=                    0.177784
 Thermal correction to Enthalpy=                  0.178728
 Thermal correction to Gibbs Free Energy=         0.128510
 Sum of electronic and zero-point Energies=           -841.936766
 Sum of electronic and thermal Energies=              -841.925428
 Sum of electronic and thermal Enthalpies=            -841.924484
 Sum of electronic and thermal Free Energies=         -841.974702

                     E (Thermal)             CV                S
                      KCal/Mol        Cal/Mol-Kelvin    Cal/Mol-Kelvin
 Total                  111.561             39.177            105.693
 Electronic               0.000              0.000              0.000
 Translational            0.889              2.981             40.928
 Rotational               0.889              2.981             30.036
 Vibrational            109.784             33.216             34.730
 Vibration     1          0.594              1.981              5.246
 Vibration     2          0.597              1.971              4.323
 Vibration     3          0.599              1.967              4.061
 Vibration     4          0.611              1.925              2.971
 Vibration     5          0.621              1.893              2.570
 Vibration     6          0.635              1.849              2.197
 Vibration     7          0.646              1.813              1.975
 Vibration     8          0.662              1.765              1.739
 Vibration     9          0.670              1.741              1.643
 Vibration    10          0.707              1.633              1.304
 Vibration    11          0.713              1.614              1.257
 Vibration    12          0.778              1.438              0.909
 Vibration    13          0.804              1.373              0.813
 Vibration    14          0.813              1.351              0.783
 Vibration    15          0.853              1.255              0.663
 Vibration    16          0.913              1.123              0.528

 Optimization completed.
    -- Stationary point found.
 Normal termination of Gaussian 16 at Tue Mar  2 02:27:07 2021.
