 Gaussian 16, Revision A.03,
 Gaussian 16:  ES64L-G16RevA.03 25-Dec-2016

 ----------------------------------------------------------------------
 # wB97XD def2tzvp, opt=(ts, noeigen, calcfc, maxcycles=70, maxstep=8),
  freq=noraman, scrf=(iefpcm, solvent=water)
 ----------------------------------------------------------------------

 ------------------------
 0_iteration/TS-313-0.out
 ------------------------
 Symbolic Z-matrix:
 Charge =  0 Multiplicity = 1

 SCF Done:  E(RwB97XD) =  -786.720246119     A.U. after   14 cycles
 SCF Done:  E(RwB97XD) =  -786.719655264     A.U. after   12 cycles
 SCF Done:  E(RwB97XD) =  -786.719284155     A.U. after   12 cycles
 SCF Done:  E(RwB97XD) =  -786.719149983     A.U. after   12 cycles
 SCF Done:  E(RwB97XD) =  -786.719306249     A.U. after   12 cycles
 SCF Done:  E(RwB97XD) =  -786.720036150     A.U. after   11 cycles
 SCF Done:  E(RwB97XD) =  -786.720787077     A.U. after   12 cycles
 SCF Done:  E(RwB97XD) =  -786.721167784     A.U. after   12 cycles
 SCF Done:  E(RwB97XD) =  -786.721186147     A.U. after   11 cycles
 SCF Done:  E(RwB97XD) =  -786.721186761     A.U. after    8 cycles
 SCF Done:  E(RwB97XD) =  -786.721186572     A.U. after    7 cycles
 Optimization completed.
    -- Stationary point found.
 Normal termination of Gaussian 16 at Fri Feb 12 12:52:33 2021.

 ---------------------------------------------------------------------
 #N Geom=AllCheck Guess=TCheck SCRF=Check GenChk RwB97XD/def2TZVP Freq
 ---------------------------------------------------------------------

 Structure from the checkpoint file:  "/beegfs/scratch/user/q/tla25/Gau-16639.chk"
 ------------------------
 0_iteration/TS-313-0.out
 ------------------------
 Charge =  0 Multiplicity = 1

                         Standard orientation:
 ---------------------------------------------------------------------
 Center     Atomic      Atomic             Coordinates (Angstroms)
 Number     Number       Type             X           Y           Z
 ---------------------------------------------------------------------
      1          6           0       -0.588298    0.129362   -0.346905
      2          6           0       -1.070043    1.264713    0.343829
      3          8           0       -2.134743    1.374563    0.949852
      4          6           0        0.636542    0.030742   -0.989381
      5          6           0        2.007489   -0.195701    1.538413
      6          1           0        2.620724    0.694499    1.412528
      7          1           0        1.002903    0.109438    1.839823
      8          1           0        2.436434   -0.812761    2.328513
      9          7           0        1.916060   -0.904595    0.271478
     10          1           0        2.820684   -1.029686   -0.165415
     11          1           0        1.495095   -1.817750    0.388454
     12          1           0        0.735668   -0.790711   -1.688115
     13          6           0        1.469417    1.232667   -1.335540
     14          1           0        2.448164    0.922375   -1.696692
     15          1           0        0.976828    1.788474   -2.135029
     16          1           0        1.609353    1.907424   -0.493413
     17         17           0       -1.577847   -1.325759   -0.284818
     18          1           0       -0.387570    2.131568    0.289589
 ---------------------------------------------------------------------

 SCF Done:  E(RwB97XD) =  -786.721186572     A.U. after    1 cycles

 The electronic state is 1-A.
 Alpha  occ. eigenvalues -- -101.68637 -19.21387 -14.47212 -10.35230 -10.34837
 Alpha  occ. eigenvalues --  -10.31412 -10.31187 -10.28912  -9.57173  -7.31784
 Alpha  occ. eigenvalues --   -7.30969  -7.30961  -1.11733  -1.02881  -0.96316
 Alpha  occ. eigenvalues --   -0.88934  -0.79826  -0.78512  -0.72947  -0.62399
 Alpha  occ. eigenvalues --   -0.61666  -0.58051  -0.57140  -0.54300  -0.53899
 Alpha  occ. eigenvalues --   -0.50238  -0.49733  -0.48416  -0.47223  -0.46706
 Alpha  occ. eigenvalues --   -0.45938  -0.42386  -0.39605  -0.39073  -0.33023
 Alpha  occ. eigenvalues --   -0.28375
 Alpha virt. eigenvalues --    0.03422   0.10095   0.10813   0.13522   0.13969
 Alpha virt. eigenvalues --    0.15475   0.16080   0.17669   0.18300   0.18922
 Alpha virt. eigenvalues --    0.19988   0.21508   0.23121   0.23739   0.24621

 Mulliken charges:
               1
     1  C   -0.034605
     2  C    0.060739
     3  O   -0.494176
     4  C   -0.010541
     5  C   -0.302276
     6  H    0.157935
     7  H    0.148441
     8  H    0.154479
     9  N   -0.384023
    10  H    0.284494
    11  H    0.280206
    12  H    0.169998
    13  C   -0.387512
    14  H    0.148255
    15  H    0.162778
    16  H    0.145268
    17  Cl  -0.184559
    18  H    0.085098
 Sum of Mulliken charges =  -0.00000

 Dipole moment (field-independent basis, Debye):
    X=             11.7188    Y=             -2.3357    Z=             -1.9084  Tot=             12.1007
 Quadrupole moment (field-independent basis, Debye-Ang):
   XX=            -58.7292   YY=            -55.1935   ZZ=            -54.9776
   XY=              1.2126   XZ=              4.7729   YZ=             -4.2666

  Exact polarizability: 151.733 -12.409 119.743 -10.927   3.300 101.208
 Approx polarizability: 118.849  -8.418  99.401 -10.461   3.997  87.491

 ******    1 imaginary frequencies (negative Signs) ******

                      1                      2                      3
                      A                      A                      A
 Frequencies --   -328.2695                44.0823                73.8574
 Red. masses --      5.4504                 2.4431                 4.8024
 Frc consts  --      0.3461                 0.0028                 0.0154
 IR Inten    --    799.7387                 1.1537                 0.2330

                      4                      5                      6
                      A                      A                      A
 Frequencies --    115.4718               165.9787               202.3638
 Red. masses --      2.3063                 1.3093                 1.9519
 Frc consts  --      0.0181                 0.0213                 0.0471
 IR Inten    --     12.5716                 1.0657                 3.1800

                      7                      8                      9
                      A                      A                      A
 Frequencies --    218.9852               235.7143               258.2446
 Red. masses --      4.0782                 3.6314                 1.6370
 Frc consts  --      0.1152                 0.1189                 0.0643
 IR Inten    --      5.5336                 8.4634                 1.4779

                     10                     11                     12
                      A                      A                      A
 Frequencies --    296.4352               355.1952               435.3220
 Red. masses --      2.7470                 2.7544                 3.6947
 Frc consts  --      0.1422                 0.2047                 0.4125
 IR Inten    --      3.6733                 6.3806                 9.0538

                     13                     14                     15
                      A                      A                      A
 Frequencies --    505.9957               611.5810               654.6147
 Red. masses --      3.6607                 1.4788                 5.9892
 Frc consts  --      0.5522                 0.3259                 1.5121
 IR Inten    --     73.1223                28.4368                78.8472

                     16                     17                     18
                      A                      A                      A
 Frequencies --    684.6658               958.5553               990.0255
 Red. masses --      3.1345                 1.2964                 1.2477
 Frc consts  --      0.8657                 0.7018                 0.7205
 IR Inten    --     77.7391                38.2723               100.9201

                     19                     20                     21
                      A                      A                      A
 Frequencies --    997.4119              1014.7220              1050.0438
 Red. masses --      1.2470                 1.6911                 1.5767
 Frc consts  --      0.7309                 1.0259                 1.0243
 IR Inten    --     68.9643                 3.1306                 3.9045

                     22                     23                     24
                      A                      A                      A
 Frequencies --   1067.4646              1080.9040              1157.8161
 Red. masses --      1.9025                 2.4998                 1.5830
 Frc consts  --      1.2773                 1.7208                 1.2503
 IR Inten    --     62.2429                38.5458               106.8490

                     25                     26                     27
                      A                      A                      A
 Frequencies --   1200.3701              1205.8618              1344.4665
 Red. masses --      1.4079                 1.9079                 1.3380
 Frc consts  --      1.1952                 1.6346                 1.4250
 IR Inten    --     16.4416                 9.2617                 7.1377

                     28                     29                     30
                      A                      A                      A
 Frequencies --   1351.0267              1415.9631              1433.1079
 Red. masses --      1.5744                 1.2316                 1.6752
 Frc consts  --      1.6932                 1.4548                 2.0270
 IR Inten    --    350.0955                58.6662                42.7232

                     31                     32                     33
                      A                      A                      A
 Frequencies --   1454.6679              1474.2874              1491.4986
 Red. masses --      1.1918                 1.1813                 1.0544
 Frc consts  --      1.4859                 1.5128                 1.3820
 IR Inten    --     30.7647                75.7332                10.0258

                     34                     35                     36
                      A                      A                      A
 Frequencies --   1499.6733              1506.6812              1538.3224
 Red. masses --      1.0560                 1.0415                 2.3344
 Frc consts  --      1.3993                 1.3930                 3.2547
 IR Inten    --     14.1717                23.9392               273.8962

                     37                     38                     39
                      A                      A                      A
 Frequencies --   1649.5049              1676.7202              2960.5536
 Red. masses --      1.0903                 7.7005                 1.0812
 Frc consts  --      1.7479                12.7552                 5.5835
 IR Inten    --     74.5459              1063.4895               102.8891

                     40                     41                     42
                      A                      A                      A
 Frequencies --   3055.5499              3074.0357              3124.7803
 Red. masses --      1.0348                 1.0378                 1.1033
 Frc consts  --      5.6925                 5.7781                 6.3472
 IR Inten    --     34.5617                14.4122                18.7049

                     43                     44                     45
                      A                      A                      A
 Frequencies --   3145.4694              3158.0100              3163.8227
 Red. masses --      1.0998                 1.1041                 1.1026
 Frc consts  --      6.4112                 6.4877                 6.5024
 IR Inten    --     16.0422                19.3403                10.0501

                     46                     47                     48
                      A                      A                      A
 Frequencies --   3194.9616              3538.4811              3621.1111
 Red. masses --      1.0917                 1.0503                 1.0963
 Frc consts  --      6.5660                 7.7479                 8.4694
 IR Inten    --     15.5311                38.9378                42.2259

 - Thermochemistry -
 -------------------
 Temperature   298.150 Kelvin.  Pressure   1.00000 Atm.
 Atom     1 has atomic number  6 and mass  12.00000

 Molecular mass:   135.04509 amu.
 Principal axes and moments of inertia in atomic units:
                           1         2         3
     Eigenvalues --   942.967151587.557661789.04744
           X            0.99991  -0.00671   0.01125
           Y            0.00786   0.99436  -0.10581
           Z           -0.01048   0.10589   0.99432
 This molecule is an asymmetric top.
 Rotational symmetry number  1.
 Warning -- assumption of classical behavior for rotation
           may cause significant error
 Rotational temperatures (Kelvin)      0.09185     0.05456     0.04841
 Rotational constants (GHZ):           1.91390     1.13680     1.00877
    1 imaginary frequencies ignored.
 Zero-point vibrational energy     391504.1 (Joules/Mol)
                                   93.57173 (Kcal/Mol)
 Warning -- explicit consideration of  13 degrees of freedom as
           vibrations may cause significant error
 Vibrational temperatures:     63.42   106.26   166.14   238.81   291.16
          (Kelvin)            315.07   339.14   371.56   426.50   511.05
                              626.33   728.01   879.93   941.84   985.08
                             1379.15  1424.43  1435.05  1459.96  1510.78
                             1535.84  1555.18  1665.84  1727.06  1734.97
                             1934.39  1943.83  2037.26  2061.92  2092.94
                             2121.17  2145.93  2157.70  2167.78  2213.30
                             2373.27  2412.43  4259.58  4396.25  4422.85
                             4495.86  4525.63  4543.67  4552.04  4596.84
                             5091.09  5209.97

 Zero-point correction=                           0.149116 (Hartree/Particle)
 Thermal correction to Energy=                    0.159014
 Thermal correction to Enthalpy=                  0.159959
 Thermal correction to Gibbs Free Energy=         0.113193
 Sum of electronic and zero-point Energies=           -786.572071
 Sum of electronic and thermal Energies=              -786.562172
 Sum of electronic and thermal Enthalpies=            -786.561228
 Sum of electronic and thermal Free Energies=         -786.607993

                     E (Thermal)             CV                S
                      KCal/Mol        Cal/Mol-Kelvin    Cal/Mol-Kelvin
 Total                   99.783             33.690             98.426
 Electronic               0.000              0.000              0.000
 Translational            0.889              2.981             40.614
 Rotational               0.889              2.981             29.372
 Vibrational             98.006             27.728             28.440
 Vibration     1          0.595              1.980              5.067
 Vibration     2          0.599              1.966              4.048
 Vibration     3          0.608              1.937              3.175
 Vibration     4          0.624              1.884              2.481
 Vibration     5          0.639              1.837              2.111
 Vibration     6          0.647              1.812              1.967
 Vibration     7          0.655              1.786              1.835
 Vibration     8          0.667              1.749              1.674
 Vibration     9          0.690              1.680              1.437
 Vibration    10          0.731              1.565              1.143
 Vibration    11          0.796              1.393              0.841
 Vibration    12          0.861              1.237              0.643
 Vibration    13          0.971              1.007              0.430

 Optimization completed.
    -- Stationary point found.
 Normal termination of Gaussian 16 at Fri Feb 12 13:00:06 2021.
