 Gaussian 16, Revision A.03,
 Gaussian 16:  ES64L-G16RevA.03 25-Dec-2016

 ----------------------------------------------------------------------
 # wB97XD def2tzvp, opt=(ts, noeigen, calcfc, maxcycles=70, maxstep=8),
  freq=noraman, scrf=(iefpcm, solvent=water)
 ----------------------------------------------------------------------

 ------------------------
 0_iteration/TS-369-0.out
 ------------------------
 Symbolic Z-matrix:
 Charge =  0 Multiplicity = 1

 SCF Done:  E(RwB97XD) =  -747.391174147     A.U. after   15 cycles
 SCF Done:  E(RwB97XD) =  -747.390825851     A.U. after   12 cycles
 SCF Done:  E(RwB97XD) =  -747.390758785     A.U. after   12 cycles
 SCF Done:  E(RwB97XD) =  -747.390944777     A.U. after   12 cycles
 SCF Done:  E(RwB97XD) =  -747.391583407     A.U. after   14 cycles
 SCF Done:  E(RwB97XD) =  -747.392143227     A.U. after   14 cycles
 SCF Done:  E(RwB97XD) =  -747.392310141     A.U. after   13 cycles
 SCF Done:  E(RwB97XD) =  -747.392335611     A.U. after   11 cycles
 SCF Done:  E(RwB97XD) =  -747.392339206     A.U. after    9 cycles
 SCF Done:  E(RwB97XD) =  -747.392340330     A.U. after   10 cycles
 SCF Done:  E(RwB97XD) =  -747.392340379     A.U. after    8 cycles
 Optimization completed.
    -- Stationary point found.
 Normal termination of Gaussian 16 at Fri Feb 12 12:08:06 2021.

 ---------------------------------------------------------------------
 #N Geom=AllCheck Guess=TCheck SCRF=Check GenChk RwB97XD/def2TZVP Freq
 ---------------------------------------------------------------------

 Structure from the checkpoint file:  "/beegfs/scratch/user/q/tla25/Gau-39360.chk"
 ------------------------
 0_iteration/TS-369-0.out
 ------------------------
 Charge =  0 Multiplicity = 1

                         Standard orientation:
 ---------------------------------------------------------------------
 Center     Atomic      Atomic             Coordinates (Angstroms)
 Number     Number       Type             X           Y           Z
 ---------------------------------------------------------------------
      1          6           0       -1.136274   -0.437648    0.703017
      2          6           0       -2.113079   -0.150628   -0.279603
      3          8           0       -3.245642   -0.635042   -0.331378
      4          6           0        0.147592    0.073341    0.719052
      5          6           0        2.808224   -0.855191   -0.168354
      6          1           0        3.394807   -1.604200   -0.702143
      7          1           0        3.035544    0.129047   -0.572813
      8          1           0        3.083444   -0.876555    0.885442
      9          7           0        1.373376   -1.099839   -0.289304
     10          1           0        1.053383   -1.034305   -1.248993
     11          1           0        1.115653   -2.015308    0.060422
     12          1           0        0.743972   -0.026891    1.615254
     13         17           0        0.521632    1.589558   -0.095002
     14          1           0       -1.369006   -1.177823    1.460465
     15          1           0       -1.812811    0.583511   -1.051116
 ---------------------------------------------------------------------

 SCF Done:  E(RwB97XD) =  -747.392340379     A.U. after    1 cycles

 The electronic state is 1-A.
 Alpha  occ. eigenvalues -- -101.70484 -19.21028 -14.48063 -10.39457 -10.34720
 Alpha  occ. eigenvalues --  -10.31786 -10.26041  -9.59068  -7.33706  -7.32859
 Alpha  occ. eigenvalues --   -7.32814  -1.11143  -1.03758  -0.97530  -0.86067
 Alpha  occ. eigenvalues --   -0.78845  -0.73718  -0.63882  -0.62978  -0.58485
 Alpha  occ. eigenvalues --   -0.55505  -0.54885  -0.54128  -0.49559  -0.48096
 Alpha  occ. eigenvalues --   -0.47724  -0.46646  -0.45153  -0.40786  -0.38967
 Alpha  occ. eigenvalues --   -0.32358  -0.28887
 Alpha virt. eigenvalues --    0.03225   0.09198   0.10592   0.13966   0.14687
 Alpha virt. eigenvalues --    0.15134   0.16735   0.18487   0.19411   0.19691
 Alpha virt. eigenvalues --    0.20513   0.22030   0.23711   0.26067   0.27616

 Mulliken charges:
               1
     1  C   -0.306125
     2  C    0.130999
     3  O   -0.507012
     4  C    0.008932
     5  C   -0.267509
     6  H    0.151600
     7  H    0.147703
     8  H    0.149398
     9  N   -0.362432
    10  H    0.281340
    11  H    0.281894
    12  H    0.183814
    13  Cl  -0.102260
    14  H    0.141692
    15  H    0.067965
 Sum of Mulliken charges =   0.00000

 Dipole moment (field-independent basis, Debye):
    X=             10.7210    Y=             -2.3447    Z=              0.0628  Tot=             10.9745
 Quadrupole moment (field-independent basis, Debye-Ang):
   XX=            -67.3820   YY=            -47.1030   ZZ=            -46.2911
   XY=            -10.1807   XZ=             -2.0112   YZ=             -1.0123

  Exact polarizability: 163.540   3.432  94.707   0.952  -4.896  82.496
 Approx polarizability: 118.452   4.158  80.572   1.393  -4.457  73.203

 ******    1 imaginary frequencies (negative Signs) ******

                      1                      2                      3
                      A                      A                      A
 Frequencies --   -345.1249                28.3682                84.1062
 Red. masses --      6.4725                 2.0136                 4.7275
 Frc consts  --      0.4542                 0.0010                 0.0197
 IR Inten    --   1026.8639                 5.5601                 8.2929

                      4                      5                      6
                      A                      A                      A
 Frequencies --    162.6872               177.5175               197.1547
 Red. masses --      1.4497                 3.4493                 4.5590
 Frc consts  --      0.0226                 0.0640                 0.1044
 IR Inten    --      3.9738                11.0858                 5.1242

                      7                      8                      9
                      A                      A                      A
 Frequencies --    207.0964               293.7915               418.2442
 Red. masses --      1.9090                 2.9769                 5.4770
 Frc consts  --      0.0482                 0.1514                 0.5645
 IR Inten    --     12.0793                 2.3695                61.7353

                     10                     11                     12
                      A                      A                      A
 Frequencies --    429.7338               620.5947               669.0784
 Red. masses --      4.7552                 1.4966                 4.8402
 Frc consts  --      0.5174                 0.3396                 1.2766
 IR Inten    --    153.2594                13.2006                53.4788

                     13                     14                     15
                      A                      A                      A
 Frequencies --    756.9586               760.2213              1000.6649
 Red. masses --      1.5775                 2.2645                 1.0748
 Frc consts  --      0.5326                 0.7711                 0.6341
 IR Inten    --    139.0898                65.3069                31.0980

                     16                     17                     18
                      A                      A                      A
 Frequencies --   1023.3337              1035.9224              1069.5182
 Red. masses --      1.1120                 1.6687                 4.4759
 Frc consts  --      0.6861                 1.0551                 3.0165
 IR Inten    --     85.3283                15.0059               208.4745

                     19                     20                     21
                      A                      A                      A
 Frequencies --   1128.2309              1138.8918              1212.9787
 Red. masses --      1.6817                 1.1487                 1.4402
 Frc consts  --      1.2612                 0.8779                 1.2485
 IR Inten    --     61.1354               185.3918                83.3615

                     22                     23                     24
                      A                      A                      A
 Frequencies --   1222.3956              1338.9170              1354.8923
 Red. masses --      1.3987                 1.3345                 1.4727
 Frc consts  --      1.2314                 1.4095                 1.5928
 IR Inten    --    194.3722                 6.7941                72.3901

                     25                     26                     27
                      A                      A                      A
 Frequencies --   1392.2220              1459.6316              1490.3259
 Red. masses --      1.6125                 1.1812                 1.0400
 Frc consts  --      1.8414                 1.4828                 1.3609
 IR Inten    --    520.0708                 7.8334                15.0703

                     28                     29                     30
                      A                      A                      A
 Frequencies --   1504.7121              1512.4325              1639.8631
 Red. masses --      1.0323                 2.9985                 1.0914
 Frc consts  --      1.3771                 4.0412                 1.7293
 IR Inten    --     18.7514               305.5243                86.1752

                     31                     32                     33
                      A                      A                      A
 Frequencies --   1675.0541              2935.3425              3064.2240
 Red. masses --      6.1414                 1.0813                 1.0346
 Frc consts  --     10.1525                 5.4892                 5.7234
 IR Inten    --   1195.8476               113.3567                54.4746

                     34                     35                     36
                      A                      A                      A
 Frequencies --   3139.8243              3166.0352              3185.3102
 Red. masses --      1.1041                 1.1050                 1.0871
 Frc consts  --      6.4132                 6.5258                 6.4985
 IR Inten    --     17.8678                14.4166                 4.8862

                     37                     38                     39
                      A                      A                      A
 Frequencies --   3213.3847              3521.8073              3607.1870
 Red. masses --      1.0948                 1.0507                 1.0969
 Frc consts  --      6.6608                 7.6785                 8.4089
 IR Inten    --      8.7584                22.0668                40.3079

 - Thermochemistry -
 -------------------
 Temperature   298.150 Kelvin.  Pressure   1.00000 Atm.
 Atom     1 has atomic number  6 and mass  12.00000

 Molecular mass:   121.02944 amu.
 Principal axes and moments of inertia in atomic units:
                           1         2         3
     Eigenvalues --   564.995411544.957051926.18197
           X            0.99907  -0.04309  -0.00353
           Y            0.04306   0.99905  -0.00716
           Z            0.00383   0.00701   0.99997
 This molecule is an asymmetric top.
 Rotational symmetry number  1.
 Warning -- assumption of classical behavior for rotation
           may cause significant error
 Rotational temperatures (Kelvin)      0.15330     0.05606     0.04497
 Rotational constants (GHZ):           3.19426     1.16815     0.93695
    1 imaginary frequencies ignored.
 Zero-point vibrational energy     316045.3 (Joules/Mol)
                                   75.53665 (Kcal/Mol)
 Warning -- explicit consideration of  10 degrees of freedom as
           vibrations may cause significant error
 Vibrational temperatures:     40.82   121.01   234.07   255.41   283.66
          (Kelvin)            297.97   422.70   601.76   618.29   892.90
                              962.65  1089.09  1093.79  1439.73  1472.35
                             1490.46  1538.80  1623.27  1638.61  1745.21
                             1758.75  1926.40  1949.39  2003.10  2100.08
                             2144.25  2164.95  2176.05  2359.40  2410.03
                             4223.30  4408.73  4517.51  4555.22  4582.95
                             4623.34  5067.10  5189.94

 Zero-point correction=                           0.120375 (Hartree/Particle)
 Thermal correction to Energy=                    0.128904
 Thermal correction to Enthalpy=                  0.129848
 Thermal correction to Gibbs Free Energy=         0.085599
 Sum of electronic and zero-point Energies=           -747.271965
 Sum of electronic and thermal Energies=              -747.263437
 Sum of electronic and thermal Enthalpies=            -747.262493
 Sum of electronic and thermal Free Energies=         -747.306741

                     E (Thermal)             CV                S
                      KCal/Mol        Cal/Mol-Kelvin    Cal/Mol-Kelvin
 Total                   80.888             28.205             93.129
 Electronic               0.000              0.000              0.000
 Translational            0.889              2.981             40.287
 Rotational               0.889              2.981             28.910
 Vibrational             79.111             22.244             23.932
 Vibration     1          0.593              1.984              5.940
 Vibration     2          0.601              1.960              3.793
 Vibration     3          0.623              1.888              2.518
 Vibration     4          0.628              1.870              2.354
 Vibration     5          0.637              1.844              2.159
 Vibration     6          0.641              1.830              2.069
 Vibration     7          0.689              1.685              1.452
 Vibration     8          0.781              1.431              0.898
 Vibration     9          0.791              1.405              0.860
 Vibration    10          0.981              0.988              0.416

 Optimization completed.
    -- Stationary point found.
 Normal termination of Gaussian 16 at Fri Feb 12 12:12:48 2021.
