 Gaussian 16, Revision A.03,
 Gaussian 16:  ES64L-G16RevA.03 25-Dec-2016

 ----------------------------------------------------------------------
 # wB97XD def2tzvp, opt=(ts, noeigen, calcfc, maxcycles=70, maxstep=5),
  freq=noraman, scrf=(iefpcm, solvent=water)
 ----------------------------------------------------------------------

 ------------------------
 2_iteration/TS-368-2.out
 ------------------------
 Symbolic Z-matrix:
 Charge =  0 Multiplicity = 1

 SCF Done:  E(RwB97XD) =  -1209.49856584     A.U. after   15 cycles
 Optimization completed.
    -- Stationary point found.
 Normal termination of Gaussian 16 at Thu Apr  1 03:09:27 2021.

 ---------------------------------------------------------------------
 #N Geom=AllCheck Guess=TCheck SCRF=Check GenChk RwB97XD/def2TZVP Freq
 ---------------------------------------------------------------------

 Structure from the checkpoint file:  "/beegfs/scratch/user/q/tla25/Gau-14156.chk"
 ------------------------
 2_iteration/TS-368-2.out
 ------------------------
 Charge =  0 Multiplicity = 1

                         Standard orientation:
 ---------------------------------------------------------------------
 Center     Atomic      Atomic             Coordinates (Angstroms)
 Number     Number       Type             X           Y           Z
 ---------------------------------------------------------------------
      1          6           0        0.634810   -0.110320    0.212030
      2          6           0       -0.262979   -1.065330   -0.393450
      3          8           0        0.122061   -2.076600   -0.981740
      4          6           0        0.248880    0.990860    0.966510
      5          6           0        0.229459    2.571740   -1.482530
      6          1           0       -0.446891    3.007970   -2.217280
      7          1           0        1.151389    3.147490   -1.469410
      8          1           0        0.462520    1.544690   -1.779720
      9          7           0       -0.361081    2.547520   -0.151960
     10          1           0       -0.187961    3.398770    0.368370
     11          1           0       -1.362911    2.402389   -0.188340
     12          1           0        1.045200    1.556080    1.426950
     13         17           0       -1.139180    1.008469    2.052090
     14          6           0        2.106920   -0.290939    0.053790
     15          6           0        2.698231   -1.547129    0.225870
     16          6           0        4.070461   -1.713079    0.130590
     17          6           0        4.897230   -0.628948   -0.132480
     18          6           0        4.330230    0.624871   -0.294640
     19          6           0        2.954910    0.787601   -0.205850
     20          1           0        2.072481   -2.400749    0.441110
     21          1           0        4.498171   -2.698299    0.272090
     22          1           0        5.969280   -0.760868   -0.206330
     23          1           0        4.956740    1.484462   -0.498760
     24          1           0        2.543070    1.778311   -0.344670
     25          6           0       -1.753639   -0.842001   -0.370680
     26          6           0       -2.555969   -1.659261    0.418260
     27          6           0       -3.932699   -1.506562    0.408640
     28          6           0       -4.523230   -0.547932   -0.405170
     29          6           0       -3.729660    0.247038   -1.217910
     30          6           0       -2.349290    0.099169   -1.200520
     31          1           0       -2.096769   -2.405051    1.055720
     32          1           0       -4.548419   -2.136882    1.037890
     33          1           0       -5.599180   -0.428962   -0.412010
     34          1           0       -4.183080    0.982078   -1.870840
     35          1           0       -1.738490    0.706089   -1.857410
 ---------------------------------------------------------------------

 SCF Done:  E(RwB97XD) =  -1209.49856584     A.U. after    1 cycles

 The electronic state is 1-A.
 Alpha  occ. eigenvalues -- -101.70440 -19.21949 -14.48171 -10.39393 -10.36786
 Alpha  occ. eigenvalues --  -10.31881 -10.30183 -10.30063 -10.29524 -10.29378
 Alpha  occ. eigenvalues --  -10.29318 -10.29259 -10.29167 -10.28635 -10.28518
 Alpha  occ. eigenvalues --  -10.28494 -10.28337 -10.28278 -10.28129  -9.59026
 Alpha  occ. eigenvalues --   -7.33673  -7.32818  -7.32759  -1.12854  -1.03893
 Alpha  occ. eigenvalues --   -0.98063  -0.96847  -0.96055  -0.89348  -0.86535
 Alpha  occ. eigenvalues --   -0.85498  -0.84616  -0.82188  -0.79107  -0.74970
 Alpha  occ. eigenvalues --   -0.71812  -0.70870  -0.69622  -0.68399  -0.64127
 Alpha  occ. eigenvalues --   -0.63443  -0.61253  -0.59074  -0.57367  -0.56972
 Alpha  occ. eigenvalues --   -0.56277  -0.55528  -0.54468  -0.53591  -0.53090
 Alpha  occ. eigenvalues --   -0.52447  -0.51370  -0.50693  -0.50203  -0.48940
 Alpha  occ. eigenvalues --   -0.48299  -0.47741  -0.46854  -0.45931  -0.45481
 Alpha  occ. eigenvalues --   -0.44477  -0.43128  -0.42688  -0.42256  -0.40277
 Alpha  occ. eigenvalues --   -0.38669  -0.34813  -0.34339  -0.34120  -0.33441
 Alpha  occ. eigenvalues --   -0.32005  -0.28008
 Alpha virt. eigenvalues --    0.02090   0.04839   0.04970   0.05339   0.05717
 Alpha virt. eigenvalues --    0.08499   0.10500   0.12762   0.13233   0.14283
 Alpha virt. eigenvalues --    0.14510   0.15177   0.16071   0.16942   0.17174

 Mulliken charges:
               1
     1  C   -0.274362
     2  C    0.280957
     3  O   -0.472349
     4  C    0.021043
     5  C   -0.357120
     6  H    0.174424
     7  H    0.168231
     8  H    0.167677
     9  N   -0.345681
    10  H    0.288434
    11  H    0.279260
    12  H    0.210963
    13  Cl  -0.093393
    14  C    0.265832
    15  C   -0.263996
    16  C   -0.136525
    17  C   -0.156528
    18  C   -0.185439
    19  C   -0.249227
    20  H    0.137097
    21  H    0.137603
    22  H    0.139490
    23  H    0.136883
    24  H    0.153445
    25  C    0.204888
    26  C   -0.253912
    27  C   -0.134134
    28  C   -0.150778
    29  C   -0.135232
    30  C   -0.326082
    31  H    0.140852
    32  H    0.144378
    33  H    0.145460
    34  H    0.143458
    35  H    0.194384
 Sum of Mulliken charges =  -0.00000

 Dipole moment (field-independent basis, Debye):
    X=             -2.0065    Y=             10.0091    Z=              0.5965  Tot=             10.2256
 Quadrupole moment (field-independent basis, Debye-Ang):
   XX=           -107.4983   YY=           -103.8588   ZZ=           -122.9590
   XY=              1.0368   XZ=              1.3749   YZ=            -12.6481

  Exact polarizability: 357.919 -13.149 313.476 -15.250 -19.124 221.733
 Approx polarizability: 270.619  -9.600 263.968 -12.435 -14.977 194.728

 ******    1 imaginary frequencies (negative Signs) ******

                      1                      2                      3
                      A                      A                      A
 Frequencies --   -347.6844                25.4112                40.8490
 Red. masses --      6.2520                 5.5943                 4.0365
 Frc consts  --      0.4453                 0.0021                 0.0040
 IR Inten    --    752.6196                 2.8494                 0.9207

                      4                      5                      6
                      A                      A                      A
 Frequencies --     56.0278                62.6933                90.7664
 Red. masses --      4.3685                 5.4266                 4.5906
 Frc consts  --      0.0081                 0.0126                 0.0223
 IR Inten    --      7.4282                 0.9046                 1.5027

                      7                      8                      9
                      A                      A                      A
 Frequencies --     93.1398               116.1712               142.7275
 Red. masses --      3.4833                 3.6270                 3.8025
 Frc consts  --      0.0178                 0.0288                 0.0456
 IR Inten    --      1.4835                23.5255                 3.6050

                     10                     11                     12
                      A                      A                      A
 Frequencies --    169.7014               195.8159               203.4556
 Red. masses --      5.7362                 5.6916                 4.7936
 Frc consts  --      0.0973                 0.1286                 0.1169
 IR Inten    --      2.9915                 2.7540                 1.3836

                     13                     14                     15
                      A                      A                      A
 Frequencies --    240.2795               250.4834               265.7388
 Red. masses --      3.5305                 5.1662                 1.1720
 Frc consts  --      0.1201                 0.1910                 0.0488
 IR Inten    --     17.4655                 6.0567                 0.4109

                     16                     17                     18
                      A                      A                      A
 Frequencies --    308.4865               322.6793               348.5594
 Red. masses --      5.8830                 5.0646                 3.8465
 Frc consts  --      0.3299                 0.3107                 0.2753
 IR Inten    --     10.4474                20.2423                43.4945

                     19                     20                     21
                      A                      A                      A
 Frequencies --    374.0105               418.4243               426.2449
 Red. masses --      5.7042                 2.9430                 2.9846
 Frc consts  --      0.4701                 0.3036                 0.3195
 IR Inten    --     20.7033                 1.1032                 2.1578

                     22                     23                     24
                      A                      A                      A
 Frequencies --    472.7062               538.3220               553.6751
 Red. masses --      4.2709                 2.7590                 3.6369
 Frc consts  --      0.5623                 0.4711                 0.6569
 IR Inten    --     20.5490                 8.1131                25.8269

                     25                     26                     27
                      A                      A                      A
 Frequencies --    591.8243               618.1762               635.3932
 Red. masses --      3.0004                 3.3790                 6.4079
 Frc consts  --      0.6192                 0.7608                 1.5242
 IR Inten    --     22.4016                63.8534                 0.9226

                     28                     29                     30
                      A                      A                      A
 Frequencies --    639.8635               687.9710               727.5983
 Red. masses --      6.2316                 5.3912                 1.9857
 Frc consts  --      1.5032                 1.5034                 0.6194
 IR Inten    --      2.8706                41.6498                40.6463

                     31                     32                     33
                      A                      A                      A
 Frequencies --    729.8814               737.3550               767.0891
 Red. masses --      1.9510                 1.9463                 3.1670
 Frc consts  --      0.6124                 0.6235                 1.0980
 IR Inten    --    108.9065                31.6595                50.2214

                     34                     35                     36
                      A                      A                      A
 Frequencies --    794.7468               814.8434               828.4492
 Red. masses --      2.6048                 7.2177                 3.5316
 Frc consts  --      0.9694                 2.8236                 1.4281
 IR Inten    --     80.8810                86.0450               110.5789

                     37                     38                     39
                      A                      A                      A
 Frequencies --    876.6496               880.2653               886.0308
 Red. masses --      1.2511                 2.6086                 1.5527
 Frc consts  --      0.5665                 1.1909                 0.7182
 IR Inten    --      3.6256                10.6327                 8.2722

                     40                     41                     42
                      A                      A                      A
 Frequencies --    952.9240               964.9652              1008.2811
 Red. masses --      1.4637                 1.4827                 1.1627
 Frc consts  --      0.7831                 0.8134                 0.6964
 IR Inten    --      7.7774                14.8535                25.6048

                     43                     44                     45
                      A                      A                      A
 Frequencies --   1010.4965              1016.8871              1021.6010
 Red. masses --      1.3081                 1.3519                 1.4101
 Frc consts  --      0.7870                 0.8236                 0.8671
 IR Inten    --      5.8444                38.3277                51.9515

                     46                     47                     48
                      A                      A                      A
 Frequencies --   1022.9305              1024.8079              1027.2633
 Red. masses --      1.5314                 3.4655                 2.4950
 Frc consts  --      0.9441                 2.1444                 1.5513
 IR Inten    --      1.4794                 0.3226                 3.5430

                     49                     50                     51
                      A                      A                      A
 Frequencies --   1033.0339              1056.5461              1066.3766
 Red. masses --      1.4039                 2.6938                 2.2510
 Frc consts  --      0.8827                 1.7717                 1.5082
 IR Inten    --      1.9150                19.2704                14.6046

                     52                     53                     54
                      A                      A                      A
 Frequencies --   1073.3536              1107.6316              1110.9265
 Red. masses --      2.2857                 1.8544                 1.5995
 Frc consts  --      1.5515                 1.3404                 1.1631
 IR Inten    --     67.7930                27.1523                10.1554

                     55                     56                     57
                      A                      A                      A
 Frequencies --   1117.1149              1127.3877              1184.1164
 Red. masses --      1.8885                 1.4694                 1.1397
 Frc consts  --      1.3885                 1.1004                 0.9415
 IR Inten    --     20.3308                33.3777                 0.1216

                     58                     59                     60
                      A                      A                      A
 Frequencies --   1184.5221              1196.6829              1208.3682
 Red. masses --      1.1255                 1.3954                 1.1234
 Frc consts  --      0.9305                 1.1774                 0.9664
 IR Inten    --      1.4588                14.2367                 1.2009

                     61                     62                     63
                      A                      A                      A
 Frequencies --   1224.3970              1247.1242              1293.5584
 Red. masses --      1.1592                 3.6672                 1.5761
 Frc consts  --      1.0238                 3.3605                 1.5538
 IR Inten    --      1.4628                21.4089                75.5635

                     64                     65                     66
                      A                      A                      A
 Frequencies --   1311.8561              1319.7006              1333.1611
 Red. masses --      4.2761                 4.4016                 1.3258
 Frc consts  --      4.3358                 4.5166                 1.3883
 IR Inten    --    103.8010                 0.4917                10.1197

                     67                     68                     69
                      A                      A                      A
 Frequencies --   1359.5442              1365.2178              1400.6106
 Red. masses --      1.4785                 1.7563                 2.7376
 Frc consts  --      1.6101                 1.9286                 3.1642
 IR Inten    --     11.9930               199.1030               560.5859

                     70                     71                     72
                      A                      A                      A
 Frequencies --   1436.3853              1467.4903              1487.9043
 Red. masses --      2.4348                 1.3010                 2.2014
 Frc consts  --      2.9597                 1.6508                 2.8715
 IR Inten    --    392.0223                36.5505                12.6602

                     73                     74                     75
                      A                      A                      A
 Frequencies --   1495.2126              1505.6582              1512.4543
 Red. masses --      2.4897                 1.0458                 1.0361
 Frc consts  --      3.2795                 1.3969                 1.3964
 IR Inten    --     43.8004                19.5356                16.7720

                     76                     77                     78
                      A                      A                      A
 Frequencies --   1542.3955              1547.2928              1642.5094
 Red. masses --      2.3169                 2.2328                 1.4932
 Frc consts  --      3.2476                 3.1496                 2.3734
 IR Inten    --      3.2298                93.1565               222.4906

                     79                     80                     81
                      A                      A                      A
 Frequencies --   1643.5046              1646.0405              1651.0079
 Red. masses --      2.5655                 6.8526                 6.4799
 Frc consts  --      4.0829                10.9393                10.4067
 IR Inten    --     85.6900               249.1338               139.2808

                     82                     83                     84
                      A                      A                      A
 Frequencies --   1673.7387              1675.3091              3045.1788
 Red. masses --      6.0488                 5.8616                 1.0413
 Frc consts  --      9.9837                 9.6930                 5.6890
 IR Inten    --    136.5774                 0.5786                23.9213

                     85                     86                     87
                      A                      A                      A
 Frequencies --   3122.4742              3171.5411              3190.7894
 Red. masses --      1.0971                 1.1035                 1.0858
 Frc consts  --      6.3025                 6.5395                 6.5134
 IR Inten    --     16.0813                17.9126                 2.1024

                     88                     89                     90
                      A                      A                      A
 Frequencies --   3193.4738              3198.7484              3198.8812
 Red. masses --      1.0860                 1.0876                 1.0902
 Frc consts  --      6.5253                 6.5569                 6.5729
 IR Inten    --      2.1084                 0.0910                19.8941

                     91                     92                     93
                      A                      A                      A
 Frequencies --   3206.5773              3213.5869              3214.0214
 Red. masses --      1.0915                 1.0950                 1.0949
 Frc consts  --      6.6124                 6.6627                 6.6639
 IR Inten    --     11.3124                37.3021                39.3265

                     94                     95                     96
                      A                      A                      A
 Frequencies --   3222.9528              3225.5873              3232.9290
 Red. masses --      1.0988                 1.0933                 1.0912
 Frc consts  --      6.7248                 6.7021                 6.7195
 IR Inten    --     16.4722                11.2958                 5.1854

                     97                     98                     99
                      A                      A                      A
 Frequencies --   3247.0340              3529.0014              3614.3011
 Red. masses --      1.0920                 1.0514                 1.0962
 Frc consts  --      6.7831                 7.7149                 8.4374
 IR Inten    --      7.9063                51.6696                69.9791

 - Thermochemistry -
 -------------------
 Temperature   298.150 Kelvin.  Pressure   1.00000 Atm.
 Atom     1 has atomic number  6 and mass  12.00000

 Molecular mass:   273.09204 amu.
 Principal axes and moments of inertia in atomic units:
                           1         2         3
     Eigenvalues --  2851.612777977.314758910.76649
           X            0.99999   0.00315   0.00346
           Y           -0.00282   0.99581  -0.09141
           Z           -0.00374   0.09140   0.99581
 This molecule is an asymmetric top.
 Rotational symmetry number  1.
 Warning -- assumption of classical behavior for rotation
           may cause significant error
 Rotational temperatures (Kelvin)      0.03037     0.01086     0.00972
 Rotational constants (GHZ):           0.63288     0.22623     0.20253
    1 imaginary frequencies ignored.
 Zero-point vibrational energy     748012.2 (Joules/Mol)
                                  178.77921 (Kcal/Mol)
 Warning -- explicit consideration of  25 degrees of freedom as
           vibrations may cause significant error
 Vibrational temperatures:     36.56    58.77    80.61    90.20   130.59
          (Kelvin)            134.01   167.14   205.35   244.16   281.74
                              292.73   345.71   360.39   382.34   443.84
                              464.26   501.50   538.12   602.02   613.27
                              680.12   774.53   796.62   851.50   889.42
                              914.19   920.62   989.84  1046.85  1050.14
                             1060.89  1103.67  1143.46  1172.38  1191.95
                             1261.30  1266.51  1274.80  1371.05  1388.37
                             1450.69  1453.88  1463.07  1469.86  1471.77
                             1474.47  1478.00  1486.31  1520.13  1534.28
                             1544.32  1593.63  1598.38  1607.28  1622.06
                             1703.68  1704.26  1721.76  1738.57  1761.63
                             1794.33  1861.14  1887.47  1898.75  1918.12
                             1956.08  1964.24  2015.17  2066.64  2111.39
                             2140.76  2151.28  2166.31  2176.08  2219.16
                             2226.21  2363.20  2364.64  2368.29  2375.43
                             2408.14  2410.40  4381.33  4492.54  4563.14
                             4590.83  4594.70  4602.29  4602.48  4613.55
                             4623.63  4624.26  4637.11  4640.90  4651.46
                             4671.76  5077.45  5200.17

 Zero-point correction=                           0.284903 (Hartree/Particle)
 Thermal correction to Energy=                    0.302119
 Thermal correction to Enthalpy=                  0.303063
 Thermal correction to Gibbs Free Energy=         0.238335
 Sum of electronic and zero-point Energies=          -1209.213663
 Sum of electronic and thermal Energies=             -1209.196447
 Sum of electronic and thermal Enthalpies=           -1209.195503
 Sum of electronic and thermal Free Energies=        -1209.260231

                     E (Thermal)             CV                S
                      KCal/Mol        Cal/Mol-Kelvin    Cal/Mol-Kelvin
 Total                  189.582             65.267            136.231
 Electronic               0.000              0.000              0.000
 Translational            0.889              2.981             42.713
 Rotational               0.889              2.981             33.671
 Vibrational            187.805             59.306             59.847
 Vibration     1          0.593              1.985              6.159
 Vibration     2          0.594              1.981              5.217
 Vibration     3          0.596              1.975              4.592
 Vibration     4          0.597              1.972              4.371
 Vibration     5          0.602              1.956              3.643
 Vibration     6          0.602              1.954              3.593
 Vibration     7          0.608              1.936              3.163
 Vibration     8          0.616              1.910              2.767
 Vibration     9          0.625              1.880              2.439
 Vibration    10          0.636              1.846              2.172
 Vibration    11          0.639              1.835              2.102
 Vibration    12          0.657              1.779              1.801
 Vibration    13          0.663              1.762              1.727
 Vibration    14          0.672              1.736              1.624
 Vibration    15          0.698              1.658              1.370
 Vibration    16          0.708              1.630              1.296
 Vibration    17          0.726              1.578              1.173
 Vibration    18          0.745              1.525              1.063
 Vibration    19          0.781              1.430              0.897
 Vibration    20          0.788              1.413              0.871
 Vibration    21          0.830              1.311              0.730
 Vibration    22          0.893              1.165              0.569
 Vibration    23          0.909              1.132              0.537
 Vibration    24          0.949              1.049              0.464
 Vibration    25          0.978              0.993              0.419

 Optimization completed.
    -- Stationary point found.
 Normal termination of Gaussian 16 at Thu Apr  1 05:58:53 2021.
