 Gaussian 16, Revision A.03,
 Gaussian 16:  ES64L-G16RevA.03 25-Dec-2016

 ----------------------------------------------------------------------
 # wB97XD def2tzvp, opt=(ts, noeigen, calcfc, maxcycles=70, maxstep=8),
  freq=noraman, scrf=(iefpcm, solvent=water)
 ----------------------------------------------------------------------

 ------------------------
 0_iteration/TS-329-0.out
 ------------------------
 Symbolic Z-matrix:
 Charge =  0 Multiplicity = 1

 SCF Done:  E(RwB97XD) =  -2861.39472979     A.U. after   15 cycles
 SCF Done:  E(RwB97XD) =  -2861.39429437     A.U. after   12 cycles
 SCF Done:  E(RwB97XD) =  -2861.39412213     A.U. after   12 cycles
 SCF Done:  E(RwB97XD) =  -2861.39419146     A.U. after   12 cycles
 SCF Done:  E(RwB97XD) =  -2861.39443724     A.U. after   12 cycles
 SCF Done:  E(RwB97XD) =  -2861.39509127     A.U. after   14 cycles
 SCF Done:  E(RwB97XD) =  -2861.39553202     A.U. after   14 cycles
 SCF Done:  E(RwB97XD) =  -2861.39565405     A.U. after   12 cycles
 SCF Done:  E(RwB97XD) =  -2861.39566825     A.U. after   11 cycles
 SCF Done:  E(RwB97XD) =  -2861.39566860     A.U. after    9 cycles
 SCF Done:  E(RwB97XD) =  -2861.39566860     A.U. after    7 cycles
 Optimization completed.
    -- Stationary point found.
 Normal termination of Gaussian 16 at Fri Feb 12 12:09:47 2021.

 ---------------------------------------------------------------------
 #N Geom=AllCheck Guess=TCheck SCRF=Check GenChk RwB97XD/def2TZVP Freq
 ---------------------------------------------------------------------

 Structure from the checkpoint file:  "/beegfs/scratch/user/q/tla25/Gau-35655.chk"
 ------------------------
 0_iteration/TS-329-0.out
 ------------------------
 Charge =  0 Multiplicity = 1

                         Standard orientation:
 ---------------------------------------------------------------------
 Center     Atomic      Atomic             Coordinates (Angstroms)
 Number     Number       Type             X           Y           Z
 ---------------------------------------------------------------------
      1          6           0        1.375233    0.693816    0.697753
      2          6           0        2.306495    0.239072   -0.267676
      3          8           0        3.490243    0.573302   -0.336795
      4          6           0        0.035202    0.368152    0.735616
      5          6           0       -2.475135    1.666616   -0.148432
      6          1           0       -2.949264    2.473453   -0.708996
      7          1           0       -2.887549    0.714866   -0.477860
      8          1           0       -2.691981    1.797967    0.911023
      9          7           0       -1.027099    1.650113   -0.337795
     10          1           0       -0.768691    1.466718   -1.300828
     11          1           0       -0.601561    2.528392   -0.064913
     12          1           0       -0.539801    0.595596    1.621858
     13         35           0       -0.610493   -1.270459   -0.041106
     14          1           0        1.709642    1.431047    1.420255
     15          1           0        1.913454   -0.485113   -1.006469
 ---------------------------------------------------------------------

 SCF Done:  E(RwB97XD) =  -2861.39566860     A.U. after    1 cycles

 The electronic state is 1-A.
 Alpha  occ. eigenvalues -- -483.13635 -62.68498 -56.47609 -56.47261 -56.47245
 Alpha  occ. eigenvalues --  -19.21190 -14.48089 -10.38998 -10.34841 -10.31802
 Alpha  occ. eigenvalues --  -10.26208  -8.82622  -6.64769  -6.63656  -6.63605
 Alpha  occ. eigenvalues --   -2.75159  -2.74843  -2.74803  -2.73903  -2.73902
 Alpha  occ. eigenvalues --   -1.11321  -1.03524  -0.93320  -0.84805  -0.78849
 Alpha  occ. eigenvalues --   -0.73539  -0.63689  -0.62950  -0.58238  -0.55275
 Alpha  occ. eigenvalues --   -0.54138  -0.53335  -0.49406  -0.48112  -0.47407
 Alpha  occ. eigenvalues --   -0.45239  -0.44381  -0.38432  -0.37348  -0.32375
 Alpha  occ. eigenvalues --   -0.28932
 Alpha virt. eigenvalues --    0.02993   0.06132   0.10429   0.13785   0.14469
 Alpha virt. eigenvalues --    0.14844   0.16432   0.18214   0.19196   0.19606
 Alpha virt. eigenvalues --    0.20049   0.21807   0.23448   0.25450   0.26978

 Mulliken charges:
               1
     1  C   -0.308961
     2  C    0.136861
     3  O   -0.502078
     4  C   -0.025651
     5  C   -0.268979
     6  H    0.152251
     7  H    0.149644
     8  H    0.149936
     9  N   -0.360714
    10  H    0.282355
    11  H    0.281832
    12  H    0.185772
    13  Br  -0.087638
    14  H    0.142627
    15  H    0.072743
 Sum of Mulliken charges =  -0.00000

 Dipole moment (field-independent basis, Debye):
    X=            -10.1336    Y=              3.8252    Z=             -0.1234  Tot=             10.8323
 Quadrupole moment (field-independent basis, Debye-Ang):
   XX=            -79.1558   YY=            -47.3440   ZZ=            -52.3037
   XY=            -10.2610   XZ=              2.4257   YZ=              0.8789

  Exact polarizability: 174.360  -2.304 110.924   0.750   5.481  89.949
 Approx polarizability: 127.417   0.517  91.402  -0.116   5.300  79.802

 ******    1 imaginary frequencies (negative Signs) ******

                      1                      2                      3
                      A                      A                      A
 Frequencies --   -347.3639                57.5301                81.1783
 Red. masses --      6.4707                 2.1281                 4.7688
 Frc consts  --      0.4600                 0.0041                 0.0185
 IR Inten    --    996.3245                 5.5242                 7.0375

                      4                      5                      6
                      A                      A                      A
 Frequencies --    148.2837               156.0173               193.4868
 Red. masses --      5.8153                 1.3592                 3.0649
 Frc consts  --      0.0753                 0.0195                 0.0676
 IR Inten    --     10.3613                 1.5763                 7.8164

                      7                      8                      9
                      A                      A                      A
 Frequencies --    206.7211               268.4988               374.9533
 Red. masses --      1.9165                 2.7933                 6.1726
 Frc consts  --      0.0483                 0.1186                 0.5113
 IR Inten    --     12.3394                 3.6032                19.8999

                     10                     11                     12
                      A                      A                      A
 Frequencies --    418.5387               576.8963               647.1591
 Red. masses --      4.6074                 2.0505                 2.6879
 Frc consts  --      0.4755                 0.4021                 0.6633
 IR Inten    --    159.2971                12.9217                67.6126

                     13                     14                     15
                      A                      A                      A
 Frequencies --    720.6137               754.1521               998.6603
 Red. masses --      2.6353                 1.3044                 1.0705
 Frc consts  --      0.8063                 0.4371                 0.6290
 IR Inten    --     54.0476               124.2548                30.2333

                     16                     17                     18
                      A                      A                      A
 Frequencies --   1021.1161              1035.5168              1069.7257
 Red. masses --      1.1107                 1.6623                 4.6488
 Frc consts  --      0.6824                 1.0502                 3.1343
 IR Inten    --     90.1581                12.0472               192.8549

                     19                     20                     21
                      A                      A                      A
 Frequencies --   1110.8901              1135.1580              1212.3580
 Red. masses --      1.5167                 1.1900                 1.4381
 Frc consts  --      1.1028                 0.9035                 1.2454
 IR Inten    --     45.0420               155.3534                79.2288

                     22                     23                     24
                      A                      A                      A
 Frequencies --   1224.1583              1332.3222              1343.2571
 Red. masses --      1.3794                 1.5700                 1.3841
 Frc consts  --      1.2179                 1.6420                 1.4714
 IR Inten    --    228.0963               139.6006                37.1028

                     25                     26                     27
                      A                      A                      A
 Frequencies --   1400.2590              1460.4152              1490.9516
 Red. masses --      1.5836                 1.1777                 1.0401
 Frc consts  --      1.8295                 1.4799                 1.3622
 IR Inten    --    525.1111                 4.8979                15.7404

                     28                     29                     30
                      A                      A                      A
 Frequencies --   1504.8564              1514.5695              1640.3744
 Red. masses --      1.0322                 2.8077                 1.0911
 Frc consts  --      1.3772                 3.7948                 1.7299
 IR Inten    --     18.6171               266.4852                84.2337

                     31                     32                     33
                      A                      A                      A
 Frequencies --   1677.5080              2937.5841              3065.2218
 Red. masses --      6.0609                 1.0810                 1.0343
 Frc consts  --     10.0488                 5.4960                 5.7254
 IR Inten    --   1209.0731               109.0557                54.4575

                     34                     35                     36
                      A                      A                      A
 Frequencies --   3141.3487              3165.0520              3177.8452
 Red. masses --      1.1040                 1.1053                 1.0870
 Frc consts  --      6.4188                 6.5236                 6.4674
 IR Inten    --     17.6299                14.1502                 5.8551

                     37                     38                     39
                      A                      A                      A
 Frequencies --   3221.6843              3519.4579              3605.5162
 Red. masses --      1.0942                 1.0507                 1.0969
 Frc consts  --      6.6912                 7.6681                 8.4014
 IR Inten    --      5.2602                23.9242                42.8326

 - Thermochemistry -
 -------------------
 Temperature   298.150 Kelvin.  Pressure   1.00000 Atm.
 Atom     1 has atomic number  6 and mass  12.00000

 Molecular mass:   164.97893 amu.
 Principal axes and moments of inertia in atomic units:
                           1         2         3
     Eigenvalues --   907.031741642.506672363.96133
           X            0.99388  -0.11043   0.00340
           Y            0.11042   0.99388   0.00248
           Z           -0.00365  -0.00209   0.99999
 This molecule is an asymmetric top.
 Rotational symmetry number  1.
 Warning -- assumption of classical behavior for rotation
           may cause significant error
 Rotational temperatures (Kelvin)      0.09549     0.05273     0.03664
 Rotational constants (GHZ):           1.98972     1.09877     0.76344
    1 imaginary frequencies ignored.
 Zero-point vibrational energy     314676.7 (Joules/Mol)
                                   75.20954 (Kcal/Mol)
 Warning -- explicit consideration of  10 degrees of freedom as
           vibrations may cause significant error
 Vibrational temperatures:     82.77   116.80   213.35   224.47   278.38
          (Kelvin)            297.43   386.31   539.47   602.18   830.03
                              931.12  1036.80  1085.06  1436.85  1469.16
                             1489.88  1539.10  1598.32  1633.24  1744.31
                             1761.29  1916.91  1932.65  2014.66  2101.21
                             2145.15  2165.15  2179.13  2360.13  2413.56
                             4226.53  4410.17  4519.70  4553.80  4572.21
                             4635.29  5063.71  5187.53

 Zero-point correction=                           0.119854 (Hartree/Particle)
 Thermal correction to Energy=                    0.128531
 Thermal correction to Enthalpy=                  0.129475
 Thermal correction to Gibbs Free Energy=         0.084612
 Sum of electronic and zero-point Energies=          -2861.275815
 Sum of electronic and thermal Energies=             -2861.267137
 Sum of electronic and thermal Enthalpies=           -2861.266193
 Sum of electronic and thermal Free Energies=        -2861.311056

                     E (Thermal)             CV                S
                      KCal/Mol        Cal/Mol-Kelvin    Cal/Mol-Kelvin
 Total                   80.655             28.646             94.422
 Electronic               0.000              0.000              0.000
 Translational            0.889              2.981             41.210
 Rotational               0.889              2.981             29.645
 Vibrational             78.877             22.685             23.567
 Vibration     1          0.596              1.974              4.540
 Vibration     2          0.600              1.962              3.862
 Vibration     3          0.618              1.905              2.694
 Vibration     4          0.620              1.896              2.598
 Vibration     5          0.635              1.849              2.194
 Vibration     6          0.641              1.830              2.072
 Vibration     7          0.673              1.731              1.606
 Vibration     8          0.746              1.523              1.059
 Vibration     9          0.781              1.430              0.897
 Vibration    10          0.933              1.081              0.491

 Optimization completed.
    -- Stationary point found.
 Normal termination of Gaussian 16 at Fri Feb 12 12:15:04 2021.
