 Gaussian 16, Revision A.03,
 Gaussian 16:  ES64L-G16RevA.03 25-Dec-2016

 ----------------------------------------------------------------------
 # wB97XD def2tzvp, opt=(ts, noeigen, calcfc, maxcycles=70, maxstep=1),
  freq=noraman, scrf=(iefpcm, solvent=water)
 ----------------------------------------------------------------------

 ------------------------
 0_iteration/TS-362-0.out
 ------------------------
 Symbolic Z-matrix:
 Charge =  0 Multiplicity = 1

 SCF Done:  E(RwB97XD) =  -1017.76507784     A.U. after   15 cycles
 Optimization completed.
    -- Stationary point found.
 Normal termination of Gaussian 16 at Tue Mar  2 02:58:46 2021.

 ---------------------------------------------------------------------
 #N Geom=AllCheck Guess=TCheck SCRF=Check GenChk RwB97XD/def2TZVP Freq
 ---------------------------------------------------------------------

 Structure from the checkpoint file:  "/beegfs/scratch/user/q/tla25/Gau-55354.chk"
 ------------------------
 0_iteration/TS-362-0.out
 ------------------------
 Charge =  0 Multiplicity = 1

                         Standard orientation:
 ---------------------------------------------------------------------
 Center     Atomic      Atomic             Coordinates (Angstroms)
 Number     Number       Type             X           Y           Z
 ---------------------------------------------------------------------
      1          6           0       -0.279310    0.392191   -0.088312
      2          6           0       -0.766220    1.560991    0.610588
      3          8           0       -0.006420    2.388801    1.118188
      4          6           0       -1.077600   -0.561909   -0.712112
      5          6           0       -1.344890   -1.791019    1.852888
      6          1           0       -2.076790   -1.966919    2.639188
      7          1           0       -0.586180   -2.568109    1.891688
      8          1           0       -0.863600   -0.823209    2.020188
      9          7           0       -1.973390   -1.771019    0.537588
     10          1           0       -1.991780   -2.684419    0.100788
     11          1           0       -2.928590   -1.438529    0.582788
     12          1           0       -0.552790   -1.346909   -1.236612
     13         17           0       -2.517200   -0.153129   -1.666012
     14          6           0        1.182300    0.109801   -0.111512
     15          6           0        2.108490    1.117111   -0.404712
     16          6           0        3.465990    0.848721   -0.469012
     17          6           0        3.944600   -0.436670   -0.249212
     18          6           0        3.042510   -1.449279    0.035088
     19          6           0        1.683710   -1.175889    0.107188
     20          1           0        1.753780    2.121211   -0.586112
     21          1           0        4.156580    1.650430   -0.702012
     22          1           0        5.005900   -0.644360   -0.301012
     23          1           0        3.393720   -2.458679    0.211388
     24          1           0        1.006810   -1.986599    0.344588
     25          6           0       -2.255820    1.791081    0.788288
     26          1           0       -2.818010    0.879971    0.987288
     27          1           0       -2.390020    2.481881    1.618388
     28          1           0       -2.674120    2.243371   -0.112012
 ---------------------------------------------------------------------

 SCF Done:  E(RwB97XD) =  -1017.76507784     A.U. after    1 cycles

 The electronic state is 1-A.
 Alpha  occ. eigenvalues -- -101.70268 -19.20865 -14.49067 -10.39226 -10.35968
 Alpha  occ. eigenvalues --  -10.31925 -10.29913 -10.28506 -10.28383 -10.28318
 Alpha  occ. eigenvalues --  -10.28174 -10.27908 -10.27390 -10.27350  -9.58862
 Alpha  occ. eigenvalues --   -7.33499  -7.32653  -7.32604  -1.11791  -1.04567
 Alpha  occ. eigenvalues --   -0.97612  -0.95865  -0.88940  -0.84440  -0.83918
 Alpha  occ. eigenvalues --   -0.80914  -0.79328  -0.73000  -0.69477  -0.68632
 Alpha  occ. eigenvalues --   -0.64038  -0.62202  -0.59140  -0.57851  -0.56351
 Alpha  occ. eigenvalues --   -0.55724  -0.55006  -0.53083  -0.52357  -0.51527
 Alpha  occ. eigenvalues --   -0.50230  -0.50136  -0.48470  -0.48257  -0.46990
 Alpha  occ. eigenvalues --   -0.46514  -0.45678  -0.43438  -0.42488  -0.42109
 Alpha  occ. eigenvalues --   -0.39729  -0.38860  -0.34522  -0.33526  -0.32023
 Alpha  occ. eigenvalues --   -0.27380
 Alpha virt. eigenvalues --    0.03597   0.05557   0.05842   0.08055   0.09982
 Alpha virt. eigenvalues --    0.13098   0.13476   0.14763   0.15101   0.15970
 Alpha virt. eigenvalues --    0.16892   0.17394   0.18396   0.19296   0.19933

 Mulliken charges:
               1
     1  C   -0.246568
     2  C    0.225916
     3  O   -0.490759
     4  C   -0.043118
     5  C   -0.303013
     6  H    0.167555
     7  H    0.161190
     8  H    0.155995
     9  N   -0.329599
    10  H    0.295934
    11  H    0.284675
    12  H    0.211772
    13  Cl  -0.108131
    14  C    0.283524
    15  C   -0.257467
    16  C   -0.134513
    17  C   -0.162485
    18  C   -0.184390
    19  C   -0.252904
    20  H    0.134337
    21  H    0.136511
    22  H    0.138519
    23  H    0.136406
    24  H    0.151160
    25  C   -0.361025
    26  H    0.113209
    27  H    0.127219
    28  H    0.150052
 Sum of Mulliken charges =  -0.00000

 Dipole moment (field-independent basis, Debye):
    X=             -5.4712    Y=             -9.1747    Z=              0.4894  Tot=             10.6934
 Quadrupole moment (field-independent basis, Debye-Ang):
   XX=            -78.8474   YY=            -86.4403   ZZ=            -94.7927
   XY=              6.2717   XZ=             -7.4105   YZ=             -9.9172

  Exact polarizability: 264.298  11.564 236.482   3.666  -1.650 163.254
 Approx polarizability: 201.300  10.324 197.645   4.520  -0.699 141.054

 ******    1 imaginary frequencies (negative Signs) ******

                      1                      2                      3
                      A                      A                      A
 Frequencies --   -347.8182                41.8075                67.3469
 Red. masses --      6.3152                 4.2674                 4.9962
 Frc consts  --      0.4501                 0.0044                 0.0134
 IR Inten    --    795.4978                 2.0404                 8.1919

                      4                      5                      6
                      A                      A                      A
 Frequencies --     81.8614                87.0182               111.7286
 Red. masses --      2.3492                 5.8033                 3.9203
 Frc consts  --      0.0093                 0.0259                 0.0288
 IR Inten    --      4.5430                 0.2772                16.0905

                      7                      8                      9
                      A                      A                      A
 Frequencies --    129.8557               166.6076               185.6946
 Red. masses --      2.9985                 1.1798                 3.7788
 Frc consts  --      0.0298                 0.0193                 0.0768
 IR Inten    --      6.2474                 0.6721                 0.8345

                     10                     11                     12
                      A                      A                      A
 Frequencies --    208.6364               243.5732               266.7741
 Red. masses --      5.5635                 3.7856                 1.1235
 Frc consts  --      0.1427                 0.1323                 0.0471
 IR Inten    --      4.4915                13.3720                 0.8942

                     13                     14                     15
                      A                      A                      A
 Frequencies --    299.1005               324.8208               351.4077
 Red. masses --      5.7836                 4.6619                 4.2409
 Frc consts  --      0.3048                 0.2898                 0.3086
 IR Inten    --     16.8650                29.6966                17.3112

                     16                     17                     18
                      A                      A                      A
 Frequencies --    379.2672               422.3432               465.1282
 Red. masses --      3.2502                 2.9133                 4.2945
 Frc consts  --      0.2755                 0.3062                 0.5474
 IR Inten    --     15.5055                 1.1380                29.7350

                     19                     20                     21
                      A                      A                      A
 Frequencies --    525.5448               567.7966               608.8114
 Red. masses --      3.0952                 3.7583                 1.7834
 Frc consts  --      0.5037                 0.7139                 0.3895
 IR Inten    --     12.0092                31.7244                31.9701

                     22                     23                     24
                      A                      A                      A
 Frequencies --    635.8867               653.1355               688.4337
 Red. masses --      5.7900                 3.6916                 3.8169
 Frc consts  --      1.3794                 0.9278                 1.0658
 IR Inten    --      4.8149                49.6947                17.5077

                     25                     26                     27
                      A                      A                      A
 Frequencies --    723.8857               745.8982               783.0957
 Red. masses --      1.6487                 3.0194                 2.7734
 Frc consts  --      0.5090                 0.9898                 1.0020
 IR Inten    --     81.7375                11.9215               160.6062

                     28                     29                     30
                      A                      A                      A
 Frequencies --    811.7766               868.7660               917.3023
 Red. masses --      3.6588                 1.2513                 3.1147
 Frc consts  --      1.4206                 0.5565                 1.5441
 IR Inten    --     80.8947                 2.8864                38.4361

                     31                     32                     33
                      A                      A                      A
 Frequencies --    945.7432              1004.0878              1014.5933
 Red. masses --      1.5931                 1.3654                 1.1234
 Frc consts  --      0.8396                 0.8111                 0.6814
 IR Inten    --     15.7660                 1.9365                24.0885

                     34                     35                     36
                      A                      A                      A
 Frequencies --   1017.3114              1023.5111              1030.6102
 Red. masses --      1.2908                 5.8022                 1.6055
 Frc consts  --      0.7871                 3.5812                 1.0047
 IR Inten    --      1.4795                 1.3916                23.8770

                     37                     38                     39
                      A                      A                      A
 Frequencies --   1040.5304              1046.1104              1065.4268
 Red. masses --      1.5927                 1.4247                 2.0414
 Frc consts  --      1.0160                 0.9186                 1.3653
 IR Inten    --      6.8783               149.2053                12.7777

                     40                     41                     42
                      A                      A                      A
 Frequencies --   1076.5967              1112.1511              1144.4341
 Red. masses --      2.9471                 1.5815                 1.1913
 Frc consts  --      2.0126                 1.1525                 0.9193
 IR Inten    --     14.0609                 4.9334                44.0607

                     43                     44                     45
                      A                      A                      A
 Frequencies --   1181.1888              1199.4384              1207.3070
 Red. masses --      1.1288                 1.6354                 2.0844
 Frc consts  --      0.9279                 1.3862                 1.7900
 IR Inten    --      2.8180                45.7323                15.8911

                     46                     47                     48
                      A                      A                      A
 Frequencies --   1214.5123              1282.5720              1308.2397
 Red. masses --      1.1956                 1.6020                 3.9781
 Frc consts  --      1.0391                 1.5526                 4.0114
 IR Inten    --      3.9241                72.1183               105.3963

                     49                     50                     51
                      A                      A                      A
 Frequencies --   1326.9243              1355.4118              1380.2064
 Red. masses --      1.3290                 1.8268                 1.4104
 Frc consts  --      1.3787                 1.9774                 1.5830
 IR Inten    --      6.0141               153.4798               111.8296

                     52                     53                     54
                      A                      A                      A
 Frequencies --   1407.3598              1428.1161              1462.6947
 Red. masses --      2.1881                 2.4316                 1.2813
 Frc consts  --      2.5535                 2.9219                 1.6152
 IR Inten    --    416.9693               355.9086                43.7230

                     55                     56                     57
                      A                      A                      A
 Frequencies --   1472.9033              1488.7518              1493.2887
 Red. masses --      1.0769                 1.0788                 2.3640
 Frc consts  --      1.3766                 1.4087                 3.1059
 IR Inten    --     36.3543                18.2557                29.7967

                     58                     59                     60
                      A                      A                      A
 Frequencies --   1497.5089              1502.0931              1541.5446
 Red. masses --      1.0412                 1.0457                 2.3091
 Frc consts  --      1.3756                 1.3901                 3.2330
 IR Inten    --      9.8837                21.9410               103.8665

                     61                     62                     63
                      A                      A                      A
 Frequencies --   1641.4861              1651.0246              1654.8560
 Red. masses --      5.5872                 6.3865                 1.1389
 Frc consts  --      8.8699                10.2570                 1.8376
 IR Inten    --     14.7021               595.2091                32.1685

                     64                     65                     66
                      A                      A                      A
 Frequencies --   1673.2153              3052.0476              3073.1052
 Red. masses --      6.3379                 1.0415                 1.0362
 Frc consts  --     10.4545                 5.7163                 5.7654
 IR Inten    --    198.6114                24.9075                11.0484

                     67                     68                     69
                      A                      A                      A
 Frequencies --   3135.2994              3149.8630              3165.5808
 Red. masses --      1.0946                 1.0995                 1.1041
 Frc consts  --      6.3398                 6.4275                 6.5190
 IR Inten    --     10.4049                15.2677                30.5648

                     70                     71                     72
                      A                      A                      A
 Frequencies --   3176.8572              3188.7931              3196.0159
 Red. masses --      1.1057                 1.0856                 1.0893
 Frc consts  --      6.5751                 6.5040                 6.5558
 IR Inten    --     14.5283                 4.6947                13.7257

                     73                     74                     75
                      A                      A                      A
 Frequencies --   3210.3714              3218.8451              3225.0433
 Red. masses --      1.0923                 1.0961                 1.0911
 Frc consts  --      6.6330                 6.6913                 6.6861
 IR Inten    --     41.9272                22.9578                 2.7335

                     76                     77                     78
                      A                      A                      A
 Frequencies --   3233.1495              3539.1108              3618.7337
 Red. masses --      1.0936                 1.0511                 1.0964
 Frc consts  --      6.7353                 7.7571                 8.4591
 IR Inten    --      8.8606                65.1251                54.0676

 - Thermochemistry -
 -------------------
 Temperature   298.150 Kelvin.  Pressure   1.00000 Atm.
 Atom     1 has atomic number  6 and mass  12.00000

 Molecular mass:   211.07639 amu.
 Principal axes and moments of inertia in atomic units:
                           1         2         3
     Eigenvalues --  2050.154804396.119514977.29397
           X            0.99956  -0.00416  -0.02933
           Y            0.00229   0.99798  -0.06348
           Z            0.02953   0.06338   0.99755
 This molecule is an asymmetric top.
 Rotational symmetry number  1.
 Warning -- assumption of classical behavior for rotation
           may cause significant error
 Rotational temperatures (Kelvin)      0.04225     0.01970     0.01740
 Rotational constants (GHZ):           0.88030     0.41053     0.36259
    1 imaginary frequencies ignored.
 Zero-point vibrational energy     606733.2 (Joules/Mol)
                                  145.01272 (Kcal/Mol)
 Warning -- explicit consideration of  20 degrees of freedom as
           vibrations may cause significant error
 Vibrational temperatures:     60.15    96.90   117.78   125.20   160.75
          (Kelvin)            186.83   239.71   267.17   300.18   350.45
                              383.83   430.34   467.34   505.60   545.68
                              607.66   669.22   756.14   816.93   875.94
                              914.90   939.72   990.50  1041.51  1073.18
                             1126.70  1167.97  1249.96  1319.79  1360.71
                             1444.66  1459.77  1463.68  1472.60  1482.82
                             1497.09  1505.12  1532.91  1548.98  1600.14
                             1646.59  1699.47  1725.72  1737.05  1747.41
                             1845.34  1882.27  1909.15  1950.14  1985.81
                             2024.88  2054.74  2104.49  2119.18  2141.98
                             2148.51  2154.58  2161.18  2217.94  2361.73
                             2375.46  2380.97  2407.38  4391.22  4421.51
                             4511.00  4531.95  4554.56  4570.79  4587.96
                             4598.35  4619.01  4631.20  4640.12  4651.78
                             5091.99  5206.55

 Zero-point correction=                           0.231092 (Hartree/Particle)
 Thermal correction to Energy=                    0.245199
 Thermal correction to Enthalpy=                  0.246143
 Thermal correction to Gibbs Free Energy=         0.189476
 Sum of electronic and zero-point Energies=          -1017.533985
 Sum of electronic and thermal Energies=             -1017.519879
 Sum of electronic and thermal Enthalpies=           -1017.518935
 Sum of electronic and thermal Free Energies=        -1017.575602

                     E (Thermal)             CV                S
                      KCal/Mol        Cal/Mol-Kelvin    Cal/Mol-Kelvin
 Total                  153.865             52.228            119.267
 Electronic               0.000              0.000              0.000
 Translational            0.889              2.981             41.945
 Rotational               0.889              2.981             32.173
 Vibrational            152.087             46.266             45.149
 Vibration     1          0.594              1.980              5.172
 Vibration     2          0.598              1.970              4.229
 Vibration     3          0.600              1.962              3.846
 Vibration     4          0.601              1.958              3.726
 Vibration     5          0.607              1.940              3.239
 Vibration     6          0.612              1.923              2.948
 Vibration     7          0.624              1.884              2.473
 Vibration     8          0.632              1.859              2.270
 Vibration     9          0.642              1.828              2.056
 Vibration    10          0.659              1.773              1.777
 Vibration    11          0.672              1.734              1.617
 Vibration    12          0.692              1.675              1.422
 Vibration    13          0.709              1.626              1.286
 Vibration    14          0.728              1.572              1.160
 Vibration    15          0.749              1.514              1.042
 Vibration    16          0.785              1.422              0.884
 Vibration    17          0.823              1.327              0.751
 Vibration    18          0.880              1.193              0.597
 Vibration    19          0.924              1.101              0.508
 Vibration    20          0.968              1.013              0.435

 Optimization completed.
    -- Stationary point found.
 Normal termination of Gaussian 16 at Tue Mar  2 03:46:33 2021.
