 Gaussian 16, Revision A.03,
 Gaussian 16:  ES64L-G16RevA.03 25-Dec-2016

 ----------------------------------------------------------------------
 # wB97XD def2tzvp, opt=(ts, noeigen, calcfc, maxcycles=70, maxstep=8),
  freq=noraman, scrf=(iefpcm, solvent=water)
 ----------------------------------------------------------------------

 ------------------------
 0_iteration/TS-394-0.out
 ------------------------
 Symbolic Z-matrix:
 Charge =  0 Multiplicity = 1

 SCF Done:  E(RwB97XD) =  -1246.29951445     A.U. after   15 cycles
 SCF Done:  E(RwB97XD) =  -1246.29863486     A.U. after   13 cycles
 SCF Done:  E(RwB97XD) =  -1246.29820105     A.U. after   13 cycles
 SCF Done:  E(RwB97XD) =  -1246.29865167     A.U. after   14 cycles
 SCF Done:  E(RwB97XD) =  -1246.30127380     A.U. after   14 cycles
 SCF Done:  E(RwB97XD) =  -1246.30382897     A.U. after   14 cycles
 SCF Done:  E(RwB97XD) =  -1246.30647489     A.U. after   13 cycles
 SCF Done:  E(RwB97XD) =  -1246.30906597     A.U. after   13 cycles
 SCF Done:  E(RwB97XD) =  -1246.31179731     A.U. after   13 cycles
 SCF Done:  E(RwB97XD) =  -1246.31449664     A.U. after   12 cycles
 SCF Done:  E(RwB97XD) =  -1246.32190455     A.U. after   12 cycles
 SCF Done:  E(RwB97XD) =  -1246.32166839     A.U. after   12 cycles
 SCF Done:  E(RwB97XD) =  -1246.32189360     A.U. after   12 cycles
 SCF Done:  E(RwB97XD) =  -1246.32188772     A.U. after   11 cycles
 SCF Done:  E(RwB97XD) =  -1246.32190527     A.U. after   11 cycles
 SCF Done:  E(RwB97XD) =  -1246.32186789     A.U. after   11 cycles
 SCF Done:  E(RwB97XD) =  -1246.32190618     A.U. after   11 cycles
 SCF Done:  E(RwB97XD) =  -1246.32190623     A.U. after    9 cycles
 SCF Done:  E(RwB97XD) =  -1246.32190622     A.U. after    7 cycles
 Optimization completed.
    -- Stationary point found.
 Normal termination of Gaussian 16 at Fri Feb 12 14:55:05 2021.

 ---------------------------------------------------------------------
 #N Geom=AllCheck Guess=TCheck SCRF=Check GenChk RwB97XD/def2TZVP Freq
 ---------------------------------------------------------------------

 Structure from the checkpoint file:  "/beegfs/scratch/user/q/tla25/Gau-35092.chk"
 ------------------------
 0_iteration/TS-394-0.out
 ------------------------
 Charge =  0 Multiplicity = 1

                         Standard orientation:
 ---------------------------------------------------------------------
 Center     Atomic      Atomic             Coordinates (Angstroms)
 Number     Number       Type             X           Y           Z
 ---------------------------------------------------------------------
      1          6           0       -0.758716    0.249469   -0.251236
      2          6           0       -1.665440   -0.687863    0.353785
      3          8           0       -2.840423   -0.399309    0.573515
      4          6           0        0.590574    0.160942   -0.545920
      5          6           0        3.098968    0.926735    0.757437
      6          1           0        3.607857    1.286901    1.652301
      7          1           0        3.575563    0.007939    0.422247
      8          1           0        3.187200    1.678015   -0.026197
      9          7           0        1.683416    0.665909    1.009410
     10          1           0        1.548512   -0.068478    1.694827
     11          1           0        1.202761    1.493676    1.342875
     12          1           0        1.011829    0.959938   -1.139014
     13         17           0        1.361615   -1.353866   -0.962935
     14         17           0       -1.393038    1.881024   -0.470064
     15          6           0       -1.175420   -2.070066    0.733851
     16          1           0       -0.213685   -2.051953    1.244818
     17          1           0       -1.923559   -2.519137    1.383701
     18          1           0       -1.062598   -2.690778   -0.156076
 ---------------------------------------------------------------------

 SCF Done:  E(RwB97XD) =  -1246.32190622     A.U. after    1 cycles

 The electronic state is 1-A.
 Alpha  occ. eigenvalues -- -101.71188-101.68908 -19.21520 -14.48576 -10.40200
 Alpha  occ. eigenvalues --  -10.36756 -10.32018 -10.31998 -10.27759  -9.59770
 Alpha  occ. eigenvalues --   -9.57432  -7.34430  -7.33555  -7.33497  -7.32065
 Alpha  occ. eigenvalues --   -7.31219  -7.31208  -1.12591  -1.04300  -0.99017
 Alpha  occ. eigenvalues --   -0.95132  -0.85269  -0.81632  -0.78858  -0.73053
 Alpha  occ. eigenvalues --   -0.63444  -0.61637  -0.57636  -0.56599  -0.55565
 Alpha  occ. eigenvalues --   -0.55166  -0.52345  -0.51145  -0.49092  -0.48401
 Alpha  occ. eigenvalues --   -0.47535  -0.46555  -0.44861  -0.41446  -0.40673
 Alpha  occ. eigenvalues --   -0.39539  -0.38780  -0.33345  -0.28402
 Alpha virt. eigenvalues --    0.02714   0.07555   0.09691   0.11697   0.13349
 Alpha virt. eigenvalues --    0.14897   0.15197   0.16890   0.17112   0.19360
 Alpha virt. eigenvalues --    0.19982   0.20101   0.20938   0.22477   0.24470

 Mulliken charges:
               1
     1  C   -0.061853
     2  C    0.193389
     3  O   -0.479313
     4  C   -0.047963
     5  C   -0.271946
     6  H    0.154116
     7  H    0.150407
     8  H    0.152409
     9  N   -0.351346
    10  H    0.284700
    11  H    0.284915
    12  H    0.198620
    13  Cl  -0.072589
    14  Cl  -0.173564
    15  C   -0.368710
    16  H    0.129734
    17  H    0.129259
    18  H    0.149736
 Sum of Mulliken charges =  -0.00000

 Dipole moment (field-independent basis, Debye):
    X=             10.8726    Y=              0.3455    Z=              2.6412  Tot=             11.1941
 Quadrupole moment (field-independent basis, Debye-Ang):
   XX=            -77.9873   YY=            -65.4083   ZZ=            -64.2853
   XY=              6.6013   XZ=              7.3710   YZ=              1.2550

  Exact polarizability: 189.232   2.127 138.426  -1.077   0.383 105.581
 Approx polarizability: 143.780  -2.399 115.492  -1.841   1.044  94.337

 ******    1 imaginary frequencies (negative Signs) ******

                      1                      2                      3
                      A                      A                      A
 Frequencies --   -351.4514                52.4884                74.9913
 Red. masses --      6.4967                 3.2701                 6.3569
 Frc consts  --      0.4728                 0.0053                 0.0211
 IR Inten    --   1067.7143                 0.7500                 8.4153

                      4                      5                      6
                      A                      A                      A
 Frequencies --     88.1437               121.1137               169.3218
 Red. masses --      2.1741                 4.0664                 1.3049
 Frc consts  --      0.0100                 0.0351                 0.0220
 IR Inten    --      7.0222                 3.7307                 3.1370

                      7                      8                      9
                      A                      A                      A
 Frequencies --    197.1431               207.4507               240.3272
 Red. masses --      3.8407                 5.6073                 5.5325
 Frc consts  --      0.0879                 0.1422                 0.1883
 IR Inten    --     18.4030                 1.0405                 2.8189

                     10                     11                     12
                      A                      A                      A
 Frequencies --    241.4912               294.2602               336.2954
 Red. masses --      1.1278                 4.9606                 4.8576
 Frc consts  --      0.0387                 0.2531                 0.3237
 IR Inten    --      2.9754                 2.1799                 6.7668

                     13                     14                     15
                      A                      A                      A
 Frequencies --    409.6517               442.4381               576.4083
 Red. masses --      5.1370                 5.6104                 4.1519
 Frc consts  --      0.5079                 0.6471                 0.8128
 IR Inten    --      6.0998               186.8907                27.4525

                     16                     17                     18
                      A                      A                      A
 Frequencies --    627.9200               635.3585               728.3797
 Red. masses --      1.4902                 3.0810                 3.6996
 Frc consts  --      0.3462                 0.7328                 1.1564
 IR Inten    --     28.6346                39.3479                 4.7294

                     19                     20                     21
                      A                      A                      A
 Frequencies --    805.7242               915.0623              1000.1686
 Red. masses --      6.2735                 4.1165                 1.1481
 Frc consts  --      2.3996                 2.0308                 0.6766
 IR Inten    --    231.7148                44.8290                55.8480

                     22                     23                     24
                      A                      A                      A
 Frequencies --   1028.8859              1031.4062              1045.4714
 Red. masses --      1.1161                 1.5746                 1.7397
 Frc consts  --      0.6961                 0.9869                 1.1203
 IR Inten    --    104.7476                94.7165                 8.5276

                     25                     26                     27
                      A                      A                      A
 Frequencies --   1072.6980              1141.3720              1218.1319
 Red. masses --      4.6110                 1.1042                 1.4265
 Frc consts  --      3.1261                 0.8475                 1.2471
 IR Inten    --    154.6617               102.9332                14.4735

                     28                     29                     30
                      A                      A                      A
 Frequencies --   1230.1569              1342.6342              1370.2015
 Red. masses --      1.7134                 1.3271                 1.6302
 Frc consts  --      1.5277                 1.4096                 1.8032
 IR Inten    --     31.6358                 2.1889               115.3271

                     31                     32                     33
                      A                      A                      A
 Frequencies --   1399.2237              1438.5634              1465.9472
 Red. masses --      1.5362                 3.8538                 1.1703
 Frc consts  --      1.7720                 4.6990                 1.4818
 IR Inten    --     63.6195              1105.9103                81.2251

                     34                     35                     36
                      A                      A                      A
 Frequencies --   1470.4726              1484.3207              1491.5108
 Red. masses --      1.2019                 1.0694                 1.0404
 Frc consts  --      1.5312                 1.3882                 1.3636
 IR Inten    --     33.1427                25.8167                17.4245

                     37                     38                     39
                      A                      A                      A
 Frequencies --   1506.1614              1641.9392              1667.5053
 Red. masses --      1.0323                 1.0901                 9.8766
 Frc consts  --      1.3798                 1.7315                16.1804
 IR Inten    --     19.2491                67.4380               702.8322

                     40                     41                     42
                      A                      A                      A
 Frequencies --   3067.3624              3071.2566              3143.7782
 Red. masses --      1.0342                 1.0358                 1.1046
 Frc consts  --      5.7330                 5.7566                 6.4320
 IR Inten    --     51.3538                 6.5373                16.6367

                     43                     44                     45
                      A                      A                      A
 Frequencies --   3148.2119              3167.6624              3168.2807
 Red. masses --      1.1001                 1.1046                 1.1053
 Frc consts  --      6.4241                 6.5306                 6.5368
 IR Inten    --     10.2963                26.0610                12.2750

                     46                     47                     48
                      A                      A                      A
 Frequencies --   3217.6992              3525.7129              3608.5186
 Red. masses --      1.0921                 1.0505                 1.0964
 Frc consts  --      6.6620                 7.6936                 8.4115
 IR Inten    --      1.5291                25.9149                46.4849

 - Thermochemistry -
 -------------------
 Temperature   298.150 Kelvin.  Pressure   1.00000 Atm.
 Atom     1 has atomic number  6 and mass  12.00000

 Molecular mass:   169.00612 amu.
 Principal axes and moments of inertia in atomic units:
                           1         2         3
     Eigenvalues --  1352.718182201.762842906.27020
           X            0.99422   0.10554   0.01950
           Y           -0.10528   0.99435  -0.01376
           Z           -0.02084   0.01163   0.99972
 This molecule is an asymmetric top.
 Rotational symmetry number  1.
 Warning -- assumption of classical behavior for rotation
           may cause significant error
 Rotational temperatures (Kelvin)      0.06403     0.03934     0.02980
 Rotational constants (GHZ):           1.33416     0.81968     0.62098
    1 imaginary frequencies ignored.
 Zero-point vibrational energy     366830.2 (Joules/Mol)
                                   87.67453 (Kcal/Mol)
 Warning -- explicit consideration of  14 degrees of freedom as
           vibrations may cause significant error
 Vibrational temperatures:     75.52   107.90   126.82   174.26   243.62
          (Kelvin)            283.64   298.48   345.78   347.45   423.37
                              483.85   589.40   636.57   829.32   903.44
                              914.14  1047.98  1159.26  1316.57  1439.02
                             1480.34  1483.96  1504.20  1543.37  1642.18
                             1752.62  1769.92  1931.75  1971.41  2013.17
                             2069.77  2109.17  2115.68  2135.61  2145.95
                             2167.03  2362.38  2399.17  4413.25  4418.85
                             4523.20  4529.57  4557.56  4558.45  4629.55
                             5072.71  5191.85

 Zero-point correction=                           0.139718 (Hartree/Particle)
 Thermal correction to Energy=                    0.150680
 Thermal correction to Enthalpy=                  0.151624
 Thermal correction to Gibbs Free Energy=         0.101919
 Sum of electronic and zero-point Energies=          -1246.182188
 Sum of electronic and thermal Energies=             -1246.171226
 Sum of electronic and thermal Enthalpies=           -1246.170282
 Sum of electronic and thermal Free Energies=        -1246.219987

                     E (Thermal)             CV                S
                      KCal/Mol        Cal/Mol-Kelvin    Cal/Mol-Kelvin
 Total                   94.553             37.183            104.613
 Electronic               0.000              0.000              0.000
 Translational            0.889              2.981             41.282
 Rotational               0.889              2.981             30.538
 Vibrational             92.776             31.221             32.793
 Vibration     1          0.596              1.977              4.721
 Vibration     2          0.599              1.966              4.018
 Vibration     3          0.601              1.958              3.701
 Vibration     4          0.609              1.932              3.083
 Vibration     5          0.625              1.880              2.443
 Vibration     6          0.637              1.844              2.160
 Vibration     7          0.641              1.829              2.066
 Vibration     8          0.657              1.779              1.800
 Vibration     9          0.658              1.777              1.792
 Vibration    10          0.689              1.684              1.449
 Vibration    11          0.717              1.603              1.230
 Vibration    12          0.774              1.449              0.928
 Vibration    13          0.802              1.378              0.819
 Vibration    14          0.933              1.082              0.492

 Optimization completed.
    -- Stationary point found.
 Normal termination of Gaussian 16 at Fri Feb 12 15:04:03 2021.
