 Gaussian 16, Revision A.03,
 Gaussian 16:  ES64L-G16RevA.03 25-Dec-2016

 ----------------------------------------------------------------------
 # wB97XD def2tzvp, opt=(ts, noeigen, calcfc, maxcycles=70, maxstep=8),
  freq=noraman, scrf=(iefpcm, solvent=water)
 ----------------------------------------------------------------------

 ------------------------
 0_iteration/TS-339-0.out
 ------------------------
 Symbolic Z-matrix:
 Charge =  0 Multiplicity = 1

 SCF Done:  E(RwB97XD) =  -2956.09476072     A.U. after   15 cycles
 SCF Done:  E(RwB97XD) =  -2956.09469926     A.U. after   12 cycles
 SCF Done:  E(RwB97XD) =  -2956.09478626     A.U. after   12 cycles
 SCF Done:  E(RwB97XD) =  -2956.09510969     A.U. after   12 cycles
 SCF Done:  E(RwB97XD) =  -2956.09565547     A.U. after   14 cycles
 SCF Done:  E(RwB97XD) =  -2956.09592574     A.U. after   12 cycles
 SCF Done:  E(RwB97XD) =  -2956.09605737     A.U. after   12 cycles
 SCF Done:  E(RwB97XD) =  -2956.09607950     A.U. after   10 cycles
 SCF Done:  E(RwB97XD) =  -2956.09608198     A.U. after   10 cycles
 SCF Done:  E(RwB97XD) =  -2956.09608223     A.U. after    9 cycles
 SCF Done:  E(RwB97XD) =  -2956.09598101     A.U. after   12 cycles
 SCF Done:  E(RwB97XD) =  -2956.09607758     A.U. after   12 cycles
 SCF Done:  E(RwB97XD) =  -2956.09608156     A.U. after   10 cycles
 SCF Done:  E(RwB97XD) =  -2956.09607596     A.U. after   10 cycles
 SCF Done:  E(RwB97XD) =  -2956.09608207     A.U. after   10 cycles
 SCF Done:  E(RwB97XD) =  -2956.09608214     A.U. after    7 cycles
 Optimization completed.
    -- Stationary point found.
 Normal termination of Gaussian 16 at Fri Feb 12 13:49:17 2021.

 ---------------------------------------------------------------------
 #N Geom=AllCheck Guess=TCheck SCRF=Check GenChk RwB97XD/def2TZVP Freq
 ---------------------------------------------------------------------

 Structure from the checkpoint file:  "/beegfs/scratch/user/q/tla25/Gau-110982.chk"
 ------------------------
 0_iteration/TS-339-0.out
 ------------------------
 Charge =  0 Multiplicity = 1

                         Standard orientation:
 ---------------------------------------------------------------------
 Center     Atomic      Atomic             Coordinates (Angstroms)
 Number     Number       Type             X           Y           Z
 ---------------------------------------------------------------------
      1          6           0        1.230284    0.406720    0.527630
      2          6           0        2.013194   -0.321897   -0.444120
      3          8           0        3.250875   -0.267298   -0.454712
      4          6           0       -0.144492    0.495714    0.572896
      5          6           0       -2.239570    1.993963   -0.766292
      6          1           0       -2.474134    2.694748   -1.567891
      7          1           0       -2.894134    1.129163   -0.843962
      8          1           0       -2.404336    2.481401    0.193540
      9          7           0       -0.847509    1.550880   -0.839405
     10          1           0       -0.655272    1.031971   -1.689837
     11          1           0       -0.205513    2.334959   -0.810394
     12          1           0       -0.571249    1.089080    1.369886
     13         35           0       -1.338088   -1.065560    0.375103
     14          6           0        2.009791    1.328244    1.440126
     15          1           0        1.351028    1.809873    2.164542
     16          1           0        2.770591    0.778656    1.998956
     17          1           0        2.530545    2.117627    0.888923
     18          7           0        1.380187   -1.037563   -1.438533
     19          1           0        0.448832   -1.385048   -1.281706
     20          1           0        1.985740   -1.659141   -1.948862
 ---------------------------------------------------------------------

 SCF Done:  E(RwB97XD) =  -2956.09608214     A.U. after    1 cycles

 The electronic state is 1-A.
 Alpha  occ. eigenvalues -- -483.13060 -62.67921 -56.47017 -56.46690 -56.46681
 Alpha  occ. eigenvalues --  -19.19512 -14.49186 -14.43142 -10.38351 -10.37151
 Alpha  occ. eigenvalues --  -10.32078 -10.26892 -10.25989  -8.82034  -6.64124
 Alpha  occ. eigenvalues --   -6.63088  -6.63057  -2.74516  -2.74226  -2.74202
 Alpha  occ. eigenvalues --   -2.73364  -2.73363  -1.11923  -1.04483  -0.98629
 Alpha  occ. eigenvalues --   -0.92211  -0.86414  -0.79606  -0.76214  -0.72654
 Alpha  occ. eigenvalues --   -0.64167  -0.63330  -0.59842  -0.58072  -0.55335
 Alpha  occ. eigenvalues --   -0.54325  -0.52155  -0.50606  -0.49264  -0.48484
 Alpha  occ. eigenvalues --   -0.46554  -0.45222  -0.44981  -0.43448  -0.37866
 Alpha  occ. eigenvalues --   -0.37361  -0.34999  -0.33275  -0.26680
 Alpha virt. eigenvalues --    0.04578   0.06341   0.10088   0.13465   0.13544
 Alpha virt. eigenvalues --    0.14633   0.16458   0.17085   0.17923   0.19094
 Alpha virt. eigenvalues --    0.19205   0.20354   0.21251   0.21363   0.23083

 Mulliken charges:
               1
     1  C   -0.168725
     2  C    0.282098
     3  O   -0.539576
     4  C   -0.096935
     5  C   -0.275665
     6  H    0.156878
     7  H    0.153080
     8  H    0.153872
     9  N   -0.301594
    10  H    0.283112
    11  H    0.288043
    12  H    0.185733
    13  Br  -0.151240
    14  C   -0.338754
    15  H    0.116145
    16  H    0.114352
    17  H    0.109839
    18  N   -0.475316
    19  H    0.248328
    20  H    0.256326
 Sum of Mulliken charges =  -0.00000

 Dipole moment (field-independent basis, Debye):
    X=             -8.8854    Y=              4.5531    Z=             -2.3763  Tot=             10.2630
 Quadrupole moment (field-independent basis, Debye-Ang):
   XX=            -90.4565   YY=            -56.0362   ZZ=            -63.9752
   XY=             -5.7806   XZ=              3.8304   YZ=              0.6371

  Exact polarizability: 191.543  -3.613 139.419   4.903   3.097 121.630
 Approx polarizability: 144.689  -0.235 113.588   3.051   2.830 103.274

 ******    1 imaginary frequencies (negative Signs) ******

                      1                      2                      3
                      A                      A                      A
 Frequencies --   -399.3062                48.2314                74.3560
 Red. masses --      6.5117                 2.4319                 4.0594
 Frc consts  --      0.6117                 0.0033                 0.0132
 IR Inten    --    789.7959                 3.6927                19.7438

                      4                      5                      6
                      A                      A                      A
 Frequencies --     88.1333               135.4204               152.8071
 Red. masses --      2.6947                 2.7292                 1.1186
 Frc consts  --      0.0123                 0.0295                 0.0154
 IR Inten    --      7.3572                 6.7609                 0.2448

                      7                      8                      9
                      A                      A                      A
 Frequencies --    159.4256               177.4994               198.4653
 Red. masses --      1.8759                 2.6824                 3.7323
 Frc consts  --      0.0281                 0.0498                 0.0866
 IR Inten    --      9.9052                 0.7285                 7.4762

                     10                     11                     12
                      A                      A                      A
 Frequencies --    277.5253               291.1533               321.2009
 Red. masses --      3.2449                 4.0833                 3.4073
 Frc consts  --      0.1473                 0.2039                 0.2071
 IR Inten    --      3.6938                17.1157                17.1291

                     13                     14                     15
                      A                      A                      A
 Frequencies --    435.7120               473.2216               481.5067
 Red. masses --      2.9518                 1.5515                 1.6503
 Frc consts  --      0.3302                 0.2047                 0.2254
 IR Inten    --    124.9131               196.7803               249.5758

                     16                     17                     18
                      A                      A                      A
 Frequencies --    521.2837               611.1435               622.1837
 Red. masses --      1.6289                 2.5329                 3.3162
 Frc consts  --      0.2608                 0.5574                 0.7564
 IR Inten    --     53.1196                70.8492                 9.5385

                     19                     20                     21
                      A                      A                      A
 Frequencies --    737.0299               790.5139               802.9312
 Red. masses --      1.8500                 6.7952                 3.2764
 Frc consts  --      0.5921                 2.5019                 1.2445
 IR Inten    --    118.6838                87.6329                79.9759

                     22                     23                     24
                      A                      A                      A
 Frequencies --   1009.3833              1017.5250              1049.5018
 Red. masses --      1.1742                 1.3316                 1.3976
 Frc consts  --      0.7049                 0.8123                 0.9070
 IR Inten    --     94.3234                70.5708                28.5026

                     25                     26                     27
                      A                      A                      A
 Frequencies --   1057.9535              1071.2020              1094.1116
 Red. masses --      1.4338                 2.3885                 2.1766
 Frc consts  --      0.9455                 1.6148                 1.5351
 IR Inten    --      3.7554               273.9008                22.5064

                     28                     29                     30
                      A                      A                      A
 Frequencies --   1142.8839              1158.8987              1234.2084
 Red. masses --      1.1249                 2.1573                 1.3705
 Frc consts  --      0.8657                 1.7071                 1.2300
 IR Inten    --     43.7954                34.0463                36.6181

                     31                     32                     33
                      A                      A                      A
 Frequencies --   1269.3705              1341.1959              1410.2792
 Red. masses --      1.3665                 1.3122                 1.6083
 Frc consts  --      1.2973                 1.3907                 1.8846
 IR Inten    --     40.5704                 3.6322                88.2580

                     34                     35                     36
                      A                      A                      A
 Frequencies --   1418.7766              1451.5454              1462.6160
 Red. masses --      2.5355                 1.7246                 1.4507
 Frc consts  --      3.0070                 2.1409                 1.8284
 IR Inten    --    380.9523               290.0802               180.4997

                     37                     38                     39
                      A                      A                      A
 Frequencies --   1466.7817              1491.5044              1500.4467
 Red. masses --      1.0474                 1.0405                 1.0320
 Frc consts  --      1.3277                 1.3638                 1.3690
 IR Inten    --      9.5039                17.8255                16.1371

                     40                     41                     42
                      A                      A                      A
 Frequencies --   1509.6551              1615.8422              1641.3611
 Red. masses --      1.3416                 1.5511                 1.1516
 Frc consts  --      1.8015                 2.3861                 1.8279
 IR Inten    --    254.6668               477.8917               216.0829

                     43                     44                     45
                      A                      A                      A
 Frequencies --   1651.4166              3026.4837              3071.0752
 Red. masses --      2.7790                 1.0400                 1.0342
 Frc consts  --      4.4654                 5.6125                 5.7471
 IR Inten    --    660.2320               106.2024                45.1002

                     46                     47                     48
                      A                      A                      A
 Frequencies --   3081.6488              3118.0890              3149.0451
 Red. masses --      1.0974                 1.1008                 1.1049
 Frc consts  --      6.1402                 6.3057                 6.4554
 IR Inten    --     51.0093                38.8223                14.9086

                     49                     50                     51
                      A                      A                      A
 Frequencies --   3175.2045              3211.7286              3518.3023
 Red. masses --      1.1050                 1.0916                 1.0512
 Frc consts  --      6.5636                 6.6345                 7.6669
 IR Inten    --     10.6812                 3.9088                28.7149

                     52                     53                     54
                      A                      A                      A
 Frequencies --   3588.4683              3599.3107              3702.3480
 Red. masses --      1.0470                 1.0964                 1.1011
 Frc consts  --      7.9433                 8.3684                 8.8927
 IR Inten    --     41.0534                51.7018               111.6234

 - Thermochemistry -
 -------------------
 Temperature   298.150 Kelvin.  Pressure   1.00000 Atm.
 Atom     1 has atomic number  6 and mass  12.00000

 Molecular mass:   194.00547 amu.
 Principal axes and moments of inertia in atomic units:
                           1         2         3
     Eigenvalues --  1299.522082439.606292901.13543
           X            0.99660  -0.07498   0.03430
           Y            0.07287   0.99560   0.05895
           Z           -0.03857  -0.05625   0.99767
 This molecule is an asymmetric top.
 Rotational symmetry number  1.
 Warning -- assumption of classical behavior for rotation
           may cause significant error
 Rotational temperatures (Kelvin)      0.06665     0.03550     0.02986
 Rotational constants (GHZ):           1.38877     0.73977     0.62208
    1 imaginary frequencies ignored.
 Zero-point vibrational energy     434889.9 (Joules/Mol)
                                  103.94117 (Kcal/Mol)
 Warning -- explicit consideration of  16 degrees of freedom as
           vibrations may cause significant error
 Vibrational temperatures:     69.39   106.98   126.80   194.84   219.86
          (Kelvin)            229.38   255.38   285.55   399.30   418.90
                              462.14   626.89   680.86   692.78   750.01
                              879.30   895.18  1060.42  1137.37  1155.24
                             1452.28  1463.99  1510.00  1522.16  1541.22
                             1574.18  1644.36  1667.40  1775.75  1826.34
                             1929.68  2029.08  2041.30  2088.45  2104.38
                             2110.37  2145.94  2158.81  2172.06  2324.84
                             2361.55  2376.02  4354.43  4418.59  4433.81
                             4486.23  4530.77  4568.41  4620.96  5062.05
                             5163.01  5178.61  5326.85

 Zero-point correction=                           0.165641 (Hartree/Particle)
 Thermal correction to Energy=                    0.177066
 Thermal correction to Enthalpy=                  0.178010
 Thermal correction to Gibbs Free Energy=         0.127174
 Sum of electronic and zero-point Energies=          -2955.930441
 Sum of electronic and thermal Energies=             -2955.919016
 Sum of electronic and thermal Enthalpies=           -2955.918072
 Sum of electronic and thermal Free Energies=        -2955.968908

                     E (Thermal)             CV                S
                      KCal/Mol        Cal/Mol-Kelvin    Cal/Mol-Kelvin
 Total                  111.111             39.323            106.994
 Electronic               0.000              0.000              0.000
 Translational            0.889              2.981             41.693
 Rotational               0.889              2.981             30.598
 Vibrational            109.333             33.362             34.702
 Vibration     1          0.595              1.978              4.889
 Vibration     2          0.599              1.966              4.035
 Vibration     3          0.601              1.958              3.701
 Vibration     4          0.613              1.918              2.868
 Vibration     5          0.619              1.900              2.637
 Vibration     6          0.621              1.892              2.557
 Vibration     7          0.628              1.870              2.355
 Vibration     8          0.637              1.842              2.147
 Vibration     9          0.679              1.715              1.549
 Vibration    10          0.687              1.690              1.467
 Vibration    11          0.707              1.633              1.304
 Vibration    12          0.796              1.392              0.840
 Vibration    13          0.830              1.309              0.729
 Vibration    14          0.838              1.291              0.706
 Vibration    15          0.876              1.203              0.607
 Vibration    16          0.970              1.008              0.431

 Optimization completed.
    -- Stationary point found.
 Normal termination of Gaussian 16 at Fri Feb 12 14:00:32 2021.
