 Gaussian 16, Revision A.03,
 Gaussian 16:  ES64L-G16RevA.03 25-Dec-2016

 ----------------------------------------------------------------------
 # wB97XD def2tzvp, opt=(ts, noeigen, calcfc, maxcycles=70, maxstep=1),
  freq=noraman, scrf=(iefpcm, solvent=water)
 ----------------------------------------------------------------------

 ------------------------
 0_iteration/TS-303-0.out
 ------------------------
 Symbolic Z-matrix:
 Charge =  0 Multiplicity = 1

 SCF Done:  E(RwB97XD) =  -652.846093370     A.U. after   14 cycles
 Optimization completed.
    -- Stationary point found.
 Normal termination of Gaussian 16 at Tue Mar  2 03:26:22 2021.

 ---------------------------------------------------------------------
 #N Geom=AllCheck Guess=TCheck SCRF=Check GenChk RwB97XD/def2TZVP Freq
 ---------------------------------------------------------------------

 Structure from the checkpoint file:  "/beegfs/scratch/user/q/tla25/Gau-75337.chk"
 ------------------------
 0_iteration/TS-303-0.out
 ------------------------
 Charge =  0 Multiplicity = 1

                         Standard orientation:
 ---------------------------------------------------------------------
 Center     Atomic      Atomic             Coordinates (Angstroms)
 Number     Number       Type             X           Y           Z
 ---------------------------------------------------------------------
      1          6           0        1.948189    0.901091   -0.320403
      2          6           0        0.569389    1.078590   -0.030703
      3          8           0        0.100799    2.161590    0.370897
      4          6           0        2.613990   -0.267919   -0.798903
      5          6           0        2.415880   -1.481909    1.627797
      6          1           0        2.944281   -1.794019    2.526297
      7          1           0        1.836190   -0.582609    1.835597
      8          1           0        1.749281   -2.280009    1.309697
      9          7           0        3.355690   -1.169719    0.549797
     10          1           0        4.083590   -0.551318    0.890597
     11          1           0        3.812481   -2.005018    0.196797
     12          1           0        3.564690   -0.006918   -1.259803
     13          6           0        1.964090   -1.383109   -1.601203
     14          1           0        1.364181   -2.071510   -1.003303
     15          1           0        1.324690   -0.961510   -2.375703
     16          1           0        2.731081   -1.986809   -2.085703
     17          6           0        2.832599    2.073681    0.040997
     18          1           0        3.838899    1.937882   -0.364503
     19          1           0        2.444798    3.016891   -0.351003
     20          1           0        2.942099    2.213181    1.124397
     21          7           0       -0.305910   -0.003500   -0.206003
     22          6           0       -1.687210   -0.055001   -0.075703
     23          6           0       -2.521311    1.067299   -0.031303
     24          6           0       -3.896111    0.907008    0.067697
     25          6           0       -4.477210   -0.351192    0.118897
     26          6           0       -3.652610   -1.467892    0.069497
     27          6           0       -2.280510   -1.324301   -0.022803
     28          1           0        0.118090   -0.897510   -0.360003
     29          1           0       -2.081901    2.050199   -0.069203
     30          1           0       -4.522101    1.791008    0.100897
     31          1           0       -5.551110   -0.461393    0.195197
     32          1           0       -4.079519   -2.462792    0.107197
     33          1           0       -1.649619   -2.206001   -0.054403
 ---------------------------------------------------------------------

 SCF Done:  E(RwB97XD) =  -652.846093370     A.U. after    1 cycles

 The electronic state is 1-A.
 Alpha  occ. eigenvalues --  -19.18042 -14.50402 -14.44583 -10.35985 -10.33936
 Alpha  occ. eigenvalues --  -10.33136 -10.32231 -10.28738 -10.28626 -10.28450
 Alpha  occ. eigenvalues --  -10.28206 -10.27670 -10.27474 -10.25924 -10.24016
 Alpha  occ. eigenvalues --   -1.10796  -1.05769  -1.02234  -0.94682  -0.90017
 Alpha  occ. eigenvalues --   -0.84522  -0.84025  -0.82862  -0.79911  -0.74753
 Alpha  occ. eigenvalues --   -0.72367  -0.70835  -0.67721  -0.64390  -0.63538
 Alpha  occ. eigenvalues --   -0.61607  -0.59374  -0.57264  -0.56833  -0.54391
 Alpha  occ. eigenvalues --   -0.52922  -0.52413  -0.51334  -0.50770  -0.50534
 Alpha  occ. eigenvalues --   -0.49914  -0.48920  -0.48412  -0.47710  -0.45242
 Alpha  occ. eigenvalues --   -0.44770  -0.44380  -0.43321  -0.43203  -0.42225
 Alpha  occ. eigenvalues --   -0.42111  -0.38187  -0.33416  -0.31913  -0.29240
 Alpha  occ. eigenvalues --   -0.24339
 Alpha virt. eigenvalues --    0.05744   0.05925   0.09282   0.10196   0.11527
 Alpha virt. eigenvalues --    0.12961   0.14051   0.14747   0.15333   0.16447
 Alpha virt. eigenvalues --    0.17002   0.17436   0.18128   0.18504   0.19378

 Mulliken charges:
               1
     1  C   -0.251258
     2  C    0.311071
     3  O   -0.581350
     4  C   -0.070706
     5  C   -0.327873
     6  H    0.169226
     7  H    0.163794
     8  H    0.161256
     9  N   -0.218373
    10  H    0.292139
    11  H    0.292881
    12  H    0.154584
    13  C   -0.414439
    14  H    0.132176
    15  H    0.163415
    16  H    0.159279
    17  C   -0.373619
    18  H    0.112229
    19  H    0.108923
    20  H    0.103457
    21  N   -0.223630
    22  C    0.282728
    23  C   -0.306203
    24  C   -0.105272
    25  C   -0.206838
    26  C   -0.108898
    27  C   -0.303718
    28  H    0.182402
    29  H    0.146799
    30  H    0.137118
    31  H    0.136675
    32  H    0.138945
    33  H    0.143079
 Sum of Mulliken charges =  -0.00000

 Dipole moment (field-independent basis, Debye):
    X=              9.9553    Y=            -10.9687    Z=              0.5225  Tot=             14.8221
 Quadrupole moment (field-independent basis, Debye-Ang):
   XX=            -59.2617   YY=            -94.0623   ZZ=            -92.2578
   XY=            -15.9704   XZ=              4.6965   YZ=             -3.4477

  Exact polarizability: 308.967 -11.602 240.080  -6.923   2.447 158.813
 Approx polarizability: 222.331 -10.096 198.125  -6.094   2.583 137.025

 ******    1 imaginary frequencies (negative Signs) ******

                      1                      2                      3
                      A                      A                      A
 Frequencies --   -351.7740                21.7558                31.0743
 Red. masses --      5.7789                 3.9257                 3.6882
 Frc consts  --      0.4213                 0.0011                 0.0021
 IR Inten    --   1142.8183                 3.9316                 0.5347

                      4                      5                      6
                      A                      A                      A
 Frequencies --     61.0384                78.0931               100.0590
 Red. masses --      3.4160                 2.4033                 3.8652
 Frc consts  --      0.0075                 0.0086                 0.0228
 IR Inten    --      6.8657                 3.9698                 6.7788

                      7                      8                      9
                      A                      A                      A
 Frequencies --    108.6025               142.5474               167.5841
 Red. masses --      1.5558                 2.5303                 1.6546
 Frc consts  --      0.0108                 0.0303                 0.0274
 IR Inten    --      5.0901                 5.7745                 5.1621

                     10                     11                     12
                      A                      A                      A
 Frequencies --    191.0436               221.7690               246.1903
 Red. masses --      2.5105                 1.5072                 3.6746
 Frc consts  --      0.0540                 0.0437                 0.1312
 IR Inten    --      4.7875                 4.0815                 3.5489

                     13                     14                     15
                      A                      A                      A
 Frequencies --    267.8845               279.9397               321.2761
 Red. masses --      2.2395                 1.8131                 2.3878
 Frc consts  --      0.0947                 0.0837                 0.1452
 IR Inten    --     11.9875                 4.9353                12.4739

                     16                     17                     18
                      A                      A                      A
 Frequencies --    349.7984               350.7736               381.1904
 Red. masses --      3.3208                 2.5420                 4.8837
 Frc consts  --      0.2394                 0.1843                 0.4181
 IR Inten    --     14.8691                 5.7929                 9.9354

                     19                     20                     21
                      A                      A                      A
 Frequencies --    424.8814               483.1465               515.5770
 Red. masses --      3.0150                 2.8413                 1.2432
 Frc consts  --      0.3207                 0.3908                 0.1947
 IR Inten    --      0.1640                28.7891               121.8932

                     22                     23                     24
                      A                      A                      A
 Frequencies --    526.6241               536.2438               627.1964
 Red. masses --      2.7278                 3.8641                 5.4186
 Frc consts  --      0.4457                 0.6547                 1.2559
 IR Inten    --      5.3481                81.4668                 5.5700

                     25                     26                     27
                      A                      A                      A
 Frequencies --    634.0433               656.6115               718.0049
 Red. masses --      5.5888                 3.1527                 1.9268
 Frc consts  --      1.3238                 0.8008                 0.5853
 IR Inten    --      2.7826                 9.0132                59.2069

                     28                     29                     30
                      A                      A                      A
 Frequencies --    747.8916               769.6041               778.5352
 Red. masses --      1.5684                 5.5360                 1.7993
 Frc consts  --      0.5169                 1.9319                 0.6425
 IR Inten    --     49.2315                51.4728                89.2016

                     31                     32                     33
                      A                      A                      A
 Frequencies --    845.0988               859.3166               882.4957
 Red. masses --      4.0666                 1.2671                 4.5049
 Frc consts  --      1.7112                 0.5513                 2.0671
 IR Inten    --     20.6990                 1.3396                39.9443

                     34                     35                     36
                      A                      A                      A
 Frequencies --    924.7718               974.6889               997.0298
 Red. masses --      1.5071                 1.9311                 1.3270
 Frc consts  --      0.7594                 1.0809                 0.7772
 IR Inten    --     17.4622                14.7450                 0.0548

                     37                     38                     39
                      A                      A                      A
 Frequencies --   1008.6252              1010.2308              1017.3112
 Red. masses --      1.5148                 1.2814                 5.6054
 Frc consts  --      0.9080                 0.7705                 3.4180
 IR Inten    --     16.9516                 0.7946                13.4609

                     40                     41                     42
                      A                      A                      A
 Frequencies --   1025.6978              1048.2416              1057.7966
 Red. masses --      1.2013                 2.0850                 2.0471
 Frc consts  --      0.7446                 1.3498                 1.3495
 IR Inten    --     14.2569               151.6439                10.6492

                     43                     44                     45
                      A                      A                      A
 Frequencies --   1062.2126              1064.3888              1095.7509
 Red. masses --      1.4371                 1.6196                 1.4405
 Frc consts  --      0.9553                 1.0811                 1.0190
 IR Inten    --     14.1898                27.6232                62.1746

                     46                     47                     48
                      A                      A                      A
 Frequencies --   1114.0823              1125.6106              1134.6297
 Red. masses --      1.5486                 2.2551                 2.2907
 Frc consts  --      1.1325                 1.6834                 1.7375
 IR Inten    --     24.7094                49.7662               290.5848

                     49                     50                     51
                      A                      A                      A
 Frequencies --   1179.5894              1205.8966              1255.5413
 Red. masses --      1.1154                 1.1436                 1.3407
 Frc consts  --      0.9144                 0.9798                 1.2452
 IR Inten    --      6.8935                19.9438               297.2913

                     52                     53                     54
                      A                      A                      A
 Frequencies --   1276.7353              1291.6060              1297.1742
 Red. masses --      2.1286                 1.4087                 1.9847
 Frc consts  --      2.0443                 1.3846                 1.9676
 IR Inten    --    246.0656                26.7580                48.5439

                     55                     56                     57
                      A                      A                      A
 Frequencies --   1342.1308              1357.3673              1358.9059
 Red. masses --      2.3776                 1.5778                 1.6501
 Frc consts  --      2.5233                 1.7128                 1.7953
 IR Inten    --    341.7383                54.2924                45.5660

                     58                     59                     60
                      A                      A                      A
 Frequencies --   1411.1818              1411.7013              1418.4603
 Red. masses --      1.8393                 1.5529                 1.3720
 Frc consts  --      2.1581                 1.8233                 1.6264
 IR Inten    --    229.6843               139.0962                70.6125

                     61                     62                     63
                      A                      A                      A
 Frequencies --   1448.9013              1463.3316              1466.9827
 Red. masses --      1.2379                 1.6033                 1.6512
 Frc consts  --      1.5311                 2.0228                 2.0937
 IR Inten    --     18.7432                88.4759               219.9886

                     64                     65                     66
                      A                      A                      A
 Frequencies --   1472.1000              1497.8118              1498.9341
 Red. masses --      1.3145                 1.0747                 1.0413
 Frc consts  --      1.6784                 1.4205                 1.3785
 IR Inten    --     88.9334                21.4917                21.4905

                     67                     68                     69
                      A                      A                      A
 Frequencies --   1503.5722              1509.9471              1518.8567
 Red. masses --      1.1379                 1.0613                 1.0910
 Frc consts  --      1.5156                 1.4257                 1.4829
 IR Inten    --    117.2240                20.5227                20.0647

                     70                     71                     72
                      A                      A                      A
 Frequencies --   1542.7767              1551.9055              1631.2606
 Red. masses --      2.5405                 2.1887                 4.7052
 Frc consts  --      3.5627                 3.1057                 7.3769
 IR Inten    --    363.7710               121.8784              1097.2258

                     73                     74                     75
                      A                      A                      A
 Frequencies --   1652.9859              1659.5555              1672.1889
 Red. masses --      1.0953                 3.4874                 5.8796
 Frc consts  --      1.7633                 5.6589                 9.6865
 IR Inten    --     66.3059               205.9496               215.6774

                     76                     77                     78
                      A                      A                      A
 Frequencies --   2995.8741              3057.8767              3063.9554
 Red. masses --      1.0511                 1.0836                 1.0391
 Frc consts  --      5.5583                 5.9698                 5.7472
 IR Inten    --    136.3923                71.2691                17.7800

                     79                     80                     81
                      A                      A                      A
 Frequencies --   3077.5129              3097.3960              3109.3479
 Red. masses --      1.0332                 1.1010                 1.0902
 Frc consts  --      5.7657                 6.2237                 6.2101
 IR Inten    --     26.2891                40.8405                25.0755

                     82                     83                     84
                      A                      A                      A
 Frequencies --   3132.8145              3154.1436              3160.5374
 Red. masses --      1.0978                 1.1029                 1.1047
 Frc consts  --      6.3483                 6.4649                 6.5018
 IR Inten    --     71.4822                19.1020                 3.0425

                     85                     86                     87
                      A                      A                      A
 Frequencies --   3177.5127              3179.4777              3190.6346
 Red. masses --      1.1058                 1.0880                 1.0881
 Frc consts  --      6.5784                 6.4800                 6.5266
 IR Inten    --     14.6514                21.2320                 5.6905

                     88                     89                     90
                      A                      A                      A
 Frequencies --   3201.0220              3218.2938              3269.1496
 Red. masses --      1.0927                 1.0976                 1.0922
 Frc consts  --      6.5968                 6.6981                 6.8772
 IR Inten    --     34.1308                26.0081                 3.5834

                     91                     92                     93
                      A                      A                      A
 Frequencies --   3512.7029              3589.7802              3710.8519
 Red. masses --      1.0517                 1.0958                 1.0747
 Frc consts  --      7.6460                 8.3201                 8.7192
 IR Inten    --     47.5811                53.0753                73.0243

 - Thermochemistry -
 -------------------
 Temperature   298.150 Kelvin.  Pressure   1.00000 Atm.
 Atom     1 has atomic number  6 and mass  12.00000

 Molecular mass:   206.14191 amu.
 Principal axes and moments of inertia in atomic units:
                           1         2         3
     Eigenvalues --  1630.442945497.014436372.60307
           X            0.99999  -0.00476   0.00155
           Y            0.00476   0.99999  -0.00049
           Z           -0.00155   0.00049   1.00000
 This molecule is an asymmetric top.
 Rotational symmetry number  1.
 Warning -- assumption of classical behavior for rotation
           may cause significant error
 Rotational temperatures (Kelvin)      0.05312     0.01576     0.01359
 Rotational constants (GHZ):           1.10690     0.32831     0.28320
    1 imaginary frequencies ignored.
 Zero-point vibrational energy     752350.9 (Joules/Mol)
                                  179.81618 (Kcal/Mol)
 Warning -- explicit consideration of  22 degrees of freedom as
           vibrations may cause significant error
 Vibrational temperatures:     31.30    44.71    87.82   112.36   143.96
          (Kelvin)            156.25   205.09   241.12   274.87   319.08
                              354.21   385.43   402.77   462.24   503.28
                              504.68   548.45   611.31   695.14   741.80
                              757.69   771.54   902.40   912.25   944.72
                             1033.05  1076.05  1107.29  1120.14  1215.91
                             1236.36  1269.71  1330.54  1402.36  1434.50
                             1451.19  1453.50  1463.68  1475.75  1508.19
                             1521.93  1528.29  1531.42  1576.54  1602.92
                             1619.50  1632.48  1697.17  1735.02  1806.44
                             1836.94  1858.33  1866.34  1931.03  1952.95
                             1955.16  2030.38  2031.12  2040.85  2084.65
                             2105.41  2110.66  2118.02  2155.02  2156.63
                             2163.31  2172.48  2185.30  2219.71  2232.85
                             2347.02  2378.28  2387.73  2405.91  4310.39
                             4399.60  4408.35  4427.85  4456.46  4473.66
                             4507.42  4538.11  4547.31  4571.73  4574.56
                             4590.61  4605.56  4630.41  4703.58  5054.00
                             5164.89  5339.09

 Zero-point correction=                           0.286555 (Hartree/Particle)
 Thermal correction to Energy=                    0.302208
 Thermal correction to Enthalpy=                  0.303152
 Thermal correction to Gibbs Free Energy=         0.242202
 Sum of electronic and zero-point Energies=           -652.559538
 Sum of electronic and thermal Energies=              -652.543885
 Sum of electronic and thermal Enthalpies=            -652.542941
 Sum of electronic and thermal Free Energies=         -652.603891

                     E (Thermal)             CV                S
                      KCal/Mol        Cal/Mol-Kelvin    Cal/Mol-Kelvin
 Total                  189.639             58.199            128.281
 Electronic               0.000              0.000              0.000
 Translational            0.889              2.981             41.874
 Rotational               0.889              2.981             32.413
 Vibrational            187.861             52.238             53.994
 Vibration     1          0.593              1.985              6.467
 Vibration     2          0.594              1.983              5.760
 Vibration     3          0.597              1.973              4.423
 Vibration     4          0.599              1.964              3.938
 Vibration     5          0.604              1.949              3.453
 Vibration     6          0.606              1.942              3.294
 Vibration     7          0.616              1.911              2.769
 Vibration     8          0.624              1.882              2.462
 Vibration     9          0.634              1.852              2.218
 Vibration    10          0.648              1.808              1.945
 Vibration    11          0.661              1.769              1.758
 Vibration    12          0.673              1.732              1.610
 Vibration    13          0.680              1.711              1.534
 Vibration    14          0.707              1.633              1.304
 Vibration    15          0.727              1.576              1.167
 Vibration    16          0.728              1.574              1.163
 Vibration    17          0.751              1.510              1.034
 Vibration    18          0.787              1.416              0.876
 Vibration    19          0.839              1.287              0.702
 Vibration    20          0.871              1.215              0.620
 Vibration    21          0.882              1.191              0.595
 Vibration    22          0.891              1.170              0.573

 Optimization completed.
    -- Stationary point found.
 Normal termination of Gaussian 16 at Tue Mar  2 04:30:18 2021.
