 Gaussian 16, Revision A.03,
 Gaussian 16:  ES64L-G16RevA.03 25-Dec-2016

 ----------------------------------------------------------------------
 # wB97XD def2tzvp, opt=(ts, noeigen, calcfc, maxcycles=70, maxstep=1),
  freq=noraman, scrf=(iefpcm, solvent=water)
 ----------------------------------------------------------------------

 ------------------------
 0_iteration/TS-311-0.out
 ------------------------
 Symbolic Z-matrix:
 Charge =  0 Multiplicity = 1

 SCF Done:  E(RwB97XD) =  -3187.15386484     A.U. after   14 cycles
 SCF Done:  E(RwB97XD) =  -3187.15386481     A.U. after    6 cycles
 Optimization completed.
    -- Stationary point found.
 Normal termination of Gaussian 16 at Tue Mar  2 03:24:50 2021.

 ---------------------------------------------------------------------
 #N Geom=AllCheck Guess=TCheck SCRF=Check GenChk RwB97XD/def2TZVP Freq
 ---------------------------------------------------------------------

 Structure from the checkpoint file:  "/beegfs/scratch/user/q/tla25/Gau-120332.chk"
 ------------------------
 0_iteration/TS-311-0.out
 ------------------------
 Charge =  0 Multiplicity = 1

                         Standard orientation:
 ---------------------------------------------------------------------
 Center     Atomic      Atomic             Coordinates (Angstroms)
 Number     Number       Type             X           Y           Z
 ---------------------------------------------------------------------
      1          6           0        1.269543    0.107674   -0.471095
      2          6           0       -0.011548   -0.535583   -0.332411
      3          8           0       -0.128718   -1.765762   -0.368758
      4          6           0        2.486931   -0.554947   -0.629349
      5          6           0        4.548882   -1.495915    1.220047
      6          1           0        4.873812   -1.569442    2.258678
      7          1           0        4.628094   -2.476560    0.756431
      8          1           0        5.203335   -0.802596    0.692583
      9          7           0        3.170403   -1.020230    1.114663
     10          1           0        2.505990   -1.698433    1.468892
     11          1           0        3.035945   -0.161250    1.634757
     12          1           0        3.322452    0.104649   -0.838219
     13          6           0        2.615350   -1.885505   -1.324349
     14          1           0        2.252487   -1.780500   -2.347968
     15          1           0        3.660150   -2.189890   -1.368576
     16          1           0        2.022171   -2.655436   -0.841189
     17         35           0        1.427511    1.994744   -0.079449
     18          7           0       -1.111176    0.283490   -0.174957
     19          6           0       -2.455177   -0.053671   -0.008820
     20          6           0       -2.952842   -1.358434   -0.026240
     21          6           0       -4.312117   -1.580337    0.149916
     22          6           0       -5.196780   -0.531088    0.341491
     23          6           0       -4.702524    0.766952    0.356072
     24          6           0       -3.351601    1.004093    0.184163
     25          1           0       -0.919946    1.271325   -0.155554
     26          1           0       -2.275795   -2.182451   -0.176843
     27          1           0       -4.679487   -2.599366    0.133984
     28          1           0       -6.253971   -0.718670    0.476647
     29          1           0       -5.373039    1.604490    0.503423
     30          1           0       -2.978631    2.021942    0.199241
 ---------------------------------------------------------------------

 SCF Done:  E(RwB97XD) =  -3187.15386481     A.U. after    1 cycles

 The electronic state is 1-A.
 Alpha  occ. eigenvalues -- -483.12354 -62.67195 -56.46285 -56.45974 -56.45957
 Alpha  occ. eigenvalues --  -19.20292 -14.47951 -14.46009 -10.38723 -10.34421
 Alpha  occ. eigenvalues --  -10.33733 -10.31775 -10.30134 -10.28956 -10.28792
 Alpha  occ. eigenvalues --  -10.28705 -10.28124 -10.28019 -10.27764  -8.81309
 Alpha  occ. eigenvalues --   -6.63380  -6.62387  -6.62332  -2.73780  -2.73503
 Alpha  occ. eigenvalues --   -2.73457  -2.72654  -2.72654  -1.13296  -1.03775
 Alpha  occ. eigenvalues --   -1.03467  -0.95467  -0.92544  -0.86611  -0.84983
 Alpha  occ. eigenvalues --   -0.84559  -0.79156  -0.77868  -0.73785  -0.71438
 Alpha  occ. eigenvalues --   -0.68566  -0.64825  -0.62745  -0.62242  -0.58497
 Alpha  occ. eigenvalues --   -0.57180  -0.55230  -0.54731  -0.53790  -0.52883
 Alpha  occ. eigenvalues --   -0.52027  -0.51920  -0.50939  -0.49814  -0.49078
 Alpha  occ. eigenvalues --   -0.47935  -0.46609  -0.45588  -0.44815  -0.44406
 Alpha  occ. eigenvalues --   -0.42689  -0.42292  -0.39420  -0.38954  -0.37591
 Alpha  occ. eigenvalues --   -0.33669  -0.33334  -0.30093  -0.26465
 Alpha virt. eigenvalues --    0.04153   0.05491   0.07542   0.08647   0.10291
 Alpha virt. eigenvalues --    0.12855   0.13861   0.14105   0.14848   0.16029
 Alpha virt. eigenvalues --    0.16659   0.17090   0.18103   0.18121   0.18414

 Mulliken charges:
               1
     1  C   -0.176331
     2  C    0.391243
     3  O   -0.548383
     4  C   -0.069229
     5  C   -0.288741
     6  H    0.152887
     7  H    0.157975
     8  H    0.151174
     9  N   -0.338272
    10  H    0.282622
    11  H    0.278870
    12  H    0.160980
    13  C   -0.349887
    14  H    0.141194
    15  H    0.140898
    16  H    0.144958
    17  Br  -0.191447
    18  N   -0.276073
    19  C    0.298714
    20  C   -0.299892
    21  C   -0.108926
    22  C   -0.200620
    23  C   -0.099082
    24  C   -0.310483
    25  H    0.234041
    26  H    0.159456
    27  H    0.140227
    28  H    0.139634
    29  H    0.142474
    30  H    0.140022
 Sum of Mulliken charges =  -0.00000

 Dipole moment (field-independent basis, Debye):
    X=              7.6070    Y=             -0.4335    Z=              3.4220  Tot=              8.3525
 Quadrupole moment (field-independent basis, Debye-Ang):
   XX=            -71.8895   YY=           -101.7560   ZZ=           -101.9036
   XY=            -14.5910   XZ=              7.5933   YZ=             -2.7617

  Exact polarizability: 336.791  -9.337 250.309   1.011   4.727 162.627
 Approx polarizability: 234.303  -2.471 211.572  -1.370   3.846 142.764

 ******    1 imaginary frequencies (negative Signs) ******

                      1                      2                      3
                      A                      A                      A
 Frequencies --   -356.8768                21.9767                32.2246
 Red. masses --      6.1806                 3.9271                 4.0621
 Frc consts  --      0.4638                 0.0011                 0.0025
 IR Inten    --   1176.3517                 3.0679                 5.1021

                      4                      5                      6
                      A                      A                      A
 Frequencies --     38.0051                57.7849                66.2084
 Red. masses --      3.3046                 3.1768                 3.9167
 Frc consts  --      0.0028                 0.0062                 0.0101
 IR Inten    --      1.8053                14.6981                 2.9791

                      7                      8                      9
                      A                      A                      A
 Frequencies --     89.3214               114.3996               160.7536
 Red. masses --      6.2037                 4.3571                 1.2904
 Frc consts  --      0.0292                 0.0336                 0.0196
 IR Inten    --      2.4293                18.2993                 0.3661

                     10                     11                     12
                      A                      A                      A
 Frequencies --    174.5673               196.9609               230.5526
 Red. masses --      3.2356                 2.8607                 2.9423
 Frc consts  --      0.0581                 0.0654                 0.0921
 IR Inten    --      1.7989                36.5915                 0.4798

                     13                     14                     15
                      A                      A                      A
 Frequencies --    242.7778               261.6095               279.4491
 Red. masses --      3.4692                 1.4793                 3.7317
 Frc consts  --      0.1205                 0.0597                 0.1717
 IR Inten    --      1.9286                 3.5311                14.9293

                     16                     17                     18
                      A                      A                      A
 Frequencies --    357.4060               372.8392               397.1488
 Red. masses --      6.4835                 5.8564                 3.1120
 Frc consts  --      0.4880                 0.4796                 0.2892
 IR Inten    --      6.5711                 5.5559                25.6665

                     19                     20                     21
                      A                      A                      A
 Frequencies --    424.0154               438.0637               505.5266
 Red. masses --      2.9989                 4.9727                 4.9270
 Frc consts  --      0.3177                 0.5622                 0.7419
 IR Inten    --      0.1954                75.7546                26.3899

                     22                     23                     24
                      A                      A                      A
 Frequencies --    528.5251               552.5556               632.1390
 Red. masses --      2.7111                 1.1518                 3.3403
 Frc consts  --      0.4462                 0.2072                 0.7864
 IR Inten    --     45.7975                91.7001                26.6281

                     25                     26                     27
                      A                      A                      A
 Frequencies --    636.8520               662.2148               719.2551
 Red. masses --      5.5437                 1.5439                 1.8941
 Frc consts  --      1.3247                 0.3989                 0.5773
 IR Inten    --      5.4538                22.7594                63.0807

                     28                     29                     30
                      A                      A                      A
 Frequencies --    762.3630               783.2648               819.7817
 Red. masses --     10.0350                 1.8180                 4.6658
 Frc consts  --      3.4363                 0.6571                 1.8475
 IR Inten    --     33.7057                96.9372                46.0686

                     31                     32                     33
                      A                      A                      A
 Frequencies --    861.6206               863.1403               930.8200
 Red. masses --      1.3067                 4.5357                 1.4657
 Frc consts  --      0.5716                 1.9909                 0.7482
 IR Inten    --      0.4471                 5.0625                12.8527

                     34                     35                     36
                      A                      A                      A
 Frequencies --    956.7097               992.1963              1000.4189
 Red. masses --      2.4310                 1.4838                 1.3450
 Frc consts  --      1.3110                 0.8607                 0.7931
 IR Inten    --    114.9766                32.7671                 0.0180

                     37                     38                     39
                      A                      A                      A
 Frequencies --   1015.1511              1015.9755              1021.4483
 Red. masses --      2.0567                 1.2921                 3.7153
 Frc consts  --      1.2488                 0.7858                 2.2839
 IR Inten    --     12.2700                 0.4939                 5.8768

                     40                     41                     42
                      A                      A                      A
 Frequencies --   1041.7832              1054.7295              1062.7708
 Red. masses --      1.1854                 1.5411                 1.8339
 Frc consts  --      0.7580                 1.0101                 1.2204
 IR Inten    --     44.2642                37.2522                10.3863

                     43                     44                     45
                      A                      A                      A
 Frequencies --   1073.5054              1116.2830              1139.0709
 Red. masses --      3.6006                 1.5336                 2.3256
 Frc consts  --      2.4447                 1.1259                 1.7778
 IR Inten    --    371.2243                25.4021                20.8656

                     46                     47                     48
                      A                      A                      A
 Frequencies --   1180.2178              1182.2312              1206.2239
 Red. masses --      1.2329                 1.1420                 1.1475
 Frc consts  --      1.0118                 0.9404                 0.9837
 IR Inten    --    294.6298                93.9951                20.1631

                     49                     50                     51
                      A                      A                      A
 Frequencies --   1220.7672              1228.0879              1273.9312
 Red. masses --      1.5391                 1.9408                 2.5968
 Frc consts  --      1.3514                 1.7246                 2.4830
 IR Inten    --     14.6929                92.1167               269.9088

                     52                     53                     54
                      A                      A                      A
 Frequencies --   1344.2057              1347.0228              1355.5258
 Red. masses --      2.3546                 1.3421                 2.1617
 Frc consts  --      2.5067                 1.4348                 2.3402
 IR Inten    --    278.6889                20.1480               209.7734

                     55                     56                     57
                      A                      A                      A
 Frequencies --   1374.2217              1408.8943              1449.7337
 Red. masses --      1.8563                 1.2781                 1.6281
 Frc consts  --      2.0655                 1.4947                 2.0160
 IR Inten    --    401.1093                79.4431               246.2020

                     58                     59                     60
                      A                      A                      A
 Frequencies --   1470.4129              1477.6321              1479.7449
 Red. masses --      1.4450                 1.1509                 1.8539
 Frc consts  --      1.8407                 1.4806                 2.3917
 IR Inten    --     78.9246               152.4554               343.7351

                     61                     62                     63
                      A                      A                      A
 Frequencies --   1492.2383              1500.9056              1512.4919
 Red. masses --      1.0789                 1.1351                 1.0637
 Frc consts  --      1.4155                 1.5066                 1.4337
 IR Inten    --     52.5806                77.5545                47.8880

                     64                     65                     66
                      A                      A                      A
 Frequencies --   1545.5731              1566.0412              1646.3848
 Red. masses --      2.5104                 2.1016                 1.1124
 Frc consts  --      3.5332                 3.0368                 1.7765
 IR Inten    --    219.0323               758.2854                60.2366

                     67                     68                     69
                      A                      A                      A
 Frequencies --   1654.6917              1663.5081              1678.6217
 Red. masses --      6.6345                 3.6620                 6.3118
 Frc consts  --     10.7027                 5.9707                10.4787
 IR Inten    --    240.5750               164.1771               294.1794

                     70                     71                     72
                      A                      A                      A
 Frequencies --   3065.6672              3074.9766              3139.7759
 Red. masses --      1.0348                 1.0386                 1.1042
 Frc consts  --      5.7303                 5.7861                 6.4138
 IR Inten    --     60.1156                26.5348                23.4813

                     73                     74                     75
                      A                      A                      A
 Frequencies --   3142.4939              3163.2890              3168.9914
 Red. masses --      1.1008                 1.0910                 1.1044
 Frc consts  --      6.4046                 6.4324                 6.5345
 IR Inten    --     29.5997                13.0931                16.7990

                     76                     77                     78
                      A                      A                      A
 Frequencies --   3185.4004              3189.2308              3195.1830
 Red. masses --      1.0881                 1.1006                 1.0883
 Frc consts  --      6.5052                 6.5955                 6.5463
 IR Inten    --     15.0510                 9.8204                 3.4421

                     79                     80                     81
                      A                      A                      A
 Frequencies --   3205.4123              3221.0642              3275.0509
 Red. masses --      1.0930                 1.0979                 1.0921
 Frc consts  --      6.6168                 6.7114                 6.9015
 IR Inten    --     30.9823                23.9944                 6.6710

                     82                     83                     84
                      A                      A                      A
 Frequencies --   3528.4992              3608.7749              3628.9257
 Red. masses --      1.0509                 1.0963                 1.0765
 Frc consts  --      7.7091                 8.4120                 8.3525
 IR Inten    --     17.0576                42.8092               107.1716

 - Thermochemistry -
 -------------------
 Temperature   298.150 Kelvin.  Pressure   1.00000 Atm.
 Atom     1 has atomic number  6 and mass  12.00000

 Molecular mass:   270.03677 amu.
 Principal axes and moments of inertia in atomic units:
                           1         2         3
     Eigenvalues --  2374.073897821.271779536.66260
           X            0.99911  -0.04195   0.00312
           Y            0.04193   0.99911   0.00445
           Z           -0.00330  -0.00432   0.99999
 This molecule is an asymmetric top.
 Rotational symmetry number  1.
 Warning -- assumption of classical behavior for rotation
           may cause significant error
 Rotational temperatures (Kelvin)      0.03648     0.01107     0.00908
 Rotational constants (GHZ):           0.76019     0.23075     0.18924
    1 imaginary frequencies ignored.
 Zero-point vibrational energy     650506.6 (Joules/Mol)
                                  155.47481 (Kcal/Mol)
 Warning -- explicit consideration of  22 degrees of freedom as
           vibrations may cause significant error
 Vibrational temperatures:     31.62    46.36    54.68    83.14    95.26
          (Kelvin)            128.51   164.60   231.29   251.16   283.38
                              331.71   349.30   376.40   402.06   514.23
                              536.43   571.41   610.06   630.28   727.34
                              760.43   795.00   909.51   916.29   952.78
                             1034.85  1096.87  1126.94  1179.48  1239.68
                             1241.87  1339.24  1376.49  1427.55  1439.38
                             1460.58  1461.76  1469.64  1498.89  1517.52
                             1529.09  1544.53  1606.08  1638.87  1698.07
                             1700.97  1735.49  1756.41  1766.94  1832.90
                             1934.01  1938.07  1950.30  1977.20  2027.08
                             2085.84  2115.60  2125.98  2129.02  2147.00
                             2159.47  2176.14  2223.73  2253.18  2368.78
                             2380.73  2393.42  2415.16  4410.81  4424.21
                             4517.44  4521.35  4551.27  4559.47  4583.08
                             4588.59  4597.16  4611.87  4634.39  4712.07
                             5076.72  5192.22  5221.21

 Zero-point correction=                           0.247765 (Hartree/Particle)
 Thermal correction to Energy=                    0.263716
 Thermal correction to Enthalpy=                  0.264661
 Thermal correction to Gibbs Free Energy=         0.201024
 Sum of electronic and zero-point Energies=          -3186.906100
 Sum of electronic and thermal Energies=             -3186.890148
 Sum of electronic and thermal Enthalpies=           -3186.889204
 Sum of electronic and thermal Free Energies=        -3186.952840

                     E (Thermal)             CV                S
                      KCal/Mol        Cal/Mol-Kelvin    Cal/Mol-Kelvin
 Total                  165.485             57.177            133.934
 Electronic               0.000              0.000              0.000
 Translational            0.889              2.981             42.679
 Rotational               0.889              2.981             33.537
 Vibrational            163.707             51.216             57.718
 Vibration     1          0.593              1.985              6.447
 Vibration     2          0.594              1.983              5.688
 Vibration     3          0.594              1.982              5.360
 Vibration     4          0.596              1.974              4.531
 Vibration     5          0.598              1.970              4.263
 Vibration     6          0.602              1.957              3.675
 Vibration     7          0.607              1.937              3.193
 Vibration     8          0.622              1.890              2.541
 Vibration     9          0.627              1.874              2.386
 Vibration    10          0.636              1.844              2.161
 Vibration    11          0.652              1.794              1.875
 Vibration    12          0.659              1.775              1.782
 Vibration    13          0.669              1.743              1.651
 Vibration    14          0.680              1.712              1.537
 Vibration    15          0.733              1.560              1.133
 Vibration    16          0.744              1.528              1.068
 Vibration    17          0.764              1.476              0.973
 Vibration    18          0.786              1.418              0.878
 Vibration    19          0.798              1.387              0.833
 Vibration    20          0.861              1.238              0.644
 Vibration    21          0.883              1.187              0.591
 Vibration    22          0.908              1.134              0.539

 Optimization completed.
    -- Stationary point found.
 Normal termination of Gaussian 16 at Tue Mar  2 04:16:04 2021.
