 Gaussian 16, Revision A.03,
 Gaussian 16:  ES64L-G16RevA.03 25-Dec-2016

 ----------------------------------------------------------------------
 # wB97XD def2tzvp, opt=(ts, noeigen, calcfc, maxcycles=70, maxstep=8),
  freq=noraman, scrf=(iefpcm, solvent=water)
 ----------------------------------------------------------------------

 ------------------------
 0_iteration/TS-359-0.out
 ------------------------
 Symbolic Z-matrix:
 Charge =  0 Multiplicity = 1

 SCF Done:  E(RwB97XD) =  -3607.43699767     A.U. after   15 cycles
 SCF Done:  E(RwB97XD) =  -3607.43651802     A.U. after   12 cycles
 SCF Done:  E(RwB97XD) =  -3607.43649823     A.U. after   12 cycles
 SCF Done:  E(RwB97XD) =  -3607.43700073     A.U. after   12 cycles
 SCF Done:  E(RwB97XD) =  -3607.43763246     A.U. after   12 cycles
 SCF Done:  E(RwB97XD) =  -3607.43793158     A.U. after   12 cycles
 SCF Done:  E(RwB97XD) =  -3607.43807133     A.U. after   11 cycles
 SCF Done:  E(RwB97XD) =  -3607.43809533     A.U. after   12 cycles
 SCF Done:  E(RwB97XD) =  -3607.43811222     A.U. after   11 cycles
 SCF Done:  E(RwB97XD) =  -3607.43811551     A.U. after    9 cycles
 SCF Done:  E(RwB97XD) =  -3607.43807870     A.U. after   13 cycles
 SCF Done:  E(RwB97XD) =  -3607.43808018     A.U. after   12 cycles
 SCF Done:  E(RwB97XD) =  -3607.43811041     A.U. after   10 cycles
 SCF Done:  E(RwB97XD) =  -3607.43812002     A.U. after   10 cycles
 SCF Done:  E(RwB97XD) =  -3607.43806069     A.U. after   12 cycles
 SCF Done:  E(RwB97XD) =  -3607.43812200     A.U. after   12 cycles
 SCF Done:  E(RwB97XD) =  -3607.43812210     A.U. after    8 cycles
 SCF Done:  E(RwB97XD) =  -3607.43812226     A.U. after    7 cycles
 SCF Done:  E(RwB97XD) =  -3607.43812226     A.U. after    6 cycles
 Optimization completed.
    -- Stationary point found.
 Normal termination of Gaussian 16 at Fri Feb 12 18:40:49 2021.

 ---------------------------------------------------------------------
 #N Geom=AllCheck Guess=TCheck SCRF=Check GenChk RwB97XD/def2TZVP Freq
 ---------------------------------------------------------------------

 Structure from the checkpoint file:  "/beegfs/scratch/user/q/tla25/Gau-93043.chk"
 ------------------------
 0_iteration/TS-359-0.out
 ------------------------
 Charge =  0 Multiplicity = 1

                         Standard orientation:
 ---------------------------------------------------------------------
 Center     Atomic      Atomic             Coordinates (Angstroms)
 Number     Number       Type             X           Y           Z
 ---------------------------------------------------------------------
      1          6           0        0.830779    0.924670   -0.291716
      2          6           0       -0.313629    0.072642   -0.021725
      3          8           0       -0.167093   -1.075922    0.394474
      4          6           0        2.142621    0.525492   -0.214924
      5          6           0        4.108094    0.158079    1.983659
      6          1           0        4.281625    0.123070    3.060300
      7          1           0        4.452643   -0.773276    1.538742
      8          1           0        4.677171    0.984096    1.559414
      9          7           0        2.694418    0.343427    1.669589
     10          1           0        2.119662   -0.424908    1.996559
     11          1           0        2.329741    1.199335    2.070719
     12          1           0        2.898349    1.260910   -0.448268
     13         35           0        2.713513   -1.187645   -0.869753
     14         17           0        0.593421    2.672010   -0.406963
     15          7           0       -1.546028    0.624616   -0.260278
     16          6           0       -2.817489    0.084978   -0.040302
     17          6           0       -3.051006   -1.223188    0.385299
     18          6           0       -4.354760   -1.662638    0.571691
     19          6           0       -5.436506   -0.828545    0.339313
     20          6           0       -5.202571    0.472104   -0.088015
     21          6           0       -3.910020    0.925617   -0.274860
     22          1           0       -1.538848    1.571519   -0.601772
     23          1           0       -2.217932   -1.881981    0.565433
     24          1           0       -4.519348   -2.680655    0.903054
     25          1           0       -6.447728   -1.184562    0.486755
     26          1           0       -6.032106    1.141934   -0.276788
     27          1           0       -3.739416    1.943732   -0.605908
 ---------------------------------------------------------------------

 SCF Done:  E(RwB97XD) =  -3607.43812226     A.U. after    1 cycles

 The electronic state is 1-A.
 Alpha  occ. eigenvalues -- -483.13429-101.69904 -62.68280 -56.47404 -56.47042
 Alpha  occ. eigenvalues --  -56.47020 -19.21454 -14.48110 -14.46844 -10.39689
 Alpha  occ. eigenvalues --  -10.38957 -10.34014 -10.32104 -10.31758 -10.29137
 Alpha  occ. eigenvalues --  -10.28982 -10.28979 -10.28366 -10.28345  -9.58429
 Alpha  occ. eigenvalues --   -8.82397  -7.33058  -7.32241  -7.32183  -6.64579
 Alpha  occ. eigenvalues --   -6.63424  -6.63350  -2.74963  -2.74641  -2.74582
 Alpha  occ. eigenvalues --   -2.73648  -2.73647  -1.14508  -1.04658  -1.03560
 Alpha  occ. eigenvalues --   -0.97752  -0.95422  -0.91532  -0.85468  -0.85193
 Alpha  occ. eigenvalues --   -0.82320  -0.78692  -0.75586  -0.71896  -0.69392
 Alpha  occ. eigenvalues --   -0.65486  -0.63009  -0.62847  -0.58974  -0.57904
 Alpha  occ. eigenvalues --   -0.56345  -0.55035  -0.54284  -0.53524  -0.52495
 Alpha  occ. eigenvalues --   -0.52015  -0.51560  -0.50379  -0.48221  -0.47761
 Alpha  occ. eigenvalues --   -0.47100  -0.45474  -0.44858  -0.43005  -0.42429
 Alpha  occ. eigenvalues --   -0.41082  -0.40089  -0.37976  -0.37159  -0.34097
 Alpha  occ. eigenvalues --   -0.33801  -0.30645  -0.27519
 Alpha virt. eigenvalues --    0.02412   0.05016   0.05298   0.08037   0.09845
 Alpha virt. eigenvalues --    0.11864   0.12972   0.14219   0.14707   0.15827
 Alpha virt. eigenvalues --    0.16629   0.17340   0.18007   0.18056   0.18558

 Mulliken charges:
               1
     1  C   -0.176861
     2  C    0.418854
     3  O   -0.520022
     4  C   -0.051842
     5  C   -0.267035
     6  H    0.151076
     7  H    0.147921
     8  H    0.150872
     9  N   -0.364727
    10  H    0.285410
    11  H    0.282574
    12  H    0.194578
    13  Br  -0.075995
    14  Cl  -0.166647
    15  N   -0.275785
    16  C    0.302764
    17  C   -0.295270
    18  C   -0.108284
    19  C   -0.195371
    20  C   -0.098315
    21  C   -0.307004
    22  H    0.237902
    23  H    0.161732
    24  H    0.141974
    25  H    0.141223
    26  H    0.144097
    27  H    0.142178
 Sum of Mulliken charges =  -0.00000

 Dipole moment (field-independent basis, Debye):
    X=              4.5779    Y=              3.3261    Z=              4.0563  Tot=              6.9623
 Quadrupole moment (field-independent basis, Debye-Ang):
   XX=            -84.1988   YY=           -107.1959   ZZ=           -103.0789
   XY=              1.2050   XZ=             14.4818   YZ=             -0.1202

  Exact polarizability: 337.855  -8.796 243.407  16.562 -14.431 173.389
 Approx polarizability: 235.436  -7.066 211.511   8.260 -13.542 151.293

 ******    1 imaginary frequencies (negative Signs) ******

                      1                      2                      3
                      A                      A                      A
 Frequencies --   -351.6373                19.8032                26.3843
 Red. masses --      6.9299                 3.8882                 3.9759
 Frc consts  --      0.5049                 0.0009                 0.0016
 IR Inten    --   1099.6191                 0.8383                 5.2852

                      4                      5                      6
                      A                      A                      A
 Frequencies --     38.1048                71.5076                77.4694
 Red. masses --      4.8562                 6.1451                 3.1689
 Frc consts  --      0.0042                 0.0185                 0.0112
 IR Inten    --      3.0670                 3.4275                 7.1672

                      7                      8                      9
                      A                      A                      A
 Frequencies --     85.9733               116.7755               147.8820
 Red. masses --      5.1503                 4.6712                 8.3117
 Frc consts  --      0.0224                 0.0375                 0.1071
 IR Inten    --      9.0921                 6.2696                 8.5981

                     10                     11                     12
                      A                      A                      A
 Frequencies --    168.4878               184.5497               214.9828
 Red. masses --      1.8011                 2.4341                 7.2513
 Frc consts  --      0.0301                 0.0488                 0.1975
 IR Inten    --      4.2339                18.7725                34.0842

                     13                     14                     15
                      A                      A                      A
 Frequencies --    245.8146               254.6741               296.1755
 Red. masses --      4.6660                 4.1441                 5.1265
 Frc consts  --      0.1661                 0.1584                 0.2650
 IR Inten    --      6.3551                 5.3219                 5.2838

                     16                     17                     18
                      A                      A                      A
 Frequencies --    350.4419               383.9248               423.4995
 Red. masses --      7.6048                 7.7185                 2.9917
 Frc consts  --      0.5503                 0.6703                 0.3161
 IR Inten    --      4.4763                80.6994                 0.0886

                     19                     20                     21
                      A                      A                      A
 Frequencies --    471.7813               493.4301               528.6165
 Red. masses --      9.8889                 6.3588                 2.7765
 Frc consts  --      1.2968                 0.9122                 0.4571
 IR Inten    --     52.8918                18.8533                45.6061

                     22                     23                     24
                      A                      A                      A
 Frequencies --    570.1462               601.2045               634.5778
 Red. masses --      1.1506                 1.8729                 6.4005
 Frc consts  --      0.2204                 0.3988                 1.5186
 IR Inten    --    102.2163                12.0850                 2.0626

                     25                     26                     27
                      A                      A                      A
 Frequencies --    653.9216               719.3252               739.9933
 Red. masses --      3.7379                 1.8875                 3.3811
 Frc consts  --      0.9417                 0.5754                 1.0908
 IR Inten    --      5.8699                62.9547               186.3835

                     28                     29                     30
                      A                      A                      A
 Frequencies --    768.4619               784.5120               860.5654
 Red. masses --      8.9472                 1.8285                 7.1045
 Frc consts  --      3.1130                 0.6631                 3.0999
 IR Inten    --     47.8444               104.7018                33.6630

                     31                     32                     33
                      A                      A                      A
 Frequencies --    862.9058               871.6113               935.2604
 Red. masses --      1.2663                 5.3810                 1.4608
 Frc consts  --      0.5555                 2.4086                 0.7528
 IR Inten    --      0.3527                10.7298                12.8840

                     34                     35                     36
                      A                      A                      A
 Frequencies --   1001.8390              1002.8181              1019.2275
 Red. masses --      1.1180                 1.3479                 1.2862
 Frc consts  --      0.6612                 0.7987                 0.7872
 IR Inten    --     13.4015                 0.0373                 0.7106

                     37                     38                     39
                      A                      A                      A
 Frequencies --   1019.9526              1026.8474              1040.6773
 Red. masses --      5.7416                 1.1105                 3.8081
 Frc consts  --      3.5192                 0.6899                 2.4299
 IR Inten    --      1.6541               130.3317                34.4286

                     40                     41                     42
                      A                      A                      A
 Frequencies --   1065.2809              1071.4834              1107.6462
 Red. masses --      2.0831                 3.8033                 1.1828
 Frc consts  --      1.3928                 2.5726                 0.8550
 IR Inten    --     14.4005               291.5708                75.8864

                     43                     44                     45
                      A                      A                      A
 Frequencies --   1124.3187              1182.5099              1208.9561
 Red. masses --      1.5280                 1.1283                 1.4075
 Frc consts  --      1.1380                 0.9296                 1.2120
 IR Inten    --     11.2434                 5.1448                87.2298

                     46                     47                     48
                      A                      A                      A
 Frequencies --   1211.2200              1217.4535              1272.8694
 Red. masses --      1.2922                 1.6551                 2.5849
 Frc consts  --      1.1169                 1.4454                 2.4675
 IR Inten    --     38.2473                92.1194               290.3479

                     49                     50                     51
                      A                      A                      A
 Frequencies --   1315.3390              1341.7056              1350.1191
 Red. masses --      1.8427                 1.3269                 4.1564
 Frc consts  --      1.8784                 1.4074                 4.4639
 IR Inten    --      8.1120                 2.4651               579.4463

                     52                     53                     54
                      A                      A                      A
 Frequencies --   1364.6046              1443.1188              1466.9994
 Red. masses --      1.4779                 3.3921                 1.4368
 Frc consts  --      1.6215                 4.1621                 1.8218
 IR Inten    --     53.8413               804.0723               135.6404

                     55                     56                     57
                      A                      A                      A
 Frequencies --   1482.3915              1491.5466              1504.9663
 Red. masses --      2.2042                 1.0402                 1.0310
 Frc consts  --      2.8539                 1.3634                 1.3758
 IR Inten    --    412.1510                16.0506                21.1380

                     58                     59                     60
                      A                      A                      A
 Frequencies --   1548.1198              1574.3776              1643.4705
 Red. masses --      2.4074                 2.0907                 1.0891
 Frc consts  --      3.3994                 3.0532                 1.7332
 IR Inten    --    125.3516               937.0087                50.1771

                     61                     62                     63
                      A                      A                      A
 Frequencies --   1661.4421              1671.3766              1691.7352
 Red. masses --      5.5265                 4.9119                 7.2105
 Frc consts  --      8.9882                 8.0844                12.1584
 IR Inten    --    136.1807                49.2140               350.7013

                     64                     65                     66
                      A                      A                      A
 Frequencies --   3064.2207              3140.8542              3166.7894
 Red. masses --      1.0350                 1.1033                 1.1053
 Frc consts  --      5.7259                 6.4125                 6.5306
 IR Inten    --     61.1034                17.7861                13.7477

                     67                     68                     69
                      A                      A                      A
 Frequencies --   3187.2393              3196.9418              3206.7106
 Red. masses --      1.0882                 1.0883                 1.0932
 Frc consts  --      6.5132                 6.5532                 6.6232
 IR Inten    --     12.2676                 2.0446                29.4964

                     70                     71                     72
                      A                      A                      A
 Frequencies --   3221.2850              3230.2343              3272.4523
 Red. masses --      1.0980                 1.0924                 1.0924
 Frc consts  --      6.7132                 6.7157                 6.8927
 IR Inten    --     22.5713                 1.1908                 5.3263

                     73                     74                     75
                      A                      A                      A
 Frequencies --   3525.5733              3609.0499              3636.0573
 Red. masses --      1.0506                 1.0967                 1.0764
 Frc consts  --      7.6939                 8.4166                 8.3849
 IR Inten    --     24.5122                48.7435                87.7804

 - Thermochemistry -
 -------------------
 Temperature   298.150 Kelvin.  Pressure   1.00000 Atm.
 Atom     1 has atomic number  6 and mass  12.00000

 Molecular mass:   289.98215 amu.
 Principal axes and moments of inertia in atomic units:
                           1         2         3
     Eigenvalues --  2442.922829568.36979**********
           X            0.99954   0.02135   0.02131
           Y           -0.02056   0.99912  -0.03666
           Z           -0.02207   0.03621   0.99910
 This molecule is an asymmetric top.
 Rotational symmetry number  1.
 Warning -- assumption of classical behavior for rotation
           may cause significant error
 Rotational temperatures (Kelvin)      0.03546     0.00905     0.00811
 Rotational constants (GHZ):           0.73876     0.18862     0.16907
    1 imaginary frequencies ignored.
 Zero-point vibrational energy     551386.3 (Joules/Mol)
                                  131.78448 (Kcal/Mol)
 Warning -- explicit consideration of  22 degrees of freedom as
           vibrations may cause significant error
 Vibrational temperatures:     28.49    37.96    54.82   102.88   111.46
          (Kelvin)            123.70   168.01   212.77   242.42   265.53
                              309.31   353.67   366.42   426.13   504.21
                              552.38   609.32   678.79   709.94   760.56
                              820.31   865.00   913.02   940.85  1034.95
                             1064.69  1105.65  1128.74  1238.16  1241.53
                             1254.05  1345.63  1441.42  1442.83  1466.44
                             1467.48  1477.40  1497.30  1532.70  1541.63
                             1593.66  1617.64  1701.37  1739.42  1742.68
                             1751.64  1831.38  1892.48  1930.42  1942.52
                             1963.36  2076.33  2110.69  2132.83  2146.00
                             2165.31  2227.40  2265.18  2364.59  2390.44
                             2404.74  2434.03  4408.73  4518.99  4556.30
                             4585.73  4599.69  4613.74  4634.71  4647.59
                             4708.33  5072.51  5192.62  5231.48

 Zero-point correction=                           0.210012 (Hartree/Particle)
 Thermal correction to Energy=                    0.225641
 Thermal correction to Enthalpy=                  0.226585
 Thermal correction to Gibbs Free Energy=         0.163054
 Sum of electronic and zero-point Energies=          -3607.228110
 Sum of electronic and thermal Energies=             -3607.212481
 Sum of electronic and thermal Enthalpies=           -3607.211537
 Sum of electronic and thermal Free Energies=        -3607.275068

                     E (Thermal)             CV                S
                      KCal/Mol        Cal/Mol-Kelvin    Cal/Mol-Kelvin
 Total                  141.592             55.178            133.713
 Electronic               0.000              0.000              0.000
 Translational            0.889              2.981             42.892
 Rotational               0.889              2.981             33.878
 Vibrational            139.815             49.217             56.944
 Vibration     1          0.593              1.986              6.654
 Vibration     2          0.593              1.985              6.084
 Vibration     3          0.594              1.982              5.355
 Vibration     4          0.598              1.968              4.111
 Vibration     5          0.599              1.964              3.954
 Vibration     6          0.601              1.959              3.750
 Vibration     7          0.608              1.935              3.153
 Vibration     8          0.617              1.905              2.699
 Vibration     9          0.625              1.881              2.452
 Vibration    10          0.631              1.861              2.282
 Vibration    11          0.645              1.818              2.001
 Vibration    12          0.660              1.770              1.760
 Vibration    13          0.665              1.755              1.698
 Vibration    14          0.690              1.681              1.438
 Vibration    15          0.727              1.574              1.164
 Vibration    16          0.753              1.504              1.024
 Vibration    17          0.786              1.419              0.880
 Vibration    18          0.829              1.313              0.733
 Vibration    19          0.849              1.265              0.675
 Vibration    20          0.884              1.187              0.590
 Vibration    21          0.926              1.096              0.504
 Vibration    22          0.959              1.029              0.448

 Optimization completed.
    -- Stationary point found.
 Normal termination of Gaussian 16 at Fri Feb 12 19:25:44 2021.
