 Gaussian 16, Revision A.03,
 Gaussian 16:  ES64L-G16RevA.03 25-Dec-2016

 ----------------------------------------------------------------------
 # wB97XD def2tzvp, opt=(ts, noeigen, calcfc, maxcycles=70, maxstep=8),
  freq=noraman, scrf=(iefpcm, solvent=water)
 ----------------------------------------------------------------------

 ------------------------
 1_iteration/TS-327-1.out
 ------------------------
 Symbolic Z-matrix:
 Charge =  0 Multiplicity = 1

 SCF Done:  E(RwB97XD) =  -3378.88807322     A.U. after   14 cycles
 SCF Done:  E(RwB97XD) =  -3378.88831429     A.U. after   12 cycles
 SCF Done:  E(RwB97XD) =  -3378.88833091     A.U. after   11 cycles
 SCF Done:  E(RwB97XD) =  -3378.88834722     A.U. after   11 cycles
 SCF Done:  E(RwB97XD) =  -3378.88834711     A.U. after   10 cycles
 SCF Done:  E(RwB97XD) =  -3378.88834668     A.U. after   10 cycles
 SCF Done:  E(RwB97XD) =  -3378.88834687     A.U. after    9 cycles
 SCF Done:  E(RwB97XD) =  -3378.88834744     A.U. after    9 cycles
 SCF Done:  E(RwB97XD) =  -3378.88834753     A.U. after    7 cycles
 Optimization completed.
    -- Stationary point found.
 Normal termination of Gaussian 16 at Tue Mar  2 12:45:35 2021.

 ---------------------------------------------------------------------
 #N Geom=AllCheck Guess=TCheck SCRF=Check GenChk RwB97XD/def2TZVP Freq
 ---------------------------------------------------------------------

 Structure from the checkpoint file:  "/beegfs/scratch/user/q/tla25/Gau-8312.chk"
 ------------------------
 1_iteration/TS-327-1.out
 ------------------------
 Charge =  0 Multiplicity = 1

                         Standard orientation:
 ---------------------------------------------------------------------
 Center     Atomic      Atomic             Coordinates (Angstroms)
 Number     Number       Type             X           Y           Z
 ---------------------------------------------------------------------
      1          6           0        0.924604    0.151933   -0.088698
      2          6           0       -0.338782   -0.558214    0.097503
      3          8           0       -0.403376   -1.668947    0.625469
      4          6           0        2.104039   -0.551850   -0.064806
      5          6           0        2.349631   -0.132086    2.746082
      6          1           0        2.302050   -0.486419    3.776882
      7          1           0        3.202660    0.535682    2.635503
      8          1           0        1.438834    0.424448    2.523313
      9          7           0        2.463349   -1.223336    1.793338
     10          1           0        3.344014   -1.718124    1.858907
     11          1           0        1.696345   -1.881245    1.876722
     12          1           0        3.029652   -0.003068   -0.155035
     13         35           0        2.321544   -2.261861   -0.945866
     14          6           0        0.998227    1.632715   -0.137303
     15          6           0        0.234515    2.435808    0.718195
     16          6           0        0.321798    3.817700    0.675535
     17          6           0        1.189431    4.438736   -0.212678
     18          6           0        1.958245    3.659991   -1.064946
     19          6           0        1.853537    2.277582   -1.035693
     20          1           0       -0.430374    1.969247    1.435502
     21          1           0       -0.281180    4.412179    1.350766
     22          1           0        1.262434    5.518375   -0.241850
     23          1           0        2.632769    4.130155   -1.769887
     24          1           0        2.435812    1.684997   -1.731244
     25          7           0       -1.454913    0.096808   -0.363819
     26          6           0       -2.807786   -0.209948   -0.194406
     27          6           0       -3.275695   -1.377264    0.410407
     28          6           0       -4.642527   -1.585542    0.535965
     29          6           0       -5.558942   -0.658007    0.066512
     30          6           0       -5.091751    0.501043   -0.539630
     31          6           0       -3.733550    0.724796   -0.668434
     32          1           0       -1.276721    0.975333   -0.821971
     33          1           0       -2.571694   -2.107891    0.772858
     34          1           0       -4.990102   -2.495859    1.009043
     35          1           0       -6.621792   -0.834115    0.168511
     36          1           0       -5.788962    1.239807   -0.914634
     37          1           0       -3.379795    1.634553   -1.140080
 ---------------------------------------------------------------------

 SCF Done:  E(RwB97XD) =  -3378.88834753     A.U. after    1 cycles

 The electronic state is 1-A.
 Alpha  occ. eigenvalues -- -483.12715 -62.67567 -56.46677 -56.46333 -56.46318
 Alpha  occ. eigenvalues --  -19.21437 -14.46986 -14.46708 -10.39076 -10.37798
 Alpha  occ. eigenvalues --  -10.33916 -10.31199 -10.30578 -10.29116 -10.28982
 Alpha  occ. eigenvalues --  -10.28962 -10.28950 -10.28941 -10.28796 -10.28735
 Alpha  occ. eigenvalues --  -10.28691 -10.28337 -10.28308 -10.27468  -8.81681
 Alpha  occ. eigenvalues --   -6.63815  -6.62722  -6.62670  -2.74205  -2.73898
 Alpha  occ. eigenvalues --   -2.73857  -2.72973  -2.72973  -1.14236  -1.04445
 Alpha  occ. eigenvalues --   -1.02600  -0.97073  -0.95545  -0.92646  -0.87975
 Alpha  occ. eigenvalues --   -0.85225  -0.85133  -0.84712  -0.81650  -0.78148
 Alpha  occ. eigenvalues --   -0.75140  -0.71905  -0.70498  -0.70067  -0.68354
 Alpha  occ. eigenvalues --   -0.65215  -0.62775  -0.62527  -0.61733  -0.58319
 Alpha  occ. eigenvalues --   -0.57155  -0.56364  -0.55334  -0.54225  -0.53313
 Alpha  occ. eigenvalues --   -0.52968  -0.52884  -0.52110  -0.51327  -0.51013
 Alpha  occ. eigenvalues --   -0.50479  -0.50242  -0.47907  -0.47371  -0.46564
 Alpha  occ. eigenvalues --   -0.46216  -0.44806  -0.44081  -0.43194  -0.42801
 Alpha  occ. eigenvalues --   -0.42564  -0.39999  -0.37369  -0.36438  -0.35568
 Alpha  occ. eigenvalues --   -0.33865  -0.33787  -0.33584  -0.30455  -0.26643
 Alpha virt. eigenvalues --    0.02581   0.03963   0.05098   0.05356   0.07102
 Alpha virt. eigenvalues --    0.08426   0.10853   0.12484   0.13288   0.14077
 Alpha virt. eigenvalues --    0.14359   0.14925   0.16029   0.16548   0.17055

 Mulliken charges:
               1
     1  C   -0.182454
     2  C    0.403455
     3  O   -0.530391
     4  C   -0.010490
     5  C   -0.270451
     6  H    0.149562
     7  H    0.147655
     8  H    0.140385
     9  N   -0.359835
    10  H    0.279882
    11  H    0.273886
    12  H    0.195758
    13  Br  -0.117490
    14  C    0.097830
    15  C   -0.287239
    16  C   -0.123861
    17  C   -0.158265
    18  C   -0.137172
    19  C   -0.269519
    20  H    0.161726
    21  H    0.141734
    22  H    0.143027
    23  H    0.141044
    24  H    0.154509
    25  N   -0.257124
    26  C    0.301714
    27  C   -0.298033
    28  C   -0.110294
    29  C   -0.195236
    30  C   -0.096061
    31  C   -0.316178
    32  H    0.259617
    33  H    0.159992
    34  H    0.141585
    35  H    0.141016
    36  H    0.143761
    37  H    0.141957
 Sum of Mulliken charges =  -0.00000

 Dipole moment (field-independent basis, Debye):
    X=              4.0237    Y=              3.4412    Z=              3.3068  Tot=              6.2424
 Quadrupole moment (field-independent basis, Debye-Ang):
   XX=           -113.3331   YY=           -127.3128   ZZ=           -123.4404
   XY=             -4.8990   XZ=              9.6402   YZ=             -7.8450

  Exact polarizability: 376.573 -17.019 366.913  -9.447 -25.116 255.806
 Approx polarizability: 281.034  -9.672 289.488 -12.290 -20.462 218.323

 ******    1 imaginary frequencies (negative Signs) ******

                      1                      2                      3
                      A                      A                      A
 Frequencies --   -388.8101                24.2762                28.6213
 Red. masses --      5.8245                 4.4024                 4.9311
 Frc consts  --      0.5188                 0.0015                 0.0024
 IR Inten    --    971.0482                 1.4125                 0.6711

                      4                      5                      6
                      A                      A                      A
 Frequencies --     42.1456                46.3253                60.8620
 Red. masses --      4.0990                 4.5174                 4.8007
 Frc consts  --      0.0043                 0.0057                 0.0105
 IR Inten    --      1.0715                 1.2359                 7.3195

                      7                      8                      9
                      A                      A                      A
 Frequencies --     76.3457                91.8772               102.0469
 Red. masses --      2.7858                 3.5851                 6.6201
 Frc consts  --      0.0096                 0.0178                 0.0406
 IR Inten    --      3.6459                 3.6489                 8.9833

                     10                     11                     12
                      A                      A                      A
 Frequencies --    119.4003               144.3934               167.7091
 Red. masses --      4.4542                 4.2241                 2.1482
 Frc consts  --      0.0374                 0.0519                 0.0356
 IR Inten    --     18.2060                 4.4874                 0.3161

                     13                     14                     15
                      A                      A                      A
 Frequencies --    195.3092               209.9914               241.5350
 Red. masses --      1.8219                 5.3136                 4.5949
 Frc consts  --      0.0409                 0.1381                 0.1579
 IR Inten    --      5.4851                22.3627                12.8450

                     16                     17                     18
                      A                      A                      A
 Frequencies --    258.4830               266.2568               295.9866
 Red. masses --      4.9813                 5.5379                 3.6089
 Frc consts  --      0.1961                 0.2313                 0.1863
 IR Inten    --     25.6321                 2.5085                22.4260

                     19                     20                     21
                      A                      A                      A
 Frequencies --    353.6948               398.7344               423.5473
 Red. masses --      7.2688                 6.3794                 2.9879
 Frc consts  --      0.5358                 0.5976                 0.3158
 IR Inten    --     12.3631                 2.7537                 0.0888

                     22                     23                     24
                      A                      A                      A
 Frequencies --    426.1841               448.8260               491.7391
 Red. masses --      2.9719                 3.5459                 5.7961
 Frc consts  --      0.3180                 0.4209                 0.8258
 IR Inten    --      2.0144                10.4340                38.3834

                     25                     26                     27
                      A                      A                      A
 Frequencies --    531.4866               541.0009               607.1418
 Red. masses --      2.9877                 3.2505                 2.3372
 Frc consts  --      0.4972                 0.5605                 0.5076
 IR Inten    --     52.0187                13.1269                47.0973

                     28                     29                     30
                      A                      A                      A
 Frequencies --    614.4970               629.9311               636.6693
 Red. masses --      1.2590                 4.2957                 6.2249
 Frc consts  --      0.2801                 1.0043                 1.4867
 IR Inten    --     84.6949                63.7335                 1.3361

                     31                     32                     33
                      A                      A                      A
 Frequencies --    644.4922               683.9619               719.5963
 Red. masses --      5.1884                 2.7814                 1.8813
 Frc consts  --      1.2697                 0.7666                 0.5740
 IR Inten    --     24.6902                66.5457                72.3489

                     34                     35                     36
                      A                      A                      A
 Frequencies --    725.2870               732.4102               784.3165
 Red. masses --      3.3532                 1.7905                 1.9890
 Frc consts  --      1.0393                 0.5659                 0.7209
 IR Inten    --     23.7025               183.4330                60.7814

                     37                     38                     39
                      A                      A                      A
 Frequencies --    787.7177               805.9055               863.3619
 Red. masses --      4.2673                 2.9363                 1.2600
 Frc consts  --      1.5601                 1.1236                 0.5533
 IR Inten    --     57.1548                69.6636                 0.0570

                     40                     41                     42
                      A                      A                      A
 Frequencies --    871.4786               877.9200               892.2203
 Red. masses --      4.7458                 1.2665                 6.5946
 Frc consts  --      2.1236                 0.5752                 3.0930
 IR Inten    --     26.7900                 0.7285                 2.6211

                     43                     44                     45
                      A                      A                      A
 Frequencies --    935.4680               952.0913               964.3827
 Red. masses --      1.4680                 1.4482                 1.1117
 Frc consts  --      0.7569                 0.7734                 0.6091
 IR Inten    --     13.2500                 2.2217               131.6096

                     46                     47                     48
                      A                      A                      A
 Frequencies --   1003.1886              1011.3544              1013.3683
 Red. masses --      1.3465                 1.3001                 1.3839
 Frc consts  --      0.7984                 0.7835                 0.8373
 IR Inten    --      0.0417                19.8920                 2.0964

                     49                     50                     51
                      A                      A                      A
 Frequencies --   1019.6597              1020.6663              1022.0685
 Red. masses --      1.2900                 4.9546                 4.5021
 Frc consts  --      0.7902                 3.0411                 2.7709
 IR Inten    --      0.9145                 3.4907                 2.4277

                     52                     53                     54
                      A                      A                      A
 Frequencies --   1025.7851              1032.7639              1062.9326
 Red. masses --      1.3753                 3.1553                 1.9290
 Frc consts  --      0.8526                 1.9829                 1.2841
 IR Inten    --      0.3134                22.3562                35.1374

                     55                     56                     57
                      A                      A                      A
 Frequencies --   1063.9034              1072.8023              1091.0409
 Red. masses --      1.4704                 1.5513                 3.8365
 Frc consts  --      0.9806                 1.0519                 2.6907
 IR Inten    --     48.7595                51.4071                15.0406

                     58                     59                     60
                      A                      A                      A
 Frequencies --   1116.1884              1121.2506              1182.7489
 Red. masses --      1.5531                 1.5190                 1.1293
 Frc consts  --      1.1400                 1.1252                 0.9308
 IR Inten    --     15.4447                19.1257                 3.4655

                     61                     62                     63
                      A                      A                      A
 Frequencies --   1183.0318              1190.5402              1208.2103
 Red. masses --      1.1262                 1.4226                 1.2131
 Frc consts  --      0.9287                 1.1880                 1.0434
 IR Inten    --      2.3034                17.1513                81.1578

                     64                     65                     66
                      A                      A                      A
 Frequencies --   1214.5162              1219.9129              1253.8896
 Red. masses --      1.1293                 2.2100                 1.9343
 Frc consts  --      0.9815                 1.9378                 1.7918
 IR Inten    --      2.6081               131.0715                33.0783

                     67                     68                     69
                      A                      A                      A
 Frequencies --   1274.6063              1305.2628              1340.3656
 Red. masses --      2.3693                 4.0543                 2.6097
 Frc consts  --      2.2679                 4.0697                 2.7624
 IR Inten    --    284.0487                64.2692                58.3468

                     70                     71                     72
                      A                      A                      A
 Frequencies --   1346.9194              1350.3639              1361.7287
 Red. masses --      1.4700                 2.9689                 1.6053
 Frc consts  --      1.5712                 3.1897                 1.7539
 IR Inten    --     83.7340               433.8864                 8.5214

                     73                     74                     75
                      A                      A                      A
 Frequencies --   1368.6372              1440.8402              1465.6350
 Red. masses --      1.5896                 2.1182                 1.6761
 Frc consts  --      1.7543                 2.5909                 2.1213
 IR Inten    --    116.7297               511.6022               185.5727

                     76                     77                     78
                      A                      A                      A
 Frequencies --   1478.5802              1489.0759              1495.9976
 Red. masses --      2.1452                 1.0403                 2.4991
 Frc consts  --      2.7631                 1.3591                 3.2954
 IR Inten    --    263.2510                14.9818               180.3415

                     79                     80                     81
                      A                      A                      A
 Frequencies --   1504.2344              1540.6913              1546.9212
 Red. masses --      1.0470                 2.3082                 2.4245
 Frc consts  --      1.3957                 3.2282                 3.4183
 IR Inten    --     10.2000                94.9945               172.7362

                     82                     83                     84
                      A                      A                      A
 Frequencies --   1567.2972              1638.4692              1641.0047
 Red. masses --      2.0795                 1.3714                 3.0273
 Frc consts  --      3.0096                 2.1692                 4.8031
 IR Inten    --    743.1072               145.2039                28.2407

                     85                     86                     87
                      A                      A                      A
 Frequencies --   1661.0021              1667.9423              1672.7654
 Red. masses --      5.3806                 5.4238                 5.0880
 Frc consts  --      8.7462                 8.8903                 8.3882
 IR Inten    --    118.8824               116.0215                49.8624

                     88                     89                     90
                      A                      A                      A
 Frequencies --   1695.8025              3060.5879              3134.1046
 Red. masses --      6.2053                 1.0336                 1.1034
 Frc consts  --     10.5139                 5.7047                 6.3858
 IR Inten    --    444.9039                51.5708                14.2978

                     91                     92                     93
                      A                      A                      A
 Frequencies --   3156.4047              3188.3698              3188.5448
 Red. masses --      1.1051                 1.0862                 1.0879
 Frc consts  --      6.4867                 6.5060                 6.5164
 IR Inten    --     21.4629                14.6042                10.2790

                     94                     95                     96
                      A                      A                      A
 Frequencies --   3191.0701              3197.6836              3201.8075
 Red. masses --      1.0880                 1.0883                 1.0910
 Frc consts  --      6.5274                 6.5564                 6.5897
 IR Inten    --      1.6502                 2.1129                 7.4366

                     97                     98                     99
                      A                      A                      A
 Frequencies --   3207.5724              3207.9919              3220.6889
 Red. masses --      1.0932                 1.0949                 1.0986
 Frc consts  --      6.6268                 6.6390                 6.7143
 IR Inten    --     30.4431                42.5960                22.0164

                    100                    101                    102
                      A                      A                      A
 Frequencies --   3221.9549              3234.8769              3271.5827
 Red. masses --      1.0981                 1.0920                 1.0924
 Frc consts  --      6.7160                 6.7327                 6.8890
 IR Inten    --     22.6239                 2.7516                 5.4422

                    103                    104                    105
                      A                      A                      A
 Frequencies --   3522.6801              3618.7929              3636.7161
 Red. masses --      1.0503                 1.0970                 1.0765
 Frc consts  --      7.6791                 8.4643                 8.3888
 IR Inten    --     44.7529                70.6321                79.7522

 - Thermochemistry -
 -------------------
 Temperature   298.150 Kelvin.  Pressure   1.00000 Atm.
 Atom     1 has atomic number  6 and mass  12.00000

 Molecular mass:   332.05242 amu.
 Principal axes and moments of inertia in atomic units:
                           1         2         3
     Eigenvalues --  6030.599249357.37874**********
           X            0.99722   0.07208   0.01890
           Y           -0.07148   0.99697  -0.03080
           Z           -0.02106   0.02936   0.99935
 This molecule is an asymmetric top.
 Rotational symmetry number  1.
 Warning -- assumption of classical behavior for rotation
           may cause significant error
 Rotational temperatures (Kelvin)      0.01436     0.00926     0.00659
 Rotational constants (GHZ):           0.29926     0.19287     0.13736
    1 imaginary frequencies ignored.
 Zero-point vibrational energy     790498.5 (Joules/Mol)
                                  188.93367 (Kcal/Mol)
 Warning -- explicit consideration of  27 degrees of freedom as
           vibrations may cause significant error
 Vibrational temperatures:     34.93    41.18    60.64    66.65    87.57
          (Kelvin)            109.84   132.19   146.82   171.79   207.75
                              241.30   281.01   302.13   347.51   371.90
                              383.08   425.86   508.89   573.69   609.39
                              613.18   645.76   707.50   764.69   778.38
                              873.54   884.12   906.33   916.03   927.28
                              984.07  1035.34  1043.53  1053.77  1128.46
                             1133.35  1159.52  1242.19  1253.86  1263.13
                             1283.71  1345.93  1369.85  1387.53  1443.36
                             1455.11  1458.01  1467.06  1468.51  1470.53
                             1475.88  1485.92  1529.32  1530.72  1543.52
                             1569.76  1605.95  1613.23  1701.71  1702.12
                             1712.92  1738.35  1747.42  1755.18  1804.07
                             1833.87  1877.98  1928.49  1937.92  1942.87
                             1959.22  1969.16  2073.05  2108.72  2127.35
                             2142.45  2152.41  2164.26  2216.71  2225.67
                             2254.99  2357.39  2361.04  2389.81  2399.80
                             2406.74  2439.88  4403.50  4509.28  4541.36
                             4587.35  4587.60  4591.24  4600.75  4606.69
                             4614.98  4615.58  4633.85  4635.67  4654.27
                             4707.08  5068.35  5206.64  5232.42

 Zero-point correction=                           0.301085 (Hartree/Particle)
 Thermal correction to Energy=                    0.319972
 Thermal correction to Enthalpy=                  0.320916
 Thermal correction to Gibbs Free Energy=         0.250588
 Sum of electronic and zero-point Energies=          -3378.587263
 Sum of electronic and thermal Energies=             -3378.568376
 Sum of electronic and thermal Enthalpies=           -3378.567431
 Sum of electronic and thermal Free Energies=        -3378.637760

                     E (Thermal)             CV                S
                      KCal/Mol        Cal/Mol-Kelvin    Cal/Mol-Kelvin
 Total                  200.785             70.282            148.018
 Electronic               0.000              0.000              0.000
 Translational            0.889              2.981             43.295
 Rotational               0.889              2.981             34.960
 Vibrational            199.008             64.321             69.763
 Vibration     1          0.593              1.985              6.250
 Vibration     2          0.593              1.984              5.923
 Vibration     3          0.595              1.980              5.156
 Vibration     4          0.595              1.979              4.968
 Vibration     5          0.597              1.973              4.429
 Vibration     6          0.599              1.965              3.983
 Vibration     7          0.602              1.955              3.620
 Vibration     8          0.604              1.948              3.415
 Vibration     9          0.609              1.933              3.110
 Vibration    10          0.616              1.909              2.745
 Vibration    11          0.624              1.882              2.461
 Vibration    12          0.636              1.846              2.177
 Vibration    13          0.642              1.826              2.044
 Vibration    14          0.658              1.777              1.792
 Vibration    15          0.667              1.748              1.672
 Vibration    16          0.672              1.735              1.620
 Vibration    17          0.690              1.681              1.439
 Vibration    18          0.730              1.568              1.150
 Vibration    19          0.765              1.473              0.967
 Vibration    20          0.786              1.419              0.880
 Vibration    21          0.788              1.413              0.871
 Vibration    22          0.808              1.363              0.799
 Vibration    23          0.847              1.268              0.679
 Vibration    24          0.886              1.180              0.584
 Vibration    25          0.896              1.159              0.563
 Vibration    26          0.966              1.017              0.438
 Vibration    27          0.974              1.001              0.425

 Optimization completed.
    -- Stationary point found.
 Normal termination of Gaussian 16 at Tue Mar  2 14:41:37 2021.
