 Gaussian 16, Revision A.03,
 Gaussian 16:  ES64L-G16RevA.03 25-Dec-2016

 ----------------------------------------------------------------------
 # wB97XD def2tzvp, opt=(ts, noeigen, calcfc, maxcycles=70, maxstep=1),
  freq=noraman, scrf=(iefpcm, solvent=water)
 ----------------------------------------------------------------------

 ------------------------
 0_iteration/TS-320-0.out
 ------------------------
 Symbolic Z-matrix:
 Charge =  0 Multiplicity = 1

 SCF Done:  E(RwB97XD) =  -1017.77170326     A.U. after   15 cycles
 SCF Done:  E(RwB97XD) =  -1017.77170265     A.U. after   10 cycles
 SCF Done:  E(RwB97XD) =  -1017.77170284     A.U. after    6 cycles
 Optimization completed.
    -- Stationary point found.
 Normal termination of Gaussian 16 at Tue Mar  2 03:12:12 2021.

 ---------------------------------------------------------------------
 #N Geom=AllCheck Guess=TCheck SCRF=Check GenChk RwB97XD/def2TZVP Freq
 ---------------------------------------------------------------------

 Structure from the checkpoint file:  "/beegfs/scratch/user/q/tla25/Gau-45629.chk"
 ------------------------
 0_iteration/TS-320-0.out
 ------------------------
 Charge =  0 Multiplicity = 1

                         Standard orientation:
 ---------------------------------------------------------------------
 Center     Atomic      Atomic             Coordinates (Angstroms)
 Number     Number       Type             X           Y           Z
 ---------------------------------------------------------------------
      1          6           0        1.169132   -0.808261    0.241256
      2          6           0       -0.032552   -1.420392   -0.217136
      3          8           0       -0.099306   -2.568452   -0.662223
      4          6           0        1.381213    0.431719    0.830909
      5          6           0        2.561559    2.988793   -0.214890
      6          1           0        2.954801    3.550134   -1.064430
      7          1           0        1.839636    3.611026    0.310381
      8          1           0        3.382633    2.758143    0.463676
      9          7           0        1.918102    1.743862   -0.624744
     10          1           0        1.073495    1.912980   -1.157568
     11          1           0        2.533553    1.176773   -1.194672
     12          1           0        2.367401    0.534321    1.268052
     13          6           0        0.350731    1.274432    1.528982
     14          1           0       -0.044013    0.717446    2.380191
     15          1           0        0.816413    2.181788    1.908905
     16          1           0       -0.486785    1.547340    0.893193
     17         17           0        2.639124   -1.748681   -0.057570
     18          6           0       -1.304614   -0.618163   -0.168714
     19          6           0       -2.230109   -0.829295    0.845466
     20          6           0       -3.413145   -0.106169    0.869648
     21          6           0       -3.683703    0.821449   -0.127205
     22          6           0       -2.770704    1.018058   -1.153761
     23          6           0       -1.583780    0.300428   -1.173779
     24          1           0       -2.015938   -1.548180    1.627089
     25          1           0       -4.125144   -0.265359    1.669629
     26          1           0       -4.606570    1.386912   -0.106239
     27          1           0       -2.981139    1.733121   -1.938937
     28          1           0       -0.869892    0.456095   -1.974245
 ---------------------------------------------------------------------

 SCF Done:  E(RwB97XD) =  -1017.77170284     A.U. after    1 cycles

 The electronic state is 1-A.
 Alpha  occ. eigenvalues -- -101.68358 -19.21631 -14.47004 -10.36517 -10.34991
 Alpha  occ. eigenvalues --  -10.31537 -10.31481 -10.30129 -10.29538 -10.29446
 Alpha  occ. eigenvalues --  -10.29424 -10.29375 -10.29255 -10.28586  -9.56898
 Alpha  occ. eigenvalues --   -7.31510  -7.30695  -7.30683  -1.12494  -1.02645
 Alpha  occ. eigenvalues --   -0.97166  -0.96033  -0.88868  -0.86376  -0.85566
 Alpha  occ. eigenvalues --   -0.79699  -0.78388  -0.73831  -0.70910  -0.69734
 Alpha  occ. eigenvalues --   -0.63548  -0.62213  -0.59457  -0.57514  -0.55702
 Alpha  occ. eigenvalues --   -0.55288  -0.54904  -0.54007  -0.53157  -0.51417
 Alpha  occ. eigenvalues --   -0.50964  -0.49721  -0.48543  -0.47888  -0.47370
 Alpha  occ. eigenvalues --   -0.46632  -0.44645  -0.44223  -0.43318  -0.41923
 Alpha  occ. eigenvalues --   -0.39600  -0.38832  -0.34633  -0.34237  -0.32388
 Alpha  occ. eigenvalues --   -0.28185
 Alpha virt. eigenvalues --    0.02796   0.04675   0.04937   0.09548   0.11642
 Alpha virt. eigenvalues --    0.12883   0.13722   0.14380   0.14726   0.15107
 Alpha virt. eigenvalues --    0.16937   0.17303   0.18098   0.18748   0.18983

 Mulliken charges:
               1
     1  C   -0.073597
     2  C    0.174253
     3  O   -0.477278
     4  C   -0.053677
     5  C   -0.280405
     6  H    0.148936
     7  H    0.152756
     8  H    0.148770
     9  N   -0.379507
    10  H    0.269328
    11  H    0.276307
    12  H    0.161652
    13  C   -0.362626
    14  H    0.154965
    15  H    0.156573
    16  H    0.153954
    17  Cl  -0.192081
    18  C    0.190581
    19  C   -0.233354
    20  C   -0.128934
    21  C   -0.156411
    22  C   -0.119731
    23  C   -0.275744
    24  H    0.146659
    25  H    0.145737
    26  H    0.146386
    27  H    0.146095
    28  H    0.160394
 Sum of Mulliken charges =  -0.00000

 Dipole moment (field-independent basis, Debye):
    X=              1.1181    Y=             12.1726    Z=              0.9621  Tot=             12.2617
 Quadrupole moment (field-independent basis, Debye-Ang):
   XX=            -81.2366   YY=            -98.9453   ZZ=            -84.6268
   XY=             10.4156   XZ=             -4.2725   YZ=             -9.2701

  Exact polarizability: 238.137   1.494 237.516 -10.775  -8.915 179.926
 Approx polarizability: 183.164  -3.271 190.811  -8.946  -7.834 158.543

 ******    1 imaginary frequencies (negative Signs) ******

                      1                      2                      3
                      A                      A                      A
 Frequencies --   -322.7021                36.1739                42.9287
 Red. masses --      5.8982                 2.7305                 4.8624
 Frc consts  --      0.3619                 0.0021                 0.0053
 IR Inten    --    902.7272                 0.3674                 3.7936

                      4                      5                      6
                      A                      A                      A
 Frequencies --     60.9000                70.8910                84.4173
 Red. masses --      3.0018                 4.1131                 3.7481
 Frc consts  --      0.0066                 0.0122                 0.0157
 IR Inten    --      5.0173                 2.0814                 1.7983

                      7                      8                      9
                      A                      A                      A
 Frequencies --    117.3153               159.7569               186.2402
 Red. masses --      4.3870                 1.2624                 2.5950
 Frc consts  --      0.0356                 0.0190                 0.0530
 IR Inten    --     10.8630                 1.4675                 2.2595

                     10                     11                     12
                      A                      A                      A
 Frequencies --    212.1477               231.9046               249.8386
 Red. masses --      3.1211                 2.4277                 4.8017
 Frc consts  --      0.0828                 0.0769                 0.1766
 IR Inten    --     14.0270                 5.6361                 6.9307

                     13                     14                     15
                      A                      A                      A
 Frequencies --    272.8548               289.2871               311.7825
 Red. masses --      1.9229                 4.0165                 3.0812
 Frc consts  --      0.0843                 0.1980                 0.1765
 IR Inten    --      5.1891                 7.0283                 0.2757

                     16                     17                     18
                      A                      A                      A
 Frequencies --    364.7738               415.0888               439.4040
 Red. masses --      5.6333                 2.8913                 3.9685
 Frc consts  --      0.4416                 0.2935                 0.4514
 IR Inten    --     19.1177                 0.6794                 2.9056

                     19                     20                     21
                      A                      A                      A
 Frequencies --    462.8043               556.2077               596.3671
 Red. masses --      5.2061                 3.7366                 1.3625
 Frc consts  --      0.6570                 0.6811                 0.2855
 IR Inten    --    158.8626                10.6624                43.5865

                     22                     23                     24
                      A                      A                      A
 Frequencies --    633.8161               640.8666               705.8010
 Red. masses --      6.3710                 5.1578                 3.5611
 Frc consts  --      1.5079                 1.2481                 1.0452
 IR Inten    --      1.5238                54.7745                32.3168

                     25                     26                     27
                      A                      A                      A
 Frequencies --    729.4880               780.7514               796.9405
 Red. masses --      1.4982                 7.3945                 3.5435
 Frc consts  --      0.4697                 2.6557                 1.3260
 IR Inten    --     92.9990                32.4904                75.7468

                     28                     29                     30
                      A                      A                      A
 Frequencies --    842.2563               882.1598               960.0568
 Red. masses --      3.5772                 1.2502                 1.4398
 Frc consts  --      1.4952                 0.5732                 0.7819
 IR Inten    --     94.5201                 0.2593                42.3267

                     31                     32                     33
                      A                      A                      A
 Frequencies --    967.9722               996.7644              1004.4453
 Red. masses --      1.4725                 1.1494                 1.2272
 Frc consts  --      0.8129                 0.6728                 0.7295
 IR Inten    --     67.6235                52.6822               105.8925

                     34                     35                     36
                      A                      A                      A
 Frequencies --   1015.6117              1025.7156              1033.9477
 Red. masses --      1.3818                 5.4356                 1.3241
 Frc consts  --      0.8398                 3.3694                 0.8340
 IR Inten    --     10.6118                 1.8679                 1.0940

                     37                     38                     39
                      A                      A                      A
 Frequencies --   1046.8550              1059.1154              1069.7227
 Red. masses --      2.1741                 2.0469                 3.5655
 Frc consts  --      1.4038                 1.3528                 2.4039
 IR Inten    --      7.6587                18.0162               193.7581

                     40                     41                     42
                      A                      A                      A
 Frequencies --   1083.5068              1110.8279              1137.6268
 Red. masses --      1.7056                 1.5526                 1.4737
 Frc consts  --      1.1798                 1.1288                 1.1237
 IR Inten    --     26.3730                10.1584               141.4146

                     43                     44                     45
                      A                      A                      A
 Frequencies --   1178.8868              1184.6627              1204.6467
 Red. masses --      2.1790                 1.1426                 1.4170
 Frc consts  --      1.7842                 0.9448                 1.2115
 IR Inten    --     18.6943                 0.0339                17.1810

                     46                     47                     48
                      A                      A                      A
 Frequencies --   1207.2879              1289.1155              1319.4743
 Red. masses --      1.1263                 2.1235                 4.2150
 Frc consts  --      0.9672                 2.0791                 4.3236
 IR Inten    --      0.7873                45.2739                 2.1780

                     49                     50                     51
                      A                      A                      A
 Frequencies --   1345.6403              1359.5648              1412.4166
 Red. masses --      1.3292                 1.4574                 1.5396
 Frc consts  --      1.4181                 1.5872                 1.8097
 IR Inten    --      0.1442                 1.2238               139.1272

                     52                     53                     54
                      A                      A                      A
 Frequencies --   1418.2217              1457.8931              1475.1234
 Red. masses --      1.8508                 1.2914                 1.2286
 Frc consts  --      2.1933                 1.6172                 1.5751
 IR Inten    --    406.2961               119.8009               122.6533

                     55                     56                     57
                      A                      A                      A
 Frequencies --   1488.1879              1493.1054              1495.0228
 Red. masses --      2.1776                 1.0603                 1.0651
 Frc consts  --      2.8415                 1.3927                 1.4026
 IR Inten    --      8.8427                30.2847                 4.2481

                     58                     59                     60
                      A                      A                      A
 Frequencies --   1506.3936              1515.2927              1542.1025
 Red. masses --      1.3144                 1.4309                 2.3588
 Frc consts  --      1.7574                 1.9357                 3.3049
 IR Inten    --    238.0591               289.4240                11.4100

                     61                     62                     63
                      A                      A                      A
 Frequencies --   1642.7768              1647.7855              1650.6156
 Red. masses --      6.9379                 1.4245                 3.0402
 Frc consts  --     11.0316                 2.2789                 4.8802
 IR Inten    --    774.5226                19.4354                50.2447

                     64                     65                     66
                      A                      A                      A
 Frequencies --   1675.2331              3058.9113              3078.1657
 Red. masses --      5.8666                 1.0356                 1.0396
 Frc consts  --      9.7003                 5.7093                 5.8034
 IR Inten    --      0.2028                69.2529                14.2609

                     67                     68                     69
                      A                      A                      A
 Frequencies --   3131.2985              3148.2995              3160.9347
 Red. masses --      1.1031                 1.0994                 1.1043
 Frc consts  --      6.3726                 6.4201                 6.5010
 IR Inten    --     22.8179                23.0473                21.4090

                     70                     71                     72
                      A                      A                      A
 Frequencies --   3175.7162              3190.1579              3190.7916
 Red. masses --      1.0962                 1.0879                 1.0950
 Frc consts  --      6.5134                 6.5231                 6.5681
 IR Inten    --      2.8968                 8.6515                14.8273

                     73                     74                     75
                      A                      A                      A
 Frequencies --   3195.1451              3204.2683              3212.5885
 Red. masses --      1.0876                 1.0910                 1.0950
 Frc consts  --      6.5416                 6.5999                 6.6585
 IR Inten    --      1.9381                 6.5303                36.6407

                     76                     77                     78
                      A                      A                      A
 Frequencies --   3223.3021              3534.0624              3617.0370
 Red. masses --      1.0988                 1.0505                 1.0960
 Frc consts  --      6.7262                 7.7300                 8.4480
 IR Inten    --     18.3815                10.8131                39.2813

 - Thermochemistry -
 -------------------
 Temperature   298.150 Kelvin.  Pressure   1.00000 Atm.
 Atom     1 has atomic number  6 and mass  12.00000

 Molecular mass:   211.07639 amu.
 Principal axes and moments of inertia in atomic units:
                           1         2         3
     Eigenvalues --  2255.498474079.375935402.12794
           X            0.99826   0.05877  -0.00414
           Y           -0.05882   0.99820  -0.01155
           Z            0.00346   0.01177   0.99992
 This molecule is an asymmetric top.
 Rotational symmetry number  1.
 Warning -- assumption of classical behavior for rotation
           may cause significant error
 Rotational temperatures (Kelvin)      0.03840     0.02123     0.01603
 Rotational constants (GHZ):           0.80015     0.44241     0.33408
    1 imaginary frequencies ignored.
 Zero-point vibrational energy     606001.0 (Joules/Mol)
                                  144.83772 (Kcal/Mol)
 Warning -- explicit consideration of  20 degrees of freedom as
           vibrations may cause significant error
 Vibrational temperatures:     52.05    61.76    87.62   102.00   121.46
          (Kelvin)            168.79   229.85   267.96   305.23   333.66
                              359.46   392.58   416.22   448.59   524.83
                              597.22   632.20   665.87   800.26   858.04
                              911.92   922.06  1015.49  1049.57  1123.33
                             1146.62  1211.82  1269.23  1381.31  1392.70
                             1434.12  1445.17  1461.24  1475.78  1487.62
                             1506.19  1523.83  1539.09  1558.92  1598.23
                             1636.79  1696.16  1704.47  1733.22  1737.02
                             1854.75  1898.43  1936.08  1956.11  2032.15
                             2040.50  2097.58  2122.37  2141.17  2148.25
                             2151.00  2167.36  2180.17  2218.74  2363.59
                             2370.80  2374.87  2410.29  4401.09  4428.79
                             4505.24  4529.70  4547.88  4569.15  4589.93
                             4590.84  4597.10  4610.23  4622.20  4637.61
                             5084.73  5204.11

 Zero-point correction=                           0.230814 (Hartree/Particle)
 Thermal correction to Energy=                    0.245363
 Thermal correction to Enthalpy=                  0.246307
 Thermal correction to Gibbs Free Energy=         0.187721
 Sum of electronic and zero-point Energies=          -1017.540889
 Sum of electronic and thermal Energies=             -1017.526340
 Sum of electronic and thermal Enthalpies=           -1017.525396
 Sum of electronic and thermal Free Energies=        -1017.583982

                     E (Thermal)             CV                S
                      KCal/Mol        Cal/Mol-Kelvin    Cal/Mol-Kelvin
 Total                  153.967             52.537            123.305
 Electronic               0.000              0.000              0.000
 Translational            0.889              2.981             41.945
 Rotational               0.889              2.981             32.275
 Vibrational            152.190             46.575             49.085
 Vibration     1          0.594              1.982              5.458
 Vibration     2          0.595              1.980              5.119
 Vibration     3          0.597              1.973              4.428
 Vibration     4          0.598              1.968              4.128
 Vibration     5          0.601              1.960              3.785
 Vibration     6          0.608              1.935              3.144
 Vibration     7          0.622              1.892              2.553
 Vibration     8          0.632              1.859              2.265
 Vibration     9          0.643              1.822              2.025
 Vibration    10          0.653              1.792              1.864
 Vibration    11          0.663              1.763              1.732
 Vibration    12          0.676              1.723              1.578
 Vibration    13          0.686              1.694              1.478
 Vibration    14          0.700              1.651              1.353
 Vibration    15          0.738              1.545              1.102
 Vibration    16          0.778              1.437              0.909
 Vibration    17          0.799              1.384              0.828
 Vibration    18          0.820              1.333              0.758
 Vibration    19          0.912              1.126              0.531
 Vibration    20          0.954              1.040              0.456

 Optimization completed.
    -- Stationary point found.
 Normal termination of Gaussian 16 at Tue Mar  2 04:00:11 2021.
