 Gaussian 16, Revision A.03,
 Gaussian 16:  ES64L-G16RevA.03 25-Dec-2016

 ----------------------------------------------------------------------
 # wB97XD def2tzvp, opt=(ts, noeigen, calcfc, maxcycles=70, maxstep=1),
  freq=noraman, scrf=(iefpcm, solvent=water)
 ----------------------------------------------------------------------

 ------------------------
 0_iteration/TS-356-0.out
 ------------------------
 Symbolic Z-matrix:
 Charge =  0 Multiplicity = 1

 SCF Done:  E(RwB97XD) =  -3435.56340791     A.U. after   15 cycles
 Optimization completed on the basis of negligible forces.
    -- Stationary point found.
 Normal termination of Gaussian 16 at Tue Mar  2 02:21:14 2021.

 ---------------------------------------------------------------------
 #N Geom=AllCheck Guess=TCheck SCRF=Check GenChk RwB97XD/def2TZVP Freq
 ---------------------------------------------------------------------

 Structure from the checkpoint file:  "/beegfs/scratch/user/q/tla25/Gau-79020.chk"
 ------------------------
 0_iteration/TS-356-0.out
 ------------------------
 Charge =  0 Multiplicity = 1

                         Standard orientation:
 ---------------------------------------------------------------------
 Center     Atomic      Atomic             Coordinates (Angstroms)
 Number     Number       Type             X           Y           Z
 ---------------------------------------------------------------------
      1          6           0       -0.675090    0.535289   -0.378050
      2          6           0       -1.527108   -0.427542    0.271280
      3          8           0       -1.123807   -1.384531    0.910020
      4          6           0        0.699521    0.490822   -0.411220
      5          6           0        2.880949    1.472235    1.326120
      6          1           0        3.176838    1.887725    2.290470
      7          1           0        3.456560    0.568156    1.137560
      8          1           0        3.098938    2.199215    0.545030
      9          7           0        1.457450    1.148463    1.289900
     10          1           0        1.207421    0.437182    1.967150
     11          1           0        0.882408    1.963712    1.466780
     12          1           0        1.202739    1.248422   -0.993840
     13         35           0        1.653583   -1.162487   -0.567200
     14         17           0       -1.376912    2.052378   -0.929970
     15          8           0       -2.838048   -0.179184    0.111800
     16          6           0       -3.728897   -1.089355    0.748210
     17          1           0       -4.728708   -0.723697    0.530180
     18          1           0       -3.604445   -2.096685    0.350910
     19          1           0       -3.563217   -1.105635    1.825390
 ---------------------------------------------------------------------

 SCF Done:  E(RwB97XD) =  -3435.56340791     A.U. after    1 cycles

 The electronic state is 1-A.
 Alpha  occ. eigenvalues -- -483.13644-101.69275 -62.68498 -56.47623 -56.47260
 Alpha  occ. eigenvalues --  -56.47236 -19.29063 -19.22360 -14.48234 -10.41099
 Alpha  occ. eigenvalues --  -10.39158 -10.33002 -10.32212 -10.31838  -9.57792
 Alpha  occ. eigenvalues --   -8.82618  -7.32440  -7.31576  -7.31554  -6.64805
 Alpha  occ. eigenvalues --   -6.63645  -6.63565  -2.75189  -2.74866  -2.74803
 Alpha  occ. eigenvalues --   -2.73865  -2.73864  -1.20714  -1.11095  -1.03689
 Alpha  occ. eigenvalues --   -0.97509  -0.91651  -0.84189  -0.81511  -0.78642
 Alpha  occ. eigenvalues --   -0.72551  -0.64743  -0.63009  -0.59320  -0.57622
 Alpha  occ. eigenvalues --   -0.57248  -0.55984  -0.54015  -0.53864  -0.50773
 Alpha  occ. eigenvalues --   -0.49239  -0.48257  -0.47301  -0.45612  -0.44243
 Alpha  occ. eigenvalues --   -0.42155  -0.40550  -0.39225  -0.38039  -0.37256
 Alpha  occ. eigenvalues --   -0.35043  -0.28216
 Alpha virt. eigenvalues --    0.03067   0.05899   0.09988   0.11983   0.13447
 Alpha virt. eigenvalues --    0.14891   0.15598   0.16810   0.17119   0.17666
 Alpha virt. eigenvalues --    0.19246   0.19445   0.19854   0.21014   0.22477

 Mulliken charges:
               1
     1  C   -0.142833
     2  C    0.410592
     3  O   -0.477224
     4  C   -0.064881
     5  C   -0.268316
     6  H    0.152183
     7  H    0.148851
     8  H    0.151308
     9  N   -0.366814
    10  H    0.287079
    11  H    0.283031
    12  H    0.193660
    13  Br  -0.062358
    14  Cl  -0.158553
    15  O   -0.299002
    16  C   -0.190984
    17  H    0.141949
    18  H    0.131411
    19  H    0.130901
 Sum of Mulliken charges =  -0.00000

 Dipole moment (field-independent basis, Debye):
    X=              4.1841    Y=              3.5752    Z=              3.6444  Tot=              6.6007
 Quadrupole moment (field-independent basis, Debye-Ang):
   XX=            -66.5656   YY=            -79.2518   ZZ=            -75.1575
   XY=             10.5995   XZ=              2.3479   YZ=              7.0607

  Exact polarizability: 193.805   0.186 154.271  12.152  -1.733 123.446
 Approx polarizability: 142.217  -4.751 132.008   8.464  -4.557 108.485

 ******    1 imaginary frequencies (negative Signs) ******

                      1                      2                      3
                      A                      A                      A
 Frequencies --   -346.2889                35.2469                52.8180
 Red. masses --      6.7398                 4.3535                 4.8239
 Frc consts  --      0.4762                 0.0032                 0.0079
 IR Inten    --    919.7586                 4.1883                 5.2179

                      4                      5                      6
                      A                      A                      A
 Frequencies --     73.8103               101.6472               116.8952
 Red. masses --      2.3161                 3.7022                 4.2601
 Frc consts  --      0.0074                 0.0225                 0.0343
 IR Inten    --      5.3707                 1.3587                 1.3854

                      7                      8                      9
                      A                      A                      A
 Frequencies --    133.4373               157.5337               166.7715
 Red. masses --      2.6354                 1.6493                 1.3013
 Frc consts  --      0.0276                 0.0241                 0.0213
 IR Inten    --      3.7086                 9.4643                 1.9479

                     10                     11                     12
                      A                      A                      A
 Frequencies --    178.7428               209.2062               247.0452
 Red. masses --      3.2594                 6.2388                 4.5476
 Frc consts  --      0.0614                 0.1609                 0.1635
 IR Inten    --     27.8159                 1.8376                18.0540

                     13                     14                     15
                      A                      A                      A
 Frequencies --    285.0564               336.2251               426.2091
 Red. masses --      4.8815                 5.2377                 7.4891
 Frc consts  --      0.2337                 0.3489                 0.8015
 IR Inten    --     10.0682                41.5222                77.9421

                     16                     17                     18
                      A                      A                      A
 Frequencies --    462.8900               570.5556               627.2988
 Red. masses --     12.4633                 2.8864                 1.9537
 Frc consts  --      1.5734                 0.5536                 0.4530
 IR Inten    --     57.0025                 4.4314                 8.5203

                     19                     20                     21
                      A                      A                      A
 Frequencies --    748.7210               785.5334               806.2543
 Red. masses --      3.5545                10.9834                 5.6925
 Frc consts  --      1.1740                 3.9932                 2.1802
 IR Inten    --    185.0307                75.1332                37.4438

                     22                     23                     24
                      A                      A                      A
 Frequencies --    987.2363              1005.6130              1022.7940
 Red. masses --      2.7339                 1.2385                 1.1882
 Frc consts  --      1.5699                 0.7379                 0.7323
 IR Inten    --     20.2148                35.1320                95.0311

                     25                     26                     27
                      A                      A                      A
 Frequencies --   1071.5047              1079.5292              1114.4498
 Red. masses --      4.2898                 4.9760                 1.1331
 Frc consts  --      2.9019                 3.4166                 0.8291
 IR Inten    --    191.7310               166.2973                84.0453

                     28                     29                     30
                      A                      A                      A
 Frequencies --   1182.3045              1210.4307              1215.8405
 Red. masses --      1.2827                 1.4211                 1.4454
 Frc consts  --      1.0564                 1.2267                 1.2589
 IR Inten    --      1.8675                14.9855                 6.4598

                     31                     32                     33
                      A                      A                      A
 Frequencies --   1237.9407              1340.9303              1344.6067
 Red. masses --      2.0282                 1.7683                 1.7069
 Frc consts  --      1.8313                 1.8733                 1.8182
 IR Inten    --    563.4692               228.4828               197.0556

                     34                     35                     36
                      A                      A                      A
 Frequencies --   1442.1409              1463.2598              1481.9450
 Red. masses --      2.8936                 1.4680                 1.1627
 Frc consts  --      3.5457                 1.8519                 1.5045
 IR Inten    --    622.4364               171.1850               121.2550

                     37                     38                     39
                      A                      A                      A
 Frequencies --   1483.2251              1490.6864              1495.9393
 Red. masses --      1.1082                 1.0410                 1.1015
 Frc consts  --      1.4364                 1.3629                 1.4523
 IR Inten    --     78.4558                17.0182                20.3398

                     40                     41                     42
                      A                      A                      A
 Frequencies --   1501.7294              1644.9761              1712.1906
 Red. masses --      1.0365                 1.0883                11.1747
 Frc consts  --      1.3772                 1.7351                19.3014
 IR Inten    --     22.6129                53.7729               453.1533

                     43                     44                     45
                      A                      A                      A
 Frequencies --   3065.2869              3065.8121              3142.3043
 Red. masses --      1.0342                 1.0311                 1.1037
 Frc consts  --      5.7253                 5.7101                 6.4207
 IR Inten    --     77.3366                30.1896                16.2932

                     46                     47                     48
                      A                      A                      A
 Frequencies --   3142.8832              3165.6177              3177.8214
 Red. masses --      1.1069                 1.1056                 1.1056
 Frc consts  --      6.4422                 6.5280                 6.5781
 IR Inten    --     34.3053                14.1315                23.4758

                     49                     50                     51
                      A                      A                      A
 Frequencies --   3229.7790              3528.0860              3611.4442
 Red. masses --      1.0921                 1.0505                 1.0966
 Frc consts  --      6.7118                 7.7044                 8.4266
 IR Inten    --      1.0737                26.1533                47.1458

 - Thermochemistry -
 -------------------
 Temperature   298.150 Kelvin.  Pressure   1.00000 Atm.
 Atom     1 has atomic number  6 and mass  12.00000

 Molecular mass:   228.95052 amu.
 Principal axes and moments of inertia in atomic units:
                           1         2         3
     Eigenvalues --  1814.093323561.048104365.71192
           X            0.99407   0.10740   0.01710
           Y           -0.10764   0.99409   0.01380
           Z           -0.01552  -0.01556   0.99976
 This molecule is an asymmetric top.
 Rotational symmetry number  1.
 Warning -- assumption of classical behavior for rotation
           may cause significant error
 Rotational temperatures (Kelvin)      0.04775     0.02432     0.01984
 Rotational constants (GHZ):           0.99484     0.50680     0.41339
    1 imaginary frequencies ignored.
 Zero-point vibrational energy     377901.6 (Joules/Mol)
                                   90.32064 (Kcal/Mol)
 Warning -- explicit consideration of  16 degrees of freedom as
           vibrations may cause significant error
 Vibrational temperatures:     50.71    75.99   106.20   146.25   168.19
          (Kelvin)            191.99   226.66   239.95   257.17   301.00
                              355.44   410.13   483.75   613.22   666.00
                              820.90   902.54  1077.24  1130.21  1160.02
                             1420.41  1446.85  1471.57  1541.66  1553.20
                             1603.44  1701.07  1741.54  1749.32  1781.12
                             1929.30  1934.59  2074.92  2105.30  2132.19
                             2134.03  2144.77  2152.32  2160.65  2366.75
                             2463.46  4410.26  4411.02  4521.08  4521.91
                             4554.62  4572.18  4646.93  5076.13  5196.06

 Zero-point correction=                           0.143935 (Hartree/Particle)
 Thermal correction to Energy=                    0.156475
 Thermal correction to Enthalpy=                  0.157419
 Thermal correction to Gibbs Free Energy=         0.102516
 Sum of electronic and zero-point Energies=          -3435.419473
 Sum of electronic and thermal Energies=             -3435.406933
 Sum of electronic and thermal Enthalpies=           -3435.405989
 Sum of electronic and thermal Free Energies=        -3435.460892

                     E (Thermal)             CV                S
                      KCal/Mol        Cal/Mol-Kelvin    Cal/Mol-Kelvin
 Total                   98.189             40.783            115.552
 Electronic               0.000              0.000              0.000
 Translational            0.889              2.981             42.187
 Rotational               0.889              2.981             31.712
 Vibrational             96.412             34.821             41.654
 Vibration     1          0.594              1.982              5.510
 Vibration     2          0.596              1.976              4.709
 Vibration     3          0.599              1.966              4.049
 Vibration     4          0.604              1.948              3.422
 Vibration     5          0.608              1.935              3.151
 Vibration     6          0.613              1.920              2.896
 Vibration     7          0.621              1.894              2.579
 Vibration     8          0.624              1.883              2.472
 Vibration     9          0.629              1.868              2.342
 Vibration    10          0.642              1.827              2.051
 Vibration    11          0.661              1.768              1.752
 Vibration    12          0.683              1.701              1.503
 Vibration    13          0.717              1.603              1.230
 Vibration    14          0.788              1.413              0.871
 Vibration    15          0.821              1.332              0.758
 Vibration    16          0.927              1.095              0.503

 Optimization completed on the basis of negligible forces.
    -- Stationary point found.
 Normal termination of Gaussian 16 at Tue Mar  2 02:33:16 2021.
