 Gaussian 16, Revision A.03,
 Gaussian 16:  ES64L-G16RevA.03 25-Dec-2016

 ----------------------------------------------------------------------
 # wB97XD def2tzvp, opt=(ts, noeigen, calcfc, maxcycles=70, maxstep=3),
  freq=noraman, scrf=(iefpcm, solvent=water)
 ----------------------------------------------------------------------

 -----------------------
 3_iteration/TS-35-3.out
 -----------------------
 Symbolic Z-matrix:
 Charge =  0 Multiplicity = 1

 SCF Done:  E(RwB97XD) =  -1264.88097611     A.U. after   15 cycles
 SCF Done:  E(RwB97XD) =  -1264.88098412     A.U. after   11 cycles
 SCF Done:  E(RwB97XD) =  -1264.88098415     A.U. after    7 cycles
 Optimization completed.
    -- Stationary point found.
 Normal termination of Gaussian 16 at Mon Feb  1 01:35:46 2021.

 ---------------------------------------------------------------------
 #N Geom=AllCheck Guess=TCheck SCRF=Check GenChk RwB97XD/def2TZVP Freq
 ---------------------------------------------------------------------

 Structure from the checkpoint file:  "/beegfs/scratch/user/q/tla25/Gau-41873.chk"
 -----------------------
 3_iteration/TS-35-3.out
 -----------------------
 Charge =  0 Multiplicity = 1

                         Standard orientation:
 ---------------------------------------------------------------------
 Center     Atomic      Atomic             Coordinates (Angstroms)
 Number     Number       Type             X           Y           Z
 ---------------------------------------------------------------------
      1          6           0        0.507928   -1.363838   -0.414488
      2          6           0        1.842986   -1.847131   -0.215211
      3          8           0        2.642263   -1.263880    0.545863
      4          6           0        0.055938   -0.172687    0.202664
      5          6           0       -0.108038   -1.772654    2.544310
      6          1           0        0.063916   -2.510564    1.761570
      7          1           0        0.457570   -2.062334    3.429575
      8          1           0       -1.167716   -1.752340    2.784995
      9          7           0        0.332453   -0.469782    2.052722
     10          1           0        0.057095    0.283814    2.670484
     11          1           0        1.349479   -0.472508    1.965621
     12          6           0       -1.400843    0.191486    0.012099
     13          6           0       -2.340145    0.263539    1.029569
     14          6           0       -3.646252    0.659324    0.762291
     15          6           0       -4.028687    0.992567   -0.524386
     16          6           0       -3.091468    0.933853   -1.548749
     17          6           0       -1.793381    0.541696   -1.281058
     18          1           0       -2.081750    0.019328    2.048488
     19          1           0       -4.361936    0.705763    1.573199
     20          1           0       -5.045722    1.300322   -0.730685
     21          1           0       -3.372927    1.197452   -2.560384
     22          1           0       -1.067088    0.503584   -2.083398
     23          6           0        0.899360    1.088005    0.051045
     24          6           0        0.691922    2.189635    0.878321
     25          6           0        1.394694    3.368574    0.687220
     26          6           0        2.304582    3.475983   -0.353886
     27          6           0        2.493979    2.397033   -1.204162
     28          6           0        1.794450    1.217033   -1.005113
     29          1           0       -0.045067    2.151857    1.670664
     30          1           0        1.219356    4.208315    1.347533
     31          1           0        2.850868    4.397624   -0.508972
     32          1           0        3.188418    2.472328   -2.031501
     33          1           0        1.937971    0.384771   -1.680091
     34         17           0       -0.670739   -2.515036   -1.056506
     35          7           0        2.228667   -3.001631   -0.829529
     36          1           0        1.691972   -3.387806   -1.584467
     37          1           0        3.200046   -3.247562   -0.764094
 ---------------------------------------------------------------------

 SCF Done:  E(RwB97XD) =  -1264.88098415     A.U. after    1 cycles

 The electronic state is 1-A.
 Alpha  occ. eigenvalues -- -101.68586 -19.20151 -14.48656 -14.43666 -10.37977
 Alpha  occ. eigenvalues --  -10.36811 -10.31672 -10.31208 -10.30842 -10.30176
 Alpha  occ. eigenvalues --  -10.29626 -10.29475 -10.29349 -10.29325 -10.29267
 Alpha  occ. eigenvalues --  -10.29218 -10.29137 -10.29129 -10.29076 -10.29022
 Alpha  occ. eigenvalues --   -9.57112  -7.31729  -7.30920  -7.30885  -1.12571
 Alpha  occ. eigenvalues --   -1.04398  -0.99620  -0.98394  -0.96683  -0.94970
 Alpha  occ. eigenvalues --   -0.90079  -0.85684  -0.85397  -0.85273  -0.81801
 Alpha  occ. eigenvalues --   -0.79042  -0.75422  -0.71376  -0.70504  -0.70222
 Alpha  occ. eigenvalues --   -0.68519  -0.65405  -0.63261  -0.62752  -0.61540
 Alpha  occ. eigenvalues --   -0.58936  -0.57665  -0.56689  -0.56075  -0.54865
 Alpha  occ. eigenvalues --   -0.54532  -0.53868  -0.52743  -0.51761  -0.51436
 Alpha  occ. eigenvalues --   -0.51100  -0.50617  -0.49342  -0.48581  -0.47635
 Alpha  occ. eigenvalues --   -0.46916  -0.46536  -0.45238  -0.43938  -0.43172
 Alpha  occ. eigenvalues --   -0.42572  -0.42237  -0.41395  -0.39924  -0.35827
 Alpha  occ. eigenvalues --   -0.34742  -0.34155  -0.34101  -0.33374  -0.32008
 Alpha  occ. eigenvalues --   -0.26596
 Alpha virt. eigenvalues --    0.02572   0.04295   0.04977   0.05825   0.07710
 Alpha virt. eigenvalues --    0.10605   0.11861   0.12684   0.13520   0.13825
 Alpha virt. eigenvalues --    0.15197   0.15310   0.15722   0.16620   0.17067

 Mulliken charges:
               1
     1  C   -0.344066
     2  C    0.311294
     3  O   -0.569517
     4  C    0.474727
     5  C   -0.282483
     6  H    0.154392
     7  H    0.158141
     8  H    0.147793
     9  N   -0.328871
    10  H    0.277859
    11  H    0.285057
    12  C    0.147510
    13  C   -0.228214
    14  C   -0.165298
    15  C   -0.147092
    16  C   -0.119785
    17  C   -0.294846
    18  H    0.142176
    19  H    0.143308
    20  H    0.144710
    21  H    0.143451
    22  H    0.156838
    23  C    0.120059
    24  C   -0.252228
    25  C   -0.174095
    26  C   -0.136748
    27  C   -0.144299
    28  C   -0.244897
    29  H    0.157534
    30  H    0.142740
    31  H    0.144419
    32  H    0.141796
    33  H    0.164988
    34  Cl  -0.180005
    35  N   -0.477702
    36  H    0.265800
    37  H    0.265553
 Sum of Mulliken charges =  -0.00000

 Dipole moment (field-independent basis, Debye):
    X=             -2.2755    Y=              1.8047    Z=              3.2711  Tot=              4.3744
 Quadrupole moment (field-independent basis, Debye-Ang):
   XX=           -124.7634   YY=           -119.3529   ZZ=           -104.5179
   XY=             -3.0238   XZ=             -9.8282   YZ=              1.3777

  Exact polarizability: 316.861  -2.411 294.150 -23.048  16.286 291.132
 Approx polarizability: 252.121  -0.173 234.424 -17.066  14.245 253.705

 ******    1 imaginary frequencies (negative Signs) ******

                      1                      2                      3
                      A                      A                      A
 Frequencies --   -367.9561                40.4280                51.9034
 Red. masses --      4.9587                 3.7934                 3.7623
 Frc consts  --      0.3956                 0.0037                 0.0060
 IR Inten    --    507.5836                 1.2400                 0.5520

                      4                      5                      6
                      A                      A                      A
 Frequencies --     60.5876                70.2339                83.5959
 Red. masses --      4.9573                 8.0524                 4.5016
 Frc consts  --      0.0107                 0.0234                 0.0185
 IR Inten    --      0.1936                 2.5903                 4.9915

                      7                      8                      9
                      A                      A                      A
 Frequencies --     94.0972               127.8683               142.8607
 Red. masses --      5.2153                 2.6464                 1.6246
 Frc consts  --      0.0272                 0.0255                 0.0195
 IR Inten    --      1.3070                 5.5360                 6.8931

                     10                     11                     12
                      A                      A                      A
 Frequencies --    155.4929               165.7376               208.3823
 Red. masses --      5.3752                 2.4069                 3.7907
 Frc consts  --      0.0766                 0.0390                 0.0970
 IR Inten    --     11.3160                 7.6038                60.3768

                     13                     14                     15
                      A                      A                      A
 Frequencies --    231.5982               240.3416               245.3883
 Red. masses --      1.5912                 4.2371                 2.3746
 Frc consts  --      0.0503                 0.1442                 0.0842
 IR Inten    --    233.9538                36.1530                77.9935

                     16                     17                     18
                      A                      A                      A
 Frequencies --    263.0997               268.6544               304.2436
 Red. masses --      4.2104                 6.6963                 3.7956
 Frc consts  --      0.1717                 0.2848                 0.2070
 IR Inten    --      1.8791                 3.8901                12.9619

                     19                     20                     21
                      A                      A                      A
 Frequencies --    321.3106               339.8282               379.0479
 Red. masses --      4.3200                 5.4538                 4.4350
 Frc consts  --      0.2628                 0.3711                 0.3754
 IR Inten    --     15.4316                 2.7750                29.3527

                     22                     23                     24
                      A                      A                      A
 Frequencies --    421.6959               426.5793               462.7718
 Red. masses --      2.9069                 2.9300                 8.0350
 Frc consts  --      0.3046                 0.3141                 1.0138
 IR Inten    --      0.4444                 0.0701                10.3595

                     25                     26                     27
                      A                      A                      A
 Frequencies --    494.5550               527.1316               529.6555
 Red. masses --      3.6339                 1.1859                 3.0788
 Frc consts  --      0.5237                 0.1942                 0.5089
 IR Inten    --     10.2695                 8.3228                 0.5177

                     28                     29                     30
                      A                      A                      A
 Frequencies --    593.7341               613.2552               637.6948
 Red. masses --      3.1172                 4.0331                 6.3694
 Frc consts  --      0.6474                 0.8937                 1.5261
 IR Inten    --     44.7269               181.8995                 0.5126

                     31                     32                     33
                      A                      A                      A
 Frequencies --    641.1236               650.3373               694.0862
 Red. masses --      5.6889                 5.2455                 3.0710
 Frc consts  --      1.3777                 1.3071                 0.8717
 IR Inten    --     28.3800                33.6201                58.9204

                     34                     35                     36
                      A                      A                      A
 Frequencies --    708.0125               725.9610               729.0415
 Red. masses --      2.3517                 1.6850                 1.5150
 Frc consts  --      0.6946                 0.5232                 0.4744
 IR Inten    --     58.2904                79.5353               116.1205

                     37                     38                     39
                      A                      A                      A
 Frequencies --    777.9909               788.6507               796.7789
 Red. masses --      2.5301                 4.5992                 2.4184
 Frc consts  --      0.9023                 1.6854                 0.9046
 IR Inten    --     50.5777                39.8008                63.7670

                     40                     41                     42
                      A                      A                      A
 Frequencies --    870.6001               874.3933               878.4596
 Red. masses --      2.9528                 1.2625                 1.3879
 Frc consts  --      1.3186                 0.5687                 0.6310
 IR Inten    --     24.1172                 0.9604                 4.8088

                     43                     44                     45
                      A                      A                      A
 Frequencies --    922.9750               955.0189               966.1541
 Red. masses --      3.7498                 1.4972                 1.5089
 Frc consts  --      1.8821                 0.8045                 0.8299
 IR Inten    --      4.3364                 0.7482                 5.7093

                     46                     47                     48
                      A                      A                      A
 Frequencies --   1003.8058              1012.7487              1016.8147
 Red. masses --      1.1894                 1.3565                 1.3659
 Frc consts  --      0.7061                 0.8198                 0.8321
 IR Inten    --     68.3744                 6.9219                 5.8558

                     49                     50                     51
                      A                      A                      A
 Frequencies --   1026.2029              1027.2873              1030.1683
 Red. masses --      5.6515                 5.2173                 1.3137
 Frc consts  --      3.5065                 3.2440                 0.8214
 IR Inten    --      1.5551                 3.5423                 0.6010

                     52                     53                     54
                      A                      A                      A
 Frequencies --   1032.0379              1060.1986              1065.8343
 Red. masses --      1.3279                 3.5269                 2.3490
 Frc consts  --      0.8333                 2.3357                 1.5722
 IR Inten    --      1.5896                12.1165                10.3091

                     55                     56                     57
                      A                      A                      A
 Frequencies --   1072.3771              1081.2192              1094.2489
 Red. masses --      2.6642                 2.7841                 1.9072
 Frc consts  --      1.8052                 1.9176                 1.3455
 IR Inten    --     59.2407                 2.5394                41.8065

                     58                     59                     60
                      A                      A                      A
 Frequencies --   1114.6406              1122.7237              1125.9684
 Red. masses --      1.4015                 1.5710                 1.5710
 Frc consts  --      1.0259                 1.1667                 1.1735
 IR Inten    --     51.5357                 2.6673                34.5254

                     61                     62                     63
                      A                      A                      A
 Frequencies --   1179.3304              1184.2522              1186.0506
 Red. masses --      3.0239                 1.1287                 1.1691
 Frc consts  --      2.4780                 0.9326                 0.9690
 IR Inten    --     29.5973                 0.0875                 1.0527

                     64                     65                     66
                      A                      A                      A
 Frequencies --   1216.4060              1220.3323              1242.3694
 Red. masses --      1.1498                 1.1280                 1.4834
 Frc consts  --      1.0024                 0.9897                 1.3490
 IR Inten    --      4.9260                 1.8626                53.8721

                     67                     68                     69
                      A                      A                      A
 Frequencies --   1261.3219              1320.2388              1321.7089
 Red. masses --      3.4345                 4.7127                 4.3980
 Frc consts  --      3.2193                 4.8397                 4.5266
 IR Inten    --     27.7687                 8.3312                 2.7818

                     70                     71                     72
                      A                      A                      A
 Frequencies --   1355.7188              1364.9950              1371.8766
 Red. masses --      1.6578                 1.4704                 1.4114
 Frc consts  --      1.7952                 1.6142                 1.5651
 IR Inten    --     32.7354                 6.8655                 7.5157

                     73                     74                     75
                      A                      A                      A
 Frequencies --   1387.2998              1411.6246              1456.4371
 Red. masses --      2.5460                 4.9134                 1.2078
 Frc consts  --      2.8870                 5.7687                 1.5095
 IR Inten    --     21.9876              1194.5562                 9.5453

                     76                     77                     78
                      A                      A                      A
 Frequencies --   1487.9322              1490.5186              1493.1624
 Red. masses --      2.2052                 1.0497                 2.2226
 Frc consts  --      2.8765                 1.3740                 2.9196
 IR Inten    --      9.2155                15.6365                57.5644

                     79                     80                     81
                      A                      A                      A
 Frequencies --   1506.4739              1541.7394              1545.4564
 Red. masses --      1.0500                 2.2205                 2.3034
 Frc consts  --      1.4040                 3.1097                 3.2413
 IR Inten    --     17.7298                25.5868                10.1672

                     82                     83                     84
                      A                      A                      A
 Frequencies --   1587.0268              1620.8203              1647.4624
 Red. masses --      2.4125                 1.2065                 1.9020
 Frc consts  --      3.5800                 1.8675                 3.0415
 IR Inten    --    446.4046               415.2839                86.4459

                     85                     86                     87
                      A                      A                      A
 Frequencies --   1652.8492              1655.9300              1672.6230
 Red. masses --      5.2242                 4.2729                 5.9145
 Frc consts  --      8.4089                 6.9033                 9.7491
 IR Inten    --      0.6725                15.2517                 6.4339

                     88                     89                     90
                      A                      A                      A
 Frequencies --   1677.4686              3074.8082              3148.8237
 Red. masses --      5.9148                 1.0344                 1.1037
 Frc consts  --      9.8062                 5.7618                 6.4479
 IR Inten    --      1.8530                43.3640                 8.5890

                     91                     92                     93
                      A                      A                      A
 Frequencies --   3178.4042              3195.1883              3196.6685
 Red. masses --      1.1046                 1.0859                 1.0861
 Frc consts  --      6.5744                 6.5315                 6.5392
 IR Inten    --     18.8171                 3.7005                 1.3118

                     94                     95                     96
                      A                      A                      A
 Frequencies --   3201.4433              3203.9172              3210.7794
 Red. masses --      1.0886                 1.0891                 1.0929
 Frc consts  --      6.5739                 6.5868                 6.6380
 IR Inten    --      3.1120                 3.5324                27.9274

                     97                     98                     99
                      A                      A                      A
 Frequencies --   3212.6572              3221.5254              3223.0838
 Red. masses --      1.0938                 1.0965                 1.0981
 Frc consts  --      6.6517                 6.7049                 6.7208
 IR Inten    --     25.2591                24.7315                22.3372

                    100                    101                    102
                      A                      A                      A
 Frequencies --   3229.9877              3250.9054              3429.7364
 Red. masses --      1.0948                 1.0913                 1.0629
 Frc consts  --      6.7295                 6.7953                 7.3665
 IR Inten    --      9.8063                14.6550               101.4267

                    103                    104                    105
                      A                      A                      A
 Frequencies --   3586.9450              3627.2951              3753.6015
 Red. masses --      1.0852                 1.0453                 1.1046
 Frc consts  --      8.2264                 8.1036                 9.1700
 IR Inten    --     63.7167                87.6077                78.2595

 - Thermochemistry -
 -------------------
 Temperature   298.150 Kelvin.  Pressure   1.00000 Atm.
 Atom     1 has atomic number  6 and mass  12.00000

 Molecular mass:   288.10294 amu.
 Principal axes and moments of inertia in atomic units:
                           1         2         3
     Eigenvalues --  5052.105045481.397997839.67910
           X            0.99879  -0.04737  -0.01357
           Y            0.04708   0.99868  -0.02041
           Z            0.01451   0.01975   0.99970
 This molecule is an asymmetric top.
 Rotational symmetry number  1.
 Warning -- assumption of classical behavior for rotation
           may cause significant error
 Rotational temperatures (Kelvin)      0.01714     0.01580     0.01105
 Rotational constants (GHZ):           0.35723     0.32925     0.23021
    1 imaginary frequencies ignored.
 Zero-point vibrational energy     791765.3 (Joules/Mol)
                                  189.23646 (Kcal/Mol)
 Warning -- explicit consideration of  28 degrees of freedom as
           vibrations may cause significant error
 Vibrational temperatures:     58.17    74.68    87.17   101.05   120.28
          (Kelvin)            135.38   183.97   205.54   223.72   238.46
                              299.82   333.22   345.80   353.06   378.54
                              386.53   437.74   462.29   488.94   545.37
                              606.73   613.75   665.83   711.55   758.42
                              762.06   854.25   882.34   917.50   922.43
                              935.69   998.64  1018.67  1044.50  1048.93
                             1119.36  1134.69  1146.39  1252.60  1258.06
                             1263.91  1327.96  1374.06  1390.08  1444.25
                             1457.12  1462.97  1476.48  1478.04  1482.18
                             1484.87  1525.39  1533.50  1542.91  1555.63
                             1574.38  1603.72  1615.35  1620.02  1696.79
                             1703.87  1706.46  1750.14  1755.79  1787.49
                             1814.76  1899.53  1901.64  1950.58  1963.92
                             1973.82  1996.01  2031.01  2095.49  2140.80
                             2144.52  2148.33  2167.48  2218.22  2223.57
                             2283.38  2332.00  2370.33  2378.08  2382.51
                             2406.53  2413.50  4423.96  4530.46  4573.01
                             4597.16  4599.29  4606.16  4609.72  4619.60
                             4622.30  4635.06  4637.30  4647.23  4677.33
                             4934.63  5160.81  5218.87  5400.60

 Zero-point correction=                           0.301567 (Hartree/Particle)
 Thermal correction to Energy=                    0.320139
 Thermal correction to Enthalpy=                  0.321084
 Thermal correction to Gibbs Free Energy=         0.254676
 Sum of electronic and zero-point Energies=          -1264.579417
 Sum of electronic and thermal Energies=             -1264.560845
 Sum of electronic and thermal Enthalpies=           -1264.559900
 Sum of electronic and thermal Free Energies=        -1264.626308

                     E (Thermal)             CV                S
                      KCal/Mol        Cal/Mol-Kelvin    Cal/Mol-Kelvin
 Total                  200.891             71.113            139.766
 Electronic               0.000              0.000              0.000
 Translational            0.889              2.981             42.872
 Rotational               0.889              2.981             33.740
 Vibrational            199.113             65.151             63.155
 Vibration     1          0.594              1.981              5.238
 Vibration     2          0.596              1.977              4.744
 Vibration     3          0.597              1.973              4.438
 Vibration     4          0.598              1.968              4.147
 Vibration     5          0.600              1.960              3.805
 Vibration     6          0.603              1.953              3.573
 Vibration     7          0.611              1.925              2.978
 Vibration     8          0.616              1.910              2.765
 Vibration     9          0.620              1.897              2.604
 Vibration    10          0.624              1.885              2.483
 Vibration    11          0.642              1.828              2.058
 Vibration    12          0.653              1.793              1.867
 Vibration    13          0.657              1.779              1.800
 Vibration    14          0.660              1.770              1.763
 Vibration    15          0.670              1.740              1.641
 Vibration    16          0.673              1.731              1.605
 Vibration    17          0.695              1.666              1.393
 Vibration    18          0.707              1.633              1.303
 Vibration    19          0.720              1.596              1.213
 Vibration    20          0.749              1.515              1.043
 Vibration    21          0.784              1.423              0.886
 Vibration    22          0.788              1.412              0.870
 Vibration    23          0.820              1.333              0.758
 Vibration    24          0.850              1.262              0.672
 Vibration    25          0.882              1.190              0.594
 Vibration    26          0.885              1.184              0.588
 Vibration    27          0.951              1.045              0.461
 Vibration    28          0.973              1.004              0.427

 Optimization completed.
    -- Stationary point found.
 Normal termination of Gaussian 16 at Mon Feb  1 04:11:48 2021.
