 Gaussian 16, Revision A.03,
 Gaussian 16:  ES64L-G16RevA.03 25-Dec-2016

 ----------------------------------------------------------------------
 # wB97XD def2tzvp, opt=(ts, noeigen, calcfc, maxcycles=70, maxstep=8),
  freq=noraman, scrf=(iefpcm, solvent=water)
 ----------------------------------------------------------------------

 ------------------------
 0_iteration/TS-370-0.out
 ------------------------
 Symbolic Z-matrix:
 Charge =  0 Multiplicity = 1

 SCF Done:  E(RwB97XD) =  -786.711181406     A.U. after   15 cycles
 SCF Done:  E(RwB97XD) =  -786.710957392     A.U. after   12 cycles
 SCF Done:  E(RwB97XD) =  -786.711016803     A.U. after   12 cycles
 SCF Done:  E(RwB97XD) =  -786.711271001     A.U. after   12 cycles
 SCF Done:  E(RwB97XD) =  -786.711844622     A.U. after   14 cycles
 SCF Done:  E(RwB97XD) =  -786.712235271     A.U. after   14 cycles
 SCF Done:  E(RwB97XD) =  -786.712343984     A.U. after   12 cycles
 SCF Done:  E(RwB97XD) =  -786.712350619     A.U. after   11 cycles
 SCF Done:  E(RwB97XD) =  -786.712355372     A.U. after   10 cycles
 SCF Done:  E(RwB97XD) =  -786.712347245     A.U. after   11 cycles
 SCF Done:  E(RwB97XD) =  -786.712357384     A.U. after   11 cycles
 SCF Done:  E(RwB97XD) =  -786.712357731     A.U. after    8 cycles
 SCF Done:  E(RwB97XD) =  -786.712357889     A.U. after    8 cycles
 Optimization completed.
    -- Stationary point found.
 Normal termination of Gaussian 16 at Fri Feb 12 12:23:40 2021.

 ---------------------------------------------------------------------
 #N Geom=AllCheck Guess=TCheck SCRF=Check GenChk RwB97XD/def2TZVP Freq
 ---------------------------------------------------------------------

 Structure from the checkpoint file:  "/beegfs/scratch/user/q/tla25/Gau-78890.chk"
 ------------------------
 0_iteration/TS-370-0.out
 ------------------------
 Charge =  0 Multiplicity = 1

                         Standard orientation:
 ---------------------------------------------------------------------
 Center     Atomic      Atomic             Coordinates (Angstroms)
 Number     Number       Type             X           Y           Z
 ---------------------------------------------------------------------
      1          6           0        0.842391   -0.581694   -0.852208
      2          6           0        1.968466   -0.329850   -0.010304
      3          8           0        3.051634   -0.892074   -0.219331
      4          6           0       -0.450224   -0.090573   -0.806332
      5          6           0       -2.990288   -0.876215    0.387121
      6          1           0       -3.517435   -1.538323    1.074766
      7          1           0       -3.230038    0.156400    0.631178
      8          1           0       -3.318921   -1.086273   -0.629887
      9          7           0       -1.542274   -1.060626    0.464609
     10          1           0       -1.179943   -0.825594    1.381815
     11          1           0       -1.272762   -2.016669    0.263250
     12          1           0       -1.096521   -0.343624   -1.636049
     13         17           0       -0.830148    1.554103   -0.270495
     14          1           0        0.994450   -1.358014   -1.594504
     15          6           0        1.880844    0.630619    1.159697
     16          1           0        2.734598    0.459420    1.812797
     17          1           0        1.915689    1.660464    0.799403
     18          1           0        0.959098    0.519725    1.730201
 ---------------------------------------------------------------------

 SCF Done:  E(RwB97XD) =  -786.712357889     A.U. after    1 cycles

 The electronic state is 1-A.
 Alpha  occ. eigenvalues -- -101.70065 -19.20259 -14.48587 -10.39220 -10.35344
 Alpha  occ. eigenvalues --  -10.31933 -10.27088 -10.25444  -9.58661  -7.33292
 Alpha  occ. eigenvalues --   -7.32458  -7.32406  -1.10900  -1.04185  -0.96949
 Alpha  occ. eigenvalues --   -0.86154  -0.81879  -0.78942  -0.71767  -0.63397
 Alpha  occ. eigenvalues --   -0.60855  -0.57753  -0.55684  -0.54738  -0.53926
 Alpha  occ. eigenvalues --   -0.51460  -0.50005  -0.48269  -0.47723  -0.46507
 Alpha  occ. eigenvalues --   -0.44489  -0.42958  -0.39755  -0.38816  -0.32151
 Alpha  occ. eigenvalues --   -0.28286
 Alpha virt. eigenvalues --    0.04093   0.08912   0.10104   0.13122   0.14881
 Alpha virt. eigenvalues --    0.15114   0.15837   0.16932   0.19427   0.19498
 Alpha virt. eigenvalues --    0.20178   0.20286   0.21432   0.23262   0.24812

 Mulliken charges:
               1
     1  C   -0.390916
     2  C    0.273955
     3  O   -0.522857
     4  C    0.003396
     5  C   -0.272394
     6  H    0.154186
     7  H    0.149524
     8  H    0.151174
     9  N   -0.331072
    10  H    0.280504
    11  H    0.283184
    12  H    0.184434
    13  Cl  -0.113823
    14  H    0.129517
    15  C   -0.359036
    16  H    0.121273
    17  H    0.141932
    18  H    0.117018
 Sum of Mulliken charges =   0.00000

 Dipole moment (field-independent basis, Debye):
    X=            -10.5252    Y=             -1.5828    Z=              2.5197  Tot=             10.9377
 Quadrupole moment (field-independent basis, Debye-Ang):
   XX=            -68.9790   YY=            -54.6366   ZZ=            -53.0712
   XY=             13.7603   XZ=              1.9939   YZ=             -0.3950

  Exact polarizability: 176.365  -5.821 111.155  -5.033   4.481  99.024
 Approx polarizability: 128.720  -6.200  94.793  -4.076   3.564  85.324

 ******    1 imaginary frequencies (negative Signs) ******

                      1                      2                      3
                      A                      A                      A
 Frequencies --   -371.5612                43.9086                66.1448
 Red. masses --      6.3565                 2.7097                 2.3102
 Frc consts  --      0.5170                 0.0031                 0.0060
 IR Inten    --   1045.2024                 3.7244                 7.8485

                      4                      5                      6
                      A                      A                      A
 Frequencies --     83.8322               142.7202               174.3271
 Red. masses --      5.1946                 1.1195                 1.4956
 Frc consts  --      0.0215                 0.0134                 0.0268
 IR Inten    --     10.5557                 0.1487                 7.1010

                      7                      8                      9
                      A                      A                      A
 Frequencies --    182.0973               202.8199               302.0546
 Red. masses --      2.9072                 3.0472                 2.9293
 Frc consts  --      0.0568                 0.0739                 0.1575
 IR Inten    --      7.3317                 4.8531                 1.7238

                     10                     11                     12
                      A                      A                      A
 Frequencies --    329.1461               422.6372               514.8352
 Red. masses --      4.4947                 4.4699                 3.8850
 Frc consts  --      0.2869                 0.4704                 0.6067
 IR Inten    --      7.0675               193.2938                19.4209

                     13                     14                     15
                      A                      A                      A
 Frequencies --    579.0409               623.7429               670.9261
 Red. masses --      1.8350                 1.9248                 3.1317
 Frc consts  --      0.3625                 0.4412                 0.8306
 IR Inten    --      3.0891                 7.1702                73.4548

                     16                     17                     18
                      A                      A                      A
 Frequencies --    742.0555               751.9534               828.2297
 Red. masses --      2.6842                 1.5621                 3.2657
 Frc consts  --      0.8708                 0.5204                 1.3199
 IR Inten    --     54.2075               103.9685                46.8139

                     19                     20                     21
                      A                      A                      A
 Frequencies --    997.7480              1023.6318              1034.1228
 Red. masses --      1.1384                 1.4746                 1.1497
 Frc consts  --      0.6677                 0.9104                 0.7244
 IR Inten    --     48.2925                63.1326                55.1964

                     22                     23                     24
                      A                      A                      A
 Frequencies --   1040.2133              1071.9397              1158.2641
 Red. masses --      1.8279                 4.3556                 1.1074
 Frc consts  --      1.1653                 2.9488                 0.8753
 IR Inten    --     24.7850               182.0177               140.2218

                     25                     26                     27
                      A                      A                      A
 Frequencies --   1191.7709              1224.8220              1292.3692
 Red. masses --      1.3895                 1.4042                 1.5543
 Frc consts  --      1.1628                 1.2411                 1.5295
 IR Inten    --    133.5073                31.2653               359.8104

                     28                     29                     30
                      A                      A                      A
 Frequencies --   1338.8535              1367.0653              1395.9594
 Red. masses --      1.3262                 1.5082                 1.5868
 Frc consts  --      1.4006                 1.6607                 1.8219
 IR Inten    --      4.8954                80.9394               123.5498

                     31                     32                     33
                      A                      A                      A
 Frequencies --   1455.1386              1460.1154              1480.4241
 Red. masses --      1.1085                 1.1940                 1.1317
 Frc consts  --      1.3829                 1.4998                 1.4613
 IR Inten    --    174.6508                22.2010                62.7390

                     34                     35                     36
                      A                      A                      A
 Frequencies --   1491.7273              1493.3081              1505.2199
 Red. masses --      1.1228                 2.4755                 1.0334
 Frc consts  --      1.4721                 3.2524                 1.3795
 IR Inten    --     86.4698               577.1680                19.4512

                     37                     38                     39
                      A                      A                      A
 Frequencies --   1637.5767              1641.3798              3064.6835
 Red. masses --      2.0284                 1.8267                 1.0362
 Frc consts  --      3.2048                 2.8995                 5.7343
 IR Inten    --    691.9774               284.1318                 8.0970

                     40                     41                     42
                      A                      A                      A
 Frequencies --   3068.5312              3137.5344              3145.4114
 Red. masses --      1.0341                 1.0998                 1.1047
 Frc consts  --      5.7369                 6.3788                 6.4392
 IR Inten    --     50.1434                16.1631                16.0476

                     43                     44                     45
                      A                      A                      A
 Frequencies --   3160.3114              3170.1352              3174.3464
 Red. masses --      1.1042                 1.1050                 1.0861
 Frc consts  --      6.4978                 6.5428                 6.4478
 IR Inten    --     32.9814                11.6625                 7.0627

                     46                     47                     48
                      A                      A                      A
 Frequencies --   3208.3818              3520.1029              3604.4284
 Red. masses --      1.0933                 1.0509                 1.0968
 Frc consts  --      6.6310                 7.6721                 8.3955
 IR Inten    --      9.8015                22.1458                44.2253

 - Thermochemistry -
 -------------------
 Temperature   298.150 Kelvin.  Pressure   1.00000 Atm.
 Atom     1 has atomic number  6 and mass  12.00000

 Molecular mass:   135.04509 amu.
 Principal axes and moments of inertia in atomic units:
                           1         2         3
     Eigenvalues --   720.225161865.694722180.80473
           X            0.99852   0.05395   0.00719
           Y           -0.05420   0.99772   0.04016
           Z           -0.00501  -0.04049   0.99917
 This molecule is an asymmetric top.
 Rotational symmetry number  1.
 Warning -- assumption of classical behavior for rotation
           may cause significant error
 Rotational temperatures (Kelvin)      0.12026     0.04642     0.03972
 Rotational constants (GHZ):           2.50580     0.96733     0.82756
    1 imaginary frequencies ignored.
 Zero-point vibrational energy     390078.2 (Joules/Mol)
                                   93.23094 (Kcal/Mol)
 Warning -- explicit consideration of  12 degrees of freedom as
           vibrations may cause significant error
 Vibrational temperatures:     63.17    95.17   120.62   205.34   250.82
          (Kelvin)            262.00   291.81   434.59   473.57   608.08
                              740.73   833.11   897.43   965.31  1067.65
                             1081.89  1191.64  1435.54  1472.78  1487.87
                             1496.63  1542.28  1666.48  1714.69  1762.25
                             1859.43  1926.31  1966.90  2008.47  2093.62
                             2100.78  2130.00  2146.26  2148.54  2165.68
                             2356.11  2361.58  4409.40  4414.93  4514.21
                             4525.55  4546.98  4561.12  4567.18  4616.15
                             5064.64  5185.97

 Zero-point correction=                           0.148573 (Hartree/Particle)
 Thermal correction to Energy=                    0.158523
 Thermal correction to Enthalpy=                  0.159467
 Thermal correction to Gibbs Free Energy=         0.112137
 Sum of electronic and zero-point Energies=           -786.563785
 Sum of electronic and thermal Energies=              -786.553835
 Sum of electronic and thermal Enthalpies=            -786.552891
 Sum of electronic and thermal Free Energies=         -786.600221

                     E (Thermal)             CV                S
                      KCal/Mol        Cal/Mol-Kelvin    Cal/Mol-Kelvin
 Total                   99.475             33.743             99.614
 Electronic               0.000              0.000              0.000
 Translational            0.889              2.981             40.614
 Rotational               0.889              2.981             29.462
 Vibrational             97.697             27.781             29.538
 Vibration     1          0.595              1.980              5.074
 Vibration     2          0.598              1.970              4.265
 Vibration     3          0.601              1.960              3.799
 Vibration     4          0.616              1.910              2.767
 Vibration     5          0.627              1.874              2.388
 Vibration     6          0.630              1.864              2.307
 Vibration     7          0.639              1.836              2.107
 Vibration     8          0.694              1.670              1.405
 Vibration     9          0.712              1.617              1.264
 Vibration    10          0.785              1.421              0.883
 Vibration    11          0.870              1.217              0.622
 Vibration    12          0.936              1.077              0.487

 Optimization completed.
    -- Stationary point found.
 Normal termination of Gaussian 16 at Fri Feb 12 12:30:47 2021.
