 Gaussian 16, Revision A.03,
 Gaussian 16:  ES64L-G16RevA.03 25-Dec-2016

 ----------------------------------------------------------------------
 # wB97XD def2tzvp, opt=(ts, noeigen, calcfc, maxcycles=70, maxstep=3),
  freq=noraman, scrf=(iefpcm, solvent=water)
 ----------------------------------------------------------------------

 ------------------------
 0_iteration/TS-340-0.out
 ------------------------
 Symbolic Z-matrix:
 Charge =  0 Multiplicity = 1

 SCF Done:  E(RwB97XD) =  -3015.25395471     A.U. after   15 cycles
 SCF Done:  E(RwB97XD) =  -3015.25350083     A.U. after   12 cycles
 SCF Done:  E(RwB97XD) =  -3015.25309355     A.U. after   12 cycles
 SCF Done:  E(RwB97XD) =  -3015.25275114     A.U. after   12 cycles
 SCF Done:  E(RwB97XD) =  -3015.25248688     A.U. after   12 cycles
 SCF Done:  E(RwB97XD) =  -3015.25231324     A.U. after   12 cycles
 SCF Done:  E(RwB97XD) =  -3015.25224385     A.U. after   12 cycles
 SCF Done:  E(RwB97XD) =  -3015.25231836     A.U. after   12 cycles
 SCF Done:  E(RwB97XD) =  -3015.25259670     A.U. after   12 cycles
 SCF Done:  E(RwB97XD) =  -3015.25314414     A.U. after   12 cycles
 SCF Done:  E(RwB97XD) =  -3015.27385399     A.U. after   10 cycles
 SCF Done:  E(RwB97XD) =  -3015.27384220     A.U. after   10 cycles
 SCF Done:  E(RwB97XD) =  -3015.27383116     A.U. after   11 cycles
 SCF Done:  E(RwB97XD) =  -3015.27385045     A.U. after   10 cycles
 SCF Done:  E(RwB97XD) =  -3015.27384305     A.U. after   11 cycles
 SCF Done:  E(RwB97XD) =  -3015.27385370     A.U. after   11 cycles
 SCF Done:  E(RwB97XD) =  -3015.27385521     A.U. after   10 cycles
 SCF Done:  E(RwB97XD) =  -3015.27385536     A.U. after    8 cycles
 SCF Done:  E(RwB97XD) =  -3015.27385539     A.U. after    8 cycles
 Optimization completed.
    -- Stationary point found.
 Normal termination of Gaussian 16 at Tue Apr 13 14:06:58 2021.

 ---------------------------------------------------------------------
 #N Geom=AllCheck Guess=TCheck SCRF=Check GenChk RwB97XD/def2TZVP Freq
 ---------------------------------------------------------------------

 Structure from the checkpoint file:  "/beegfs/scratch/user/q/tla25/Gau-155489.chk"
 ------------------------
 0_iteration/TS-340-0.out
 ------------------------
 Charge =  0 Multiplicity = 1

                         Standard orientation:
 ---------------------------------------------------------------------
 Center     Atomic      Atomic             Coordinates (Angstroms)
 Number     Number       Type             X           Y           Z
 ---------------------------------------------------------------------
      1          6           0        0.585564    0.419761    0.794478
      2          6           0        1.412648   -0.297190   -0.135465
      3          8           0        1.054565   -0.796927   -1.193922
      4          6           0       -0.776451    0.471304    0.618384
      5          6           0       -0.541327    2.824294   -0.894431
      6          1           0       -0.598382    3.363461   -1.840291
      7          1           0       -0.955496    3.443483   -0.100510
      8          1           0        0.504645    2.614184   -0.667343
      9          7           0       -1.259146    1.560258   -0.942095
     10          1           0       -2.263000    1.678354   -1.006125
     11          1           0       -0.947750    0.977238   -1.710391
     12          1           0       -1.352648    1.042861    1.332075
     13         35           0       -1.841309   -1.084158    0.122232
     14          6           0        1.218108    1.252482    1.886305
     15          1           0        0.455099    1.812890    2.428423
     16          1           0        1.747401    0.631669    2.613669
     17          1           0        1.939911    1.973532    1.493782
     18          8           0        2.708043   -0.348809    0.256521
     19          6           0        3.612335   -0.988356   -0.633049
     20          1           0        4.591682   -0.913887   -0.166728
     21          1           0        3.347903   -2.036775   -0.774611
     22          1           0        3.624337   -0.491166   -1.603542
 ---------------------------------------------------------------------

 SCF Done:  E(RwB97XD) =  -3015.27385539     A.U. after    1 cycles

 The electronic state is 1-A.
 Alpha  occ. eigenvalues -- -483.12350 -62.67212 -56.46318 -56.45980 -56.45963
 Alpha  occ. eigenvalues --  -19.28162 -19.21369 -14.47782 -10.39422 -10.37609
 Alpha  occ. eigenvalues --  -10.32571 -10.31435 -10.27313 -10.26549  -8.81332
 Alpha  occ. eigenvalues --   -6.63455  -6.62382  -6.62325  -2.73845  -2.73547
 Alpha  occ. eigenvalues --   -2.73502  -2.72634  -2.72633  -1.19469  -1.09885
 Alpha  occ. eigenvalues --   -1.03293  -0.92557  -0.87079  -0.81424  -0.78522
 Alpha  occ. eigenvalues --   -0.76601  -0.70949  -0.64148  -0.62334  -0.57540
 Alpha  occ. eigenvalues --   -0.56744  -0.56363  -0.55730  -0.53437  -0.51993
 Alpha  occ. eigenvalues --   -0.50013  -0.49163  -0.47631  -0.46664  -0.46446
 Alpha  occ. eigenvalues --   -0.44808  -0.44001  -0.42707  -0.38418  -0.37216
 Alpha  occ. eigenvalues --   -0.36437  -0.34355  -0.27335
 Alpha virt. eigenvalues --    0.04611   0.06541   0.10610   0.12811   0.13686
 Alpha virt. eigenvalues --    0.15200   0.16128   0.16874   0.17675   0.18473
 Alpha virt. eigenvalues --    0.18678   0.19778   0.20488   0.20778   0.21598

 Mulliken charges:
               1
     1  C   -0.294806
     2  C    0.428981
     3  O   -0.504887
     4  C    0.012168
     5  C   -0.278456
     6  H    0.153749
     7  H    0.151686
     8  H    0.150996
     9  N   -0.353912
    10  H    0.285532
    11  H    0.281101
    12  H    0.186546
    13  Br  -0.135547
    14  C   -0.335231
    15  H    0.120060
    16  H    0.122015
    17  H    0.117189
    18  O   -0.301985
    19  C   -0.193225
    20  H    0.136925
    21  H    0.125659
    22  H    0.125443
 Sum of Mulliken charges =  -0.00000

 Dipole moment (field-independent basis, Debye):
    X=             -1.8870    Y=              6.2556    Z=             -0.8459  Tot=              6.5886
 Quadrupole moment (field-independent basis, Debye-Ang):
   XX=            -65.8139   YY=            -65.6842   ZZ=            -73.5661
   XY=             -8.4392   XZ=              1.1569   YZ=             -4.3722

  Exact polarizability: 182.173  -3.876 152.146  10.303   0.918 134.649
 Approx polarizability: 138.273  -1.159 122.381   8.290   3.408 116.592

 ******    1 imaginary frequencies (negative Signs) ******

                      1                      2                      3
                      A                      A                      A
 Frequencies --   -388.8636                49.1205                59.9754
 Red. masses --      5.8030                 3.3964                 4.1527
 Frc consts  --      0.5170                 0.0048                 0.0088
 IR Inten    --    767.5452                 5.6944                17.2924

                      4                      5                      6
                      A                      A                      A
 Frequencies --     79.5165               121.2670               131.3333
 Red. masses --      2.1076                 3.5065                 2.1295
 Frc consts  --      0.0079                 0.0304                 0.0216
 IR Inten    --     11.6843                 2.4294                 8.4073

                      7                      8                      9
                      A                      A                      A
 Frequencies --    144.3547               167.2392               170.9057
 Red. masses --      3.4198                 1.3432                 1.2647
 Frc consts  --      0.0420                 0.0221                 0.0218
 IR Inten    --      8.4481                 4.2727                 2.8805

                     10                     11                     12
                      A                      A                      A
 Frequencies --    184.4561               196.8552               248.2765
 Red. masses --      1.7470                 1.8524                 3.4376
 Frc consts  --      0.0350                 0.0423                 0.1248
 IR Inten    --      0.7874                 6.4005                19.2810

                     13                     14                     15
                      A                      A                      A
 Frequencies --    271.8127               318.5989               354.0017
 Red. masses --      3.6662                 3.6777                 4.7616
 Frc consts  --      0.1596                 0.2199                 0.3516
 IR Inten    --     16.8045                 3.2632                51.9726

                     16                     17                     18
                      A                      A                      A
 Frequencies --    432.0853               535.5050               558.2585
 Red. masses --      3.4701                 2.7118                 5.8372
 Frc consts  --      0.3817                 0.4582                 1.0718
 IR Inten    --     54.4299                 9.5228                37.1479

                     19                     20                     21
                      A                      A                      A
 Frequencies --    680.3476               728.9232               801.6585
 Red. masses --      1.8700                 3.9939                 7.9088
 Frc consts  --      0.5100                 1.2503                 2.9946
 IR Inten    --     45.0414                94.0023                76.3212

                     22                     23                     24
                      A                      A                      A
 Frequencies --    838.7971               980.7218              1009.9345
 Red. masses --      4.9492                 1.0990                 1.1084
 Frc consts  --      2.0516                 0.6228                 0.6661
 IR Inten    --     89.0982               103.2419                51.7921

                     25                     26                     27
                      A                      A                      A
 Frequencies --   1029.2480              1053.3589              1060.1700
 Red. masses --      1.3985                 1.7671                 2.6873
 Frc consts  --      0.8729                 1.1552                 1.7796
 IR Inten    --    186.7194                16.5194                31.7627

                     28                     29                     30
                      A                      A                      A
 Frequencies --   1087.9507              1106.9069              1161.2645
 Red. masses --      4.4464                 1.1877                 3.2256
 Frc consts  --      3.1008                 0.8574                 2.5629
 IR Inten    --     41.9525                31.2103               188.5411

                     31                     32                     33
                      A                      A                      A
 Frequencies --   1181.0948              1199.6242              1218.4682
 Red. masses --      1.2851                 1.4194                 1.5525
 Frc consts  --      1.0562                 1.2035                 1.3581
 IR Inten    --      2.0637                21.3885                77.2104

                     34                     35                     36
                      A                      A                      A
 Frequencies --   1237.2370              1342.3608              1360.9365
 Red. masses --      1.8595                 1.3296                 2.8143
 Frc consts  --      1.6771                 1.4116                 3.0711
 IR Inten    --    593.3948                 3.5196               261.7253

                     37                     38                     39
                      A                      A                      A
 Frequencies --   1421.8852              1448.0260              1471.3161
 Red. masses --      1.2791                 1.4301                 1.4530
 Frc consts  --      1.5236                 1.7668                 1.8532
 IR Inten    --     99.4950               170.5280               130.2239

                     40                     41                     42
                      A                      A                      A
 Frequencies --   1474.1103              1478.8851              1482.0892
 Red. masses --      1.1627                 1.1688                 1.0696
 Frc consts  --      1.4886                 1.5061                 1.3842
 IR Inten    --     50.4711                43.4103                20.9228

                     43                     44                     45
                      A                      A                      A
 Frequencies --   1490.7704              1494.6972              1503.8771
 Red. masses --      1.0406                 1.0588                 1.0394
 Frc consts  --      1.3626                 1.3937                 1.3850
 IR Inten    --     26.9887                 9.0217                 8.3067

                     46                     47                     48
                      A                      A                      A
 Frequencies --   1516.0152              1640.1179              1702.3054
 Red. masses --      1.4549                 1.1004                10.1969
 Frc consts  --      1.9701                 1.7441                17.4097
 IR Inten    --    346.8219                82.1026               482.9428

                     49                     50                     51
                      A                      A                      A
 Frequencies --   3034.9347              3059.8070              3062.5170
 Red. masses --      1.0366                 1.0311                 1.0329
 Frc consts  --      5.6252                 5.6875                 5.7075
 IR Inten    --     91.3958                60.9380                42.8066

                     52                     53                     54
                      A                      A                      A
 Frequencies --   3088.4518              3120.7821              3134.0012
 Red. masses --      1.1022                 1.1005                 1.1066
 Frc consts  --      6.1945                 6.3148                 6.4037
 IR Inten    --     48.1492                37.3675                39.8936

                     55                     56                     57
                      A                      A                      A
 Frequencies --   3137.7229              3158.1864              3169.5642
 Red. masses --      1.1045                 1.1053                 1.1050
 Frc consts  --      6.4070                 6.4956                 6.5408
 IR Inten    --     12.3300                18.9604                28.1050

                     58                     59                     60
                      A                      A                      A
 Frequencies --   3222.8939              3524.3837              3614.4828
 Red. masses --      1.0920                 1.0502                 1.0974
 Frc consts  --      6.6830                 7.6860                 8.4472
 IR Inten    --      4.3168                39.7630                59.3231

 - Thermochemistry -
 -------------------
 Temperature   298.150 Kelvin.  Pressure   1.00000 Atm.
 Atom     1 has atomic number  6 and mass  12.00000

 Molecular mass:   209.00514 amu.
 Principal axes and moments of inertia in atomic units:
                           1         2         3
     Eigenvalues --  1602.063792980.116013619.28538
           X            0.99653  -0.08290   0.00681
           Y            0.08282   0.99650   0.01161
           Z           -0.00775  -0.01100   0.99991
 This molecule is an asymmetric top.
 Rotational symmetry number  1.
 Warning -- assumption of classical behavior for rotation
           may cause significant error
 Rotational temperatures (Kelvin)      0.05406     0.02906     0.02393
 Rotational constants (GHZ):           1.12651     0.60559     0.49865
    1 imaginary frequencies ignored.
 Zero-point vibrational energy     475840.9 (Joules/Mol)
                                  113.72871 (Kcal/Mol)
 Warning -- explicit consideration of  17 degrees of freedom as
           vibrations may cause significant error
 Vibrational temperatures:     70.67    86.29   114.41   174.48   188.96
          (Kelvin)            207.69   240.62   245.90   265.39   283.23
                              357.21   391.08   458.39   509.33   621.67
                              770.47   803.21   978.87  1048.76  1153.41
                             1206.84  1411.04  1453.07  1480.86  1515.55
                             1525.35  1565.32  1592.59  1670.80  1699.33
                             1725.99  1753.10  1780.11  1931.36  1958.08
                             2045.78  2083.39  2116.90  2120.92  2127.79
                             2132.40  2144.89  2150.54  2163.74  2181.21
                             2359.76  2449.24  4366.59  4402.38  4406.28
                             4443.59  4490.11  4509.13  4514.48  4543.93
                             4560.30  4637.03  5070.80  5200.43

 Zero-point correction=                           0.181238 (Hartree/Particle)
 Thermal correction to Energy=                    0.194003
 Thermal correction to Enthalpy=                  0.194948
 Thermal correction to Gibbs Free Energy=         0.140725
 Sum of electronic and zero-point Energies=          -3015.092617
 Sum of electronic and thermal Energies=             -3015.079852
 Sum of electronic and thermal Enthalpies=           -3015.078908
 Sum of electronic and thermal Free Energies=        -3015.133130

                     E (Thermal)             CV                S
                      KCal/Mol        Cal/Mol-Kelvin    Cal/Mol-Kelvin
 Total                  121.739             42.860            114.120
 Electronic               0.000              0.000              0.000
 Translational            0.889              2.981             41.915
 Rotational               0.889              2.981             31.225
 Vibrational            119.962             36.899             40.980
 Vibration     1          0.595              1.978              4.852
 Vibration     2          0.597              1.973              4.458
 Vibration     3          0.600              1.963              3.903
 Vibration     4          0.609              1.931              3.080
 Vibration     5          0.612              1.922              2.926
 Vibration     6          0.616              1.909              2.745
 Vibration     7          0.624              1.883              2.466
 Vibration     8          0.626              1.878              2.426
 Vibration     9          0.631              1.861              2.283
 Vibration    10          0.636              1.844              2.162
 Vibration    11          0.662              1.766              1.743
 Vibration    12          0.675              1.725              1.585
 Vibration    13          0.705              1.638              1.317
 Vibration    14          0.730              1.567              1.148
 Vibration    15          0.793              1.400              0.852
 Vibration    16          0.891              1.171              0.575
 Vibration    17          0.914              1.122              0.527

 Optimization completed.
    -- Stationary point found.
 Normal termination of Gaussian 16 at Tue Apr 13 14:14:04 2021.
