 Gaussian 16, Revision A.03,
 Gaussian 16:  ES64L-G16RevA.03 25-Dec-2016

 ----------------------------------------------------------------------
 # wB97XD def2tzvp, opt=(ts, noeigen, calcfc, maxcycles=70, maxstep=8),
  freq=noraman, scrf=(iefpcm, solvent=water)
 ----------------------------------------------------------------------

 ------------------------
 0_iteration/TS-353-0.out
 ------------------------
 Symbolic Z-matrix:
 Charge =  0 Multiplicity = 1

 SCF Done:  E(RwB97XD) =  -3321.00629803     A.U. after   15 cycles
 SCF Done:  E(RwB97XD) =  -3321.00569056     A.U. after   12 cycles
 SCF Done:  E(RwB97XD) =  -3321.00532818     A.U. after   12 cycles
 SCF Done:  E(RwB97XD) =  -3321.00525171     A.U. after   12 cycles
 SCF Done:  E(RwB97XD) =  -3321.00565713     A.U. after   14 cycles
 SCF Done:  E(RwB97XD) =  -3321.00619890     A.U. after   14 cycles
 SCF Done:  E(RwB97XD) =  -3321.00648488     A.U. after   14 cycles
 SCF Done:  E(RwB97XD) =  -3321.00653907     A.U. after   11 cycles
 SCF Done:  E(RwB97XD) =  -3321.00654661     A.U. after   10 cycles
 SCF Done:  E(RwB97XD) =  -3321.00654672     A.U. after    8 cycles
 SCF Done:  E(RwB97XD) =  -3321.00654646     A.U. after    8 cycles
 SCF Done:  E(RwB97XD) =  -3321.00654669     A.U. after    8 cycles
 Optimization completed.
    -- Stationary point found.
 Normal termination of Gaussian 16 at Fri Feb 12 12:23:42 2021.

 ---------------------------------------------------------------------
 #N Geom=AllCheck Guess=TCheck SCRF=Check GenChk RwB97XD/def2TZVP Freq
 ---------------------------------------------------------------------

 Structure from the checkpoint file:  "/beegfs/scratch/user/q/tla25/Gau-29850.chk"
 ------------------------
 0_iteration/TS-353-0.out
 ------------------------
 Charge =  0 Multiplicity = 1

                         Standard orientation:
 ---------------------------------------------------------------------
 Center     Atomic      Atomic             Coordinates (Angstroms)
 Number     Number       Type             X           Y           Z
 ---------------------------------------------------------------------
      1          6           0       -1.167893   -0.071889   -0.139903
      2          6           0       -1.627536   -1.133107    0.688204
      3          8           0       -2.789435   -1.357999    1.001699
      4          6           0        0.141979    0.239089   -0.430417
      5          6           0        2.011587    2.370594    0.434339
      6          1           0        2.290155    3.144876    1.150693
      7          1           0        2.843662    1.677841    0.320175
      8          1           0        1.808382    2.838989   -0.527985
      9          7           0        0.828801    1.630126    0.862309
     10          1           0        0.977710    1.139861    1.736489
     11          1           0        0.025855    2.237658    0.976265
     12          1           0        0.356842    0.903510   -1.254283
     13         35           0        1.512147   -1.073132   -0.249762
     14         17           0       -2.355376    1.084567   -0.709929
     15          1           0       -0.821325   -1.795767    1.046009
 ---------------------------------------------------------------------

 SCF Done:  E(RwB97XD) =  -3321.00654669     A.U. after    1 cycles

 The electronic state is 1-A.
 Alpha  occ. eigenvalues -- -483.14661-101.69642 -62.69511 -56.48637 -56.48268
 Alpha  occ. eigenvalues --  -56.48252 -19.22564 -14.47976 -10.39874 -10.36251
 Alpha  occ. eigenvalues --  -10.32686 -10.31856  -9.58162  -8.83630  -7.32799
 Alpha  occ. eigenvalues --   -7.31945  -7.31936  -6.65823  -6.64640  -6.64587
 Alpha  occ. eigenvalues --   -2.76207  -2.75868  -2.75828  -2.74871  -2.74871
 Alpha  occ. eigenvalues --   -1.13025  -1.03504  -0.97971  -0.92660  -0.83396
 Alpha  occ. eigenvalues --   -0.78861  -0.75442  -0.63245  -0.62956  -0.59583
 Alpha  occ. eigenvalues --   -0.55698  -0.55387  -0.54148  -0.50961  -0.49512
 Alpha  occ. eigenvalues --   -0.48230  -0.47474  -0.45171  -0.42119  -0.40170
 Alpha  occ. eigenvalues --   -0.39189  -0.37687  -0.33711  -0.29074
 Alpha virt. eigenvalues --    0.01578   0.04894   0.10091   0.11346   0.13944
 Alpha virt. eigenvalues --    0.14595   0.15823   0.16339   0.18974   0.19392
 Alpha virt. eigenvalues --    0.19985   0.20485   0.23113   0.24221   0.26194

 Mulliken charges:
               1
     1  C   -0.018129
     2  C    0.073924
     3  O   -0.464505
     4  C   -0.058848
     5  C   -0.269073
     6  H    0.152048
     7  H    0.149596
     8  H    0.150920
     9  N   -0.383947
    10  H    0.285151
    11  H    0.281864
    12  H    0.198466
    13  Br  -0.041616
    14  Cl  -0.152669
    15  H    0.096817
 Sum of Mulliken charges =  -0.00000

 Dipole moment (field-independent basis, Debye):
    X=              9.0645    Y=              5.8697    Z=              0.9650  Tot=             10.8420
 Quadrupole moment (field-independent basis, Debye-Ang):
   XX=            -85.4188   YY=            -60.7099   ZZ=            -65.3154
   XY=             -1.6703   XZ=              6.2736   YZ=              5.1131

  Exact polarizability: 182.405  17.264 143.199  -1.184  -6.420  98.431
 Approx polarizability: 139.293   7.653 116.169  -1.242  -6.066  88.857

 ******    1 imaginary frequencies (negative Signs) ******

                      1                      2                      3
                      A                      A                      A
 Frequencies --   -343.2152                43.1575                66.6271
 Red. masses --      6.3558                 2.6559                 4.4732
 Frc consts  --      0.4411                 0.0029                 0.0117
 IR Inten    --   1012.4227                 0.8911                 2.8899

                      4                      5                      6
                      A                      A                      A
 Frequencies --    100.3234               151.2001               156.4714
 Red. masses --      3.4766                 4.6249                 1.6681
 Frc consts  --      0.0206                 0.0623                 0.0241
 IR Inten    --      9.9304                13.5456                 3.4996

                      7                      8                      9
                      A                      A                      A
 Frequencies --    186.6467               215.1847               261.5064
 Red. masses --      3.0682                 6.0320                 4.1784
 Frc consts  --      0.0630                 0.1646                 0.1684
 IR Inten    --      4.7101                 5.9980                 1.8255

                     10                     11                     12
                      A                      A                      A
 Frequencies --    280.2480               318.1560               472.8348
 Red. masses --      6.7983                 3.3819                 5.4968
 Frc consts  --      0.3146                 0.2017                 0.7241
 IR Inten    --      5.3692                34.6306               170.4236

                     13                     14                     15
                      A                      A                      A
 Frequencies --    592.7873               654.7840               708.5770
 Red. masses --      1.4693                 5.9621                 5.2617
 Frc consts  --      0.3042                 1.5061                 1.5565
 IR Inten    --     17.1304                68.8514                16.2077

                     16                     17                     18
                      A                      A                      A
 Frequencies --    755.8198               999.3921              1011.6551
 Red. masses --      4.0653                 1.0753                 1.1544
 Frc consts  --      1.3683                 0.6328                 0.6961
 IR Inten    --    178.0709                19.0797               128.8981

                     19                     20                     21
                      A                      A                      A
 Frequencies --   1016.2165              1071.2494              1105.1934
 Red. masses --      1.5565                 4.1563                 1.1800
 Frc consts  --      0.9471                 2.8102                 0.8492
 IR Inten    --      3.5917               215.7176               113.4359

                     22                     23                     24
                      A                      A                      A
 Frequencies --   1132.3471              1208.7350              1322.8555
 Red. masses --      1.8079                 1.4168                 1.6384
 Frc consts  --      1.3658                 1.2196                 1.6893
 IR Inten    --     39.3742                14.7088               136.2150

                     25                     26                     27
                      A                      A                      A
 Frequencies --   1343.1590              1387.2751              1461.3779
 Red. masses --      1.3298                 1.8569                 1.2219
 Frc consts  --      1.4135                 2.1055                 1.5374
 IR Inten    --      1.6667               427.2349                64.4606

                     28                     29                     30
                      A                      A                      A
 Frequencies --   1489.3018              1490.4970              1506.7259
 Red. masses --      2.6376                 1.0699                 1.0334
 Frc consts  --      3.4468                 1.4004                 1.3822
 IR Inten    --    509.8591                31.6454                18.8432

                     31                     32                     33
                      A                      A                      A
 Frequencies --   1642.7721              1694.5537              2980.8671
 Red. masses --      1.0891                 8.9378                 1.0830
 Frc consts  --      1.7317                15.1213                 5.6696
 IR Inten    --     63.7984              1034.4210                69.1990

                     34                     35                     36
                      A                      A                      A
 Frequencies --   3062.9311              3138.5074              3161.7923
 Red. masses --      1.0344                 1.1039                 1.1054
 Frc consts  --      5.7176                 6.4065                 6.5109
 IR Inten    --     56.3318                17.2180                14.6164

                     37                     38                     39
                      A                      A                      A
 Frequencies --   3226.7893              3526.4102              3611.0893
 Red. masses --      1.0931                 1.0504                 1.0967
 Frc consts  --      6.7056                 7.6960                 8.4256
 IR Inten    --      1.0664                26.2409                44.8966

 - Thermochemistry -
 -------------------
 Temperature   298.150 Kelvin.  Pressure   1.00000 Atm.
 Atom     1 has atomic number  6 and mass  12.00000

 Molecular mass:   198.93995 amu.
 Principal axes and moments of inertia in atomic units:
                           1         2         3
     Eigenvalues --  1340.237392484.420343342.25542
           X            0.99337   0.11457   0.00908
           Y           -0.11468   0.99332   0.01247
           Z           -0.00759  -0.01343   0.99988
 This molecule is an asymmetric top.
 Rotational symmetry number  1.
 Warning -- assumption of classical behavior for rotation
           may cause significant error
 Rotational temperatures (Kelvin)      0.06463     0.03486     0.02591
 Rotational constants (GHZ):           1.34658     0.72642     0.53998
    1 imaginary frequencies ignored.
 Zero-point vibrational energy     290429.5 (Joules/Mol)
                                   69.41431 (Kcal/Mol)
 Warning -- explicit consideration of  12 degrees of freedom as
           vibrations may cause significant error
 Vibrational temperatures:     62.09    95.86   144.34   217.54   225.13
          (Kelvin)            268.54   309.60   376.25   403.21   457.76
                              680.30   852.89   942.09  1019.48  1087.46
                             1437.90  1455.55  1462.11  1541.29  1590.13
                             1629.19  1739.10  1903.29  1932.51  1995.98
                             2102.60  2142.77  2144.49  2167.84  2363.58
                             2438.08  4288.80  4406.87  4515.61  4549.11
                             4642.63  5073.72  5195.55

 Zero-point correction=                           0.110619 (Hartree/Particle)
 Thermal correction to Energy=                    0.120535
 Thermal correction to Enthalpy=                  0.121479
 Thermal correction to Gibbs Free Energy=         0.072968
 Sum of electronic and zero-point Energies=          -3320.895928
 Sum of electronic and thermal Energies=             -3320.886012
 Sum of electronic and thermal Enthalpies=           -3320.885068
 Sum of electronic and thermal Free Energies=        -3320.933578

                     E (Thermal)             CV                S
                      KCal/Mol        Cal/Mol-Kelvin    Cal/Mol-Kelvin
 Total                   75.637             32.150            102.099
 Electronic               0.000              0.000              0.000
 Translational            0.889              2.981             41.768
 Rotational               0.889              2.981             30.788
 Vibrational             73.859             26.188             29.543
 Vibration     1          0.595              1.980              5.109
 Vibration     2          0.598              1.970              4.251
 Vibration     3          0.604              1.949              3.448
 Vibration     4          0.619              1.901              2.657
 Vibration     5          0.620              1.895              2.592
 Vibration     6          0.632              1.858              2.261
 Vibration     7          0.645              1.818              1.999
 Vibration     8          0.669              1.743              1.652
 Vibration     9          0.680              1.710              1.532
 Vibration    10          0.705              1.639              1.320
 Vibration    11          0.830              1.310              0.730
 Vibration    12          0.950              1.047              0.462

 Optimization completed.
    -- Stationary point found.
 Normal termination of Gaussian 16 at Fri Feb 12 12:30:40 2021.
