 Gaussian 16, Revision A.03,
 Gaussian 16:  ES64L-G16RevA.03 25-Dec-2016

 ----------------------------------------------------------------------
 # wB97XD def2tzvp, opt=(ts, noeigen, calcfc, maxcycles=70, maxstep=8),
  freq=noraman, scrf=(iefpcm, solvent=water)
 ----------------------------------------------------------------------

 ------------------------
 0_iteration/TS-382-0.out
 ------------------------
 Symbolic Z-matrix:
 Charge =  0 Multiplicity = 1

 SCF Done:  E(RwB97XD) =  -920.691718880     A.U. after   15 cycles
 SCF Done:  E(RwB97XD) =  -920.690296309     A.U. after   12 cycles
 SCF Done:  E(RwB97XD) =  -920.689213365     A.U. after   12 cycles
 SCF Done:  E(RwB97XD) =  -920.688501018     A.U. after   12 cycles
 SCF Done:  E(RwB97XD) =  -920.688179613     A.U. after   12 cycles
 SCF Done:  E(RwB97XD) =  -920.688683741     A.U. after   13 cycles
 SCF Done:  E(RwB97XD) =  -920.689697698     A.U. after   12 cycles
 SCF Done:  E(RwB97XD) =  -920.690334416     A.U. after   12 cycles
 SCF Done:  E(RwB97XD) =  -920.690705004     A.U. after   12 cycles
 SCF Done:  E(RwB97XD) =  -920.690738592     A.U. after   12 cycles
 SCF Done:  E(RwB97XD) =  -920.690760692     A.U. after   11 cycles
 SCF Done:  E(RwB97XD) =  -920.690743586     A.U. after   11 cycles
 SCF Done:  E(RwB97XD) =  -920.690768430     A.U. after   10 cycles
 SCF Done:  E(RwB97XD) =  -920.690769056     A.U. after    9 cycles
 SCF Done:  E(RwB97XD) =  -920.690769336     A.U. after    8 cycles
 SCF Done:  E(RwB97XD) =  -920.690769381     A.U. after    7 cycles
 SCF Done:  E(RwB97XD) =  -920.690769246     A.U. after    9 cycles
 SCF Done:  E(RwB97XD) =  -920.690769521     A.U. after    8 cycles
 Optimization completed.
    -- Stationary point found.
 Normal termination of Gaussian 16 at Fri Feb 12 16:54:12 2021.

 ---------------------------------------------------------------------
 #N Geom=AllCheck Guess=TCheck SCRF=Check GenChk RwB97XD/def2TZVP Freq
 ---------------------------------------------------------------------

 Structure from the checkpoint file:  "/beegfs/scratch/user/q/tla25/Gau-79130.chk"
 ------------------------
 0_iteration/TS-382-0.out
 ------------------------
 Charge =  0 Multiplicity = 1

                         Standard orientation:
 ---------------------------------------------------------------------
 Center     Atomic      Atomic             Coordinates (Angstroms)
 Number     Number       Type             X           Y           Z
 ---------------------------------------------------------------------
      1          6           0       -0.025407   -0.908270    0.734691
      2          6           0       -1.219847   -0.762779   -0.066668
      3          8           0       -1.779450   -1.744691   -0.579748
      4          6           0        1.130214   -0.123131    0.599355
      5          6           0        3.321014    0.006704   -1.114042
      6          1           0        3.704662   -0.278563   -2.092528
      7          1           0        3.404526    1.082956   -0.989181
      8          1           0        3.898465   -0.495145   -0.339915
      9          7           0        1.913113   -0.382098   -0.976815
     10          1           0        1.323774    0.094498   -1.652835
     11          1           0        1.794468   -1.379654   -1.122161
     12          1           0        1.963062   -0.435169    1.220819
     13         17           0        1.131778    1.674505    0.607133
     14          6           0        0.254403   -2.318913    1.217240
     15          1           0        1.016941   -2.318874    2.000214
     16          1           0       -0.647407   -2.768267    1.636692
     17          1           0        0.599567   -3.000056    0.427219
     18          7           0       -1.751109    0.506669   -0.289344
     19          6           0       -1.995240    1.388539    0.838861
     20          6           0       -2.776664    0.606790   -1.306325
     21          1           0       -1.343927    1.126189    1.666347
     22          1           0       -1.814901    2.430247    0.566358
     23          1           0       -3.038032    1.296338    1.171299
     24          1           0       -2.484968    0.048427   -2.192915
     25          1           0       -3.746696    0.224703   -0.963470
     26          1           0       -2.899029    1.657674   -1.574784
 ---------------------------------------------------------------------

 SCF Done:  E(RwB97XD) =  -920.690769521     A.U. after    1 cycles

 The electronic state is 1-A.
 Alpha  occ. eigenvalues -- -101.69131 -19.19221 -14.50841 -14.43635 -10.38857
 Alpha  occ. eigenvalues --  -10.36076 -10.32556 -10.29713 -10.29509 -10.26523
 Alpha  occ. eigenvalues --  -10.24609  -9.57743  -7.32359  -7.31545  -7.31496
 Alpha  occ. eigenvalues --   -1.11584  -1.06368  -1.01239  -0.95656  -0.87420
 Alpha  occ. eigenvalues --   -0.80581  -0.80123  -0.77748  -0.75489  -0.69384
 Alpha  occ. eigenvalues --   -0.64883  -0.61033  -0.59428  -0.56546  -0.55519
 Alpha  occ. eigenvalues --   -0.54989  -0.54186  -0.52558  -0.49901  -0.49470
 Alpha  occ. eigenvalues --   -0.48525  -0.47460  -0.47379  -0.46784  -0.45311
 Alpha  occ. eigenvalues --   -0.44471  -0.43957  -0.42646  -0.39241  -0.39028
 Alpha  occ. eigenvalues --   -0.33487  -0.30578  -0.25324
 Alpha virt. eigenvalues --    0.07852   0.08755   0.09844   0.12404   0.13661
 Alpha virt. eigenvalues --    0.13812   0.15749   0.16397   0.16620   0.17508
 Alpha virt. eigenvalues --    0.17969   0.18790   0.19169   0.19805   0.20399

 Mulliken charges:
               1
     1  C   -0.286686
     2  C    0.264249
     3  O   -0.538042
     4  C   -0.008720
     5  C   -0.282554
     6  H    0.163358
     7  H    0.155701
     8  H    0.158067
     9  N   -0.253784
    10  H    0.293190
    11  H    0.294017
    12  H    0.170545
    13  Cl  -0.145471
    14  C   -0.356135
    15  H    0.118517
    16  H    0.117965
    17  H    0.095021
    18  N   -0.161754
    19  C   -0.273473
    20  C   -0.284696
    21  H    0.140671
    22  H    0.132926
    23  H    0.114468
    24  H    0.130337
    25  H    0.113223
    26  H    0.129061
 Sum of Mulliken charges =  -0.00000

 Dipole moment (field-independent basis, Debye):
    X=              8.0854    Y=              2.4497    Z=             -2.8788  Tot=              8.9254
 Quadrupole moment (field-independent basis, Debye-Ang):
   XX=            -64.0899   YY=            -84.1806   ZZ=            -71.7261
   XY=            -14.0024   XZ=             -8.6789   YZ=             -1.9540

  Exact polarizability: 192.016   6.670 172.547  -2.491   1.163 141.335
 Approx polarizability: 142.254   6.107 141.951  -0.416   2.205 120.887

 ******    1 imaginary frequencies (negative Signs) ******

                      1                      2                      3
                      A                      A                      A
 Frequencies --   -347.3245                43.2429                78.6529
 Red. masses --      6.8396                 4.3252                 6.3641
 Frc consts  --      0.4861                 0.0048                 0.0232
 IR Inten    --    867.5378                13.4280                13.5980

                      4                      5                      6
                      A                      A                      A
 Frequencies --     87.9083                93.3177               134.1197
 Red. masses --      2.3480                 2.6436                 2.2868
 Frc consts  --      0.0107                 0.0136                 0.0242
 IR Inten    --      5.1088                 0.4813                 1.2524

                      7                      8                      9
                      A                      A                      A
 Frequencies --    153.2041               176.9725               191.4571
 Red. masses --      1.8153                 1.4978                 1.6318
 Frc consts  --      0.0251                 0.0276                 0.0352
 IR Inten    --      8.2362                 2.8523                 1.9368

                     10                     11                     12
                      A                      A                      A
 Frequencies --    199.3895               210.4067               222.7798
 Red. masses --      1.1024                 1.3682                 2.1660
 Frc consts  --      0.0258                 0.0357                 0.0633
 IR Inten    --      1.8563                 2.3785                16.2351

                     13                     14                     15
                      A                      A                      A
 Frequencies --    256.8267               289.3083               305.8186
 Red. masses --      3.9994                 2.0846                 2.6742
 Frc consts  --      0.1554                 0.1028                 0.1474
 IR Inten    --     31.6199                30.3280                 4.9983

                     16                     17                     18
                      A                      A                      A
 Frequencies --    359.7547               374.3112               415.2041
 Red. masses --      3.1554                 4.0643                 3.0061
 Frc consts  --      0.2406                 0.3355                 0.3053
 IR Inten    --      9.9966                26.5606                 9.1778

                     19                     20                     21
                      A                      A                      A
 Frequencies --    512.4882               523.2986               605.4501
 Red. masses --      4.4126                 5.1553                 4.7497
 Frc consts  --      0.6828                 0.8318                 1.0258
 IR Inten    --     37.6959               190.4511                 9.4030

                     22                     23                     24
                      A                      A                      A
 Frequencies --    676.7609               766.4262               816.1551
 Red. masses --      2.1022                 4.4655                 3.2512
 Frc consts  --      0.5673                 1.5455                 1.2759
 IR Inten    --     14.1066                11.8038                62.2442

                     25                     26                     27
                      A                      A                      A
 Frequencies --    821.2404               956.7935              1020.2834
 Red. masses --      2.9565                 3.3054                 1.5468
 Frc consts  --      1.1748                 1.7828                 0.9487
 IR Inten    --    167.0485                26.6389               147.8469

                     28                     29                     30
                      A                      A                      A
 Frequencies --   1036.0576              1053.8066              1064.7368
 Red. masses --      1.4119                 1.6807                 1.3397
 Frc consts  --      0.8930                 1.0997                 0.8948
 IR Inten    --     37.8525                 1.6941                22.1315

                     31                     32                     33
                      A                      A                      A
 Frequencies --   1079.9110              1085.0692              1118.5540
 Red. masses --      1.5631                 1.7241                 1.8883
 Frc consts  --      1.0740                 1.1960                 1.3920
 IR Inten    --    180.4421               102.6741                60.3858

                     34                     35                     36
                      A                      A                      A
 Frequencies --   1129.7283              1172.3210              1225.4744
 Red. masses --      1.2379                 1.4128                 1.1439
 Frc consts  --      0.9308                 1.1440                 1.0122
 IR Inten    --      3.8278                27.2391                37.3110

                     37                     38                     39
                      A                      A                      A
 Frequencies --   1229.9606              1276.8928              1281.1492
 Red. masses --      1.9629                 1.4441                 3.4073
 Frc consts  --      1.7496                 1.3873                 3.2950
 IR Inten    --    142.6716                45.9578                47.8005

                     40                     41                     42
                      A                      A                      A
 Frequencies --   1345.4272              1349.5746              1384.1885
 Red. masses --      1.6918                 1.3711                 4.4333
 Frc consts  --      1.8043                 1.4714                 5.0046
 IR Inten    --     18.7293                 8.8170               666.3463

                     43                     44                     45
                      A                      A                      A
 Frequencies --   1402.5580              1424.1439              1443.0897
 Red. masses --      1.8696                 1.4574                 1.1625
 Frc consts  --      2.1670                 1.7416                 1.4264
 IR Inten    --    260.3755               155.7031                 5.3417

                     46                     47                     48
                      A                      A                      A
 Frequencies --   1459.4471              1470.1391              1472.9904
 Red. masses --      1.1783                 1.0879                 1.0955
 Frc consts  --      1.4786                 1.3853                 1.4004
 IR Inten    --      6.7609                32.5298                36.0965

                     49                     50                     51
                      A                      A                      A
 Frequencies --   1474.1603              1484.3126              1493.4593
 Red. masses --      1.0906                 1.0925                 1.0396
 Frc consts  --      1.3964                 1.4181                 1.3662
 IR Inten    --      9.7023                34.9013                19.7701

                     52                     53                     54
                      A                      A                      A
 Frequencies --   1498.5543              1502.1185              1502.7524
 Red. masses --      1.0521                 1.0386                 1.0808
 Frc consts  --      1.3920                 1.3808                 1.4380
 IR Inten    --     15.1255                18.8256                51.9544

                     55                     56                     57
                      A                      A                      A
 Frequencies --   1521.4948              1611.2181              1639.6577
 Red. masses --      1.2206                 8.8562                 1.0845
 Frc consts  --      1.6648                13.5458                 1.7178
 IR Inten    --    169.9349               810.2991                57.5484

                     58                     59                     60
                      A                      A                      A
 Frequencies --   2985.6027              2994.9005              3005.7593
 Red. masses --      1.0562                 1.0540                 1.0517
 Frc consts  --      5.5471                 5.5699                 5.5984
 IR Inten    --    154.3560               123.8641               137.4323

                     61                     62                     63
                      A                      A                      A
 Frequencies --   3068.3870              3081.2611              3085.7314
 Red. masses --      1.0784                 1.0333                 1.0859
 Frc consts  --      5.9823                 5.7801                 6.0918
 IR Inten    --     61.3618                31.3482                80.0820

                     64                     65                     66
                      A                      A                      A
 Frequencies --   3092.8038              3113.4000              3156.3582
 Red. masses --      1.0869                 1.1011                 1.1003
 Frc consts  --      6.1255                 6.2882                 6.4586
 IR Inten    --     34.3431                41.1765                25.6572

                     67                     68                     69
                      A                      A                      A
 Frequencies --   3162.3509              3165.1260              3180.9988
 Red. masses --      1.0997                 1.0962                 1.0970
 Frc consts  --      6.4793                 6.4701                 6.5403
 IR Inten    --     20.5824                 6.8182                12.5932

                     70                     71                     72
                      A                      A                      A
 Frequencies --   3186.0544              3509.7155              3587.3877
 Red. masses --      1.1059                 1.0516                 1.0962
 Frc consts  --      6.6139                 7.6324                 8.3119
 IR Inten    --      6.1642                27.1885                59.9243

 - Thermochemistry -
 -------------------
 Temperature   298.150 Kelvin.  Pressure   1.00000 Atm.
 Atom     1 has atomic number  6 and mass  12.00000

 Molecular mass:   178.08729 amu.
 Principal axes and moments of inertia in atomic units:
                           1         2         3
     Eigenvalues --  1546.795152600.595933180.51190
           X            0.99700  -0.07639  -0.01242
           Y            0.07563   0.99574  -0.05276
           Z            0.01640   0.05166   0.99853
 This molecule is an asymmetric top.
 Rotational symmetry number  1.
 Warning -- assumption of classical behavior for rotation
           may cause significant error
 Rotational temperatures (Kelvin)      0.05600     0.03331     0.02723
 Rotational constants (GHZ):           1.16676     0.69397     0.56744
    1 imaginary frequencies ignored.
 Zero-point vibrational energy     585574.2 (Joules/Mol)
                                  139.95559 (Kcal/Mol)
 Warning -- explicit consideration of  20 degrees of freedom as
           vibrations may cause significant error
 Vibrational temperatures:     62.22   113.16   126.48   134.26   192.97
          (Kelvin)            220.43   254.62   275.46   286.88   302.73
                              320.53   369.52   416.25   440.00   517.61
                              538.55   597.39   737.36   752.91   871.11
                              973.71  1102.72  1174.27  1181.58  1376.61
                             1467.96  1490.66  1516.19  1531.92  1553.75
                             1561.17  1609.35  1625.43  1686.71  1763.18
                             1769.64  1837.16  1843.29  1935.77  1941.74
                             1991.54  2017.97  2049.03  2076.28  2099.82
                             2115.20  2119.30  2120.99  2135.59  2148.75
                             2156.09  2161.21  2162.13  2189.09  2318.18
                             2359.10  4295.62  4308.99  4324.62  4414.72
                             4433.25  4439.68  4449.85  4479.49  4541.30
                             4549.92  4553.91  4576.75  4584.02  5049.70
                             5161.45

 Zero-point correction=                           0.223033 (Hartree/Particle)
 Thermal correction to Energy=                    0.236796
 Thermal correction to Enthalpy=                  0.237740
 Thermal correction to Gibbs Free Energy=         0.182498
 Sum of electronic and zero-point Energies=           -920.467736
 Sum of electronic and thermal Energies=              -920.453974
 Sum of electronic and thermal Enthalpies=            -920.453030
 Sum of electronic and thermal Free Energies=         -920.508271

                     E (Thermal)             CV                S
                      KCal/Mol        Cal/Mol-Kelvin    Cal/Mol-Kelvin
 Total                  148.591             48.039            116.266
 Electronic               0.000              0.000              0.000
 Translational            0.889              2.981             41.438
 Rotational               0.889              2.981             30.926
 Vibrational            146.814             42.077             43.901
 Vibration     1          0.595              1.980              5.105
 Vibration     2          0.600              1.964              3.924
 Vibration     3          0.601              1.958              3.706
 Vibration     4          0.602              1.954              3.589
 Vibration     5          0.613              1.919              2.886
 Vibration     6          0.619              1.899              2.632
 Vibration     7          0.628              1.871              2.360
 Vibration     8          0.634              1.852              2.214
 Vibration     9          0.638              1.841              2.139
 Vibration    10          0.643              1.825              2.040
 Vibration    11          0.648              1.806              1.936
 Vibration    12          0.666              1.751              1.683
 Vibration    13          0.686              1.694              1.478
 Vibration    14          0.696              1.663              1.385
 Vibration    15          0.734              1.555              1.123
 Vibration    16          0.745              1.525              1.062
 Vibration    17          0.779              1.437              0.908
 Vibration    18          0.868              1.222              0.628
 Vibration    19          0.878              1.198              0.602
 Vibration    20          0.964              1.020              0.440

 Optimization completed.
    -- Stationary point found.
 Normal termination of Gaussian 16 at Fri Feb 12 17:20:53 2021.
