 Gaussian 16, Revision A.03,
 Gaussian 16:  ES64L-G16RevA.03 25-Dec-2016

 ----------------------------------------------------------------------
 # wB97XD def2tzvp, opt=(ts, noeigen, calcfc, maxcycles=70, maxstep=8),
  freq=noraman, scrf=(iefpcm, solvent=water)
 ----------------------------------------------------------------------

 ------------------------
 0_iteration/TS-323-0.out
 ------------------------
 Symbolic Z-matrix:
 Charge =  0 Multiplicity = 1

 SCF Done:  E(RwB97XD) =  -3147.84138844     A.U. after   14 cycles
 SCF Done:  E(RwB97XD) =  -3147.84049641     A.U. after   12 cycles
 SCF Done:  E(RwB97XD) =  -3147.83976311     A.U. after   12 cycles
 SCF Done:  E(RwB97XD) =  -3147.83911441     A.U. after   12 cycles
 SCF Done:  E(RwB97XD) =  -3147.83851654     A.U. after   12 cycles
 SCF Done:  E(RwB97XD) =  -3147.83805454     A.U. after   12 cycles
 SCF Done:  E(RwB97XD) =  -3147.83784876     A.U. after   12 cycles
 SCF Done:  E(RwB97XD) =  -3147.83801254     A.U. after   12 cycles
 SCF Done:  E(RwB97XD) =  -3147.83875434     A.U. after   12 cycles
 SCF Done:  E(RwB97XD) =  -3147.84015477     A.U. after   13 cycles
 SCF Done:  E(RwB97XD) =  -3147.84141409     A.U. after   11 cycles
 SCF Done:  E(RwB97XD) =  -3147.84142931     A.U. after   10 cycles
 SCF Done:  E(RwB97XD) =  -3147.84137419     A.U. after   11 cycles
 SCF Done:  E(RwB97XD) =  -3147.84142931     A.U. after   11 cycles
 SCF Done:  E(RwB97XD) =  -3147.84142952     A.U. after    9 cycles
 SCF Done:  E(RwB97XD) =  -3147.84141241     A.U. after   10 cycles
 SCF Done:  E(RwB97XD) =  -3147.84142959     A.U. after   11 cycles
 SCF Done:  E(RwB97XD) =  -3147.84142961     A.U. after    8 cycles
 SCF Done:  E(RwB97XD) =  -3147.84142963     A.U. after    6 cycles
 Optimization completed.
    -- Stationary point found.
 Normal termination of Gaussian 16 at Fri Feb 12 20:34:50 2021.

 ---------------------------------------------------------------------
 #N Geom=AllCheck Guess=TCheck SCRF=Check GenChk RwB97XD/def2TZVP Freq
 ---------------------------------------------------------------------

 Structure from the checkpoint file:  "/beegfs/scratch/user/q/tla25/Gau-24261.chk"
 ------------------------
 0_iteration/TS-323-0.out
 ------------------------
 Charge =  0 Multiplicity = 1

                         Standard orientation:
 ---------------------------------------------------------------------
 Center     Atomic      Atomic             Coordinates (Angstroms)
 Number     Number       Type             X           Y           Z
 ---------------------------------------------------------------------
      1          6           0       -0.096161    0.315718    0.243740
      2          6           0        0.330377    1.671813    0.588563
      3          8           0        1.390597    2.158532    0.175954
      4          6           0        0.830018   -0.592162   -0.205900
      5          6           0        0.394499    0.176111   -2.914425
      6          1           0        0.684884    0.733605   -3.806291
      7          1           0       -0.012008   -0.789389   -3.211926
      8          1           0       -0.380176    0.734815   -2.387804
      9          7           0        1.508001   -0.027352   -2.003956
     10          1           0        2.217088   -0.648516   -2.372226
     11          1           0        1.932395    0.849093   -1.718449
     12          1           0        0.485101   -1.567825   -0.514872
     13         35           0        2.580237   -0.802962    0.606830
     14          6           0       -1.526302   -0.074152    0.206320
     15          6           0       -2.508975    0.775375   -0.315664
     16          6           0       -3.839402    0.392173   -0.365011
     17          6           0       -4.226929   -0.860760    0.090941
     18          6           0       -3.267448   -1.718959    0.607322
     19          6           0       -1.939404   -1.325148    0.675116
     20          1           0       -2.223188    1.747546   -0.699163
     21          1           0       -4.575957    1.071458   -0.776399
     22          1           0       -5.265619   -1.162512    0.046734
     23          1           0       -3.554763   -2.696166    0.975701
     24          1           0       -1.208182   -1.994690    1.112334
     25          7           0       -0.481460    2.398136    1.396781
     26          1           0       -1.354874    2.037048    1.733076
     27          1           0       -0.265198    3.365405    1.556811
 ---------------------------------------------------------------------

 SCF Done:  E(RwB97XD) =  -3147.84142963     A.U. after    1 cycles

 The electronic state is 1-A.
 Alpha  occ. eigenvalues -- -483.12515 -62.67370 -56.46477 -56.46137 -56.46122
 Alpha  occ. eigenvalues --  -19.20598 -14.46808 -14.44221 -10.38363 -10.37597
 Alpha  occ. eigenvalues --  -10.31124 -10.30393 -10.28862 -10.28836 -10.28597
 Alpha  occ. eigenvalues --  -10.28573 -10.28559 -10.27101  -8.81485  -6.63611
 Alpha  occ. eigenvalues --   -6.62530  -6.62480  -2.74002  -2.73699  -2.73659
 Alpha  occ. eigenvalues --   -2.72784  -2.72784  -1.13070  -1.02468  -0.99907
 Alpha  occ. eigenvalues --   -0.96648  -0.92335  -0.87390  -0.84866  -0.81643
 Alpha  occ. eigenvalues --   -0.78050  -0.73797  -0.69944  -0.69643  -0.65357
 Alpha  occ. eigenvalues --   -0.62498  -0.61847  -0.60817  -0.56530  -0.56201
 Alpha  occ. eigenvalues --   -0.55012  -0.53007  -0.52616  -0.52224  -0.50717
 Alpha  occ. eigenvalues --   -0.50390  -0.48890  -0.47441  -0.47152  -0.46044
 Alpha  occ. eigenvalues --   -0.43924  -0.42841  -0.42410  -0.37596  -0.36310
 Alpha  occ. eigenvalues --   -0.35744  -0.34903  -0.33547  -0.33430  -0.26735
 Alpha virt. eigenvalues --    0.03089   0.05273   0.05958   0.07312   0.11108
 Alpha virt. eigenvalues --    0.12706   0.13804   0.14777   0.14934   0.16568
 Alpha virt. eigenvalues --    0.16897   0.17399   0.17744   0.18542   0.19032

 Mulliken charges:
               1
     1  C   -0.184476
     2  C    0.324500
     3  O   -0.528345
     4  C   -0.015724
     5  C   -0.271075
     6  H    0.147811
     7  H    0.147096
     8  H    0.140539
     9  N   -0.355355
    10  H    0.277734
    11  H    0.271977
    12  H    0.197728
    13  Br  -0.127831
    14  C    0.135750
    15  C   -0.288343
    16  C   -0.122382
    17  C   -0.163456
    18  C   -0.133481
    19  C   -0.279609
    20  H    0.159936
    21  H    0.140964
    22  H    0.142170
    23  H    0.140362
    24  H    0.152892
    25  N   -0.459514
    26  H    0.282714
    27  H    0.267418
 Sum of Mulliken charges =  -0.00000

 Dipole moment (field-independent basis, Debye):
    X=             -3.0214    Y=             -1.4029    Z=             -4.1164  Tot=              5.2955
 Quadrupole moment (field-independent basis, Debye-Ang):
   XX=            -95.1471   YY=            -91.8381   ZZ=            -85.1726
   XY=             -8.0046   XZ=             -9.2331   YZ=              2.8414

  Exact polarizability: 286.254  -3.247 211.289  -8.748  -6.881 191.127
 Approx polarizability: 215.854  -1.472 178.751  -4.459  -7.373 157.277

 ******    1 imaginary frequencies (negative Signs) ******

                      1                      2                      3
                      A                      A                      A
 Frequencies --   -392.6868                42.6155                56.1462
 Red. masses --      5.6620                 3.9406                 4.7450
 Frc consts  --      0.5144                 0.0042                 0.0088
 IR Inten    --    812.0599                 1.8750                13.1521

                      4                      5                      6
                      A                      A                      A
 Frequencies --     66.7528                85.6466                95.0387
 Red. masses --      2.8028                 4.4696                 3.2763
 Frc consts  --      0.0074                 0.0193                 0.0174
 IR Inten    --      0.3432                 2.1951                22.9906

                      7                      8                      9
                      A                      A                      A
 Frequencies --    112.5705               148.4744               155.3906
 Red. masses --      4.4654                 5.6472                 3.7124
 Frc consts  --      0.0333                 0.0733                 0.0528
 IR Inten    --      7.0704                 3.8343                 1.8594

                     10                     11                     12
                      A                      A                      A
 Frequencies --    186.2376               203.8810               225.9437
 Red. masses --      1.3302                 1.1616                 5.5256
 Frc consts  --      0.0272                 0.0284                 0.1662
 IR Inten    --     11.1260               316.4800                18.5136

                     13                     14                     15
                      A                      A                      A
 Frequencies --    259.2055               272.2285               318.1037
 Red. masses --      5.0015                 3.9554                 3.4470
 Frc consts  --      0.1980                 0.1727                 0.2055
 IR Inten    --     14.6391                25.4168                15.2141

                     16                     17                     18
                      A                      A                      A
 Frequencies --    394.9431               425.0052               460.1182
 Red. masses --      6.2463                 2.8783                 2.8142
 Frc consts  --      0.5740                 0.3063                 0.3510
 IR Inten    --     10.7554                 1.4634                30.3762

                     19                     20                     21
                      A                      A                      A
 Frequencies --    504.2524               542.2314               579.3777
 Red. masses --      3.0338                 2.6436                 1.3742
 Frc consts  --      0.4545                 0.4579                 0.2718
 IR Inten    --     16.6234                25.1437                16.4949

                     22                     23                     24
                      A                      A                      A
 Frequencies --    616.9956               638.6950               663.4532
 Red. masses --      2.3672                 5.6188                 2.9182
 Frc consts  --      0.5310                 1.3505                 0.7568
 IR Inten    --     22.8191                 7.2960               177.4890

                     25                     26                     27
                      A                      A                      A
 Frequencies --    711.3173               727.6642               774.8810
 Red. masses --      4.2744                 1.6033                 2.6735
 Frc consts  --      1.2742                 0.5002                 0.9458
 IR Inten    --     19.8089                82.7657                28.8862

                     28                     29                     30
                      A                      A                      A
 Frequencies --    804.6949               816.3677               875.3283
 Red. masses --      7.3748                 3.1311                 1.2466
 Frc consts  --      2.8136                 1.2295                 0.5628
 IR Inten    --     69.0134                59.8804                 1.5965

                     31                     32                     33
                      A                      A                      A
 Frequencies --    947.4281               959.1730               997.6687
 Red. masses --      1.4639                 1.1151                 2.1633
 Frc consts  --      0.7742                 0.6045                 1.2686
 IR Inten    --      2.0690               131.4519                 6.9441

                     34                     35                     36
                      A                      A                      A
 Frequencies --   1011.2260              1021.7444              1024.9594
 Red. masses --      1.3904                 2.6699                 1.5345
 Frc consts  --      0.8377                 1.6422                 0.9498
 IR Inten    --      0.0098                12.4490                 2.3065

                     37                     38                     39
                      A                      A                      A
 Frequencies --   1025.3986              1062.2206              1071.3044
 Red. masses --      1.4867                 1.5025                 1.4296
 Frc consts  --      0.9210                 0.9988                 0.9667
 IR Inten    --     34.2961                53.0396                38.3638

                     40                     41                     42
                      A                      A                      A
 Frequencies --   1091.3175              1093.6487              1115.0929
 Red. masses --      4.0517                 1.9104                 1.5433
 Frc consts  --      2.8431                 1.3463                 1.1307
 IR Inten    --     18.5718                 5.9917                16.8371

                     43                     44                     45
                      A                      A                      A
 Frequencies --   1182.3120              1188.2373              1212.8779
 Red. masses --      1.1262                 1.4229                 1.1260
 Frc consts  --      0.9276                 1.1837                 0.9760
 IR Inten    --      0.9350                18.3142                 2.7566

                     46                     47                     48
                      A                      A                      A
 Frequencies --   1249.7890              1289.7779              1312.0910
 Red. masses --      1.4499                 3.2148                 4.2351
 Frc consts  --      1.3343                 3.1509                 4.2958
 IR Inten    --     12.0280                 5.8117                66.6231

                     49                     50                     51
                      A                      A                      A
 Frequencies --   1345.2767              1359.9967              1397.2997
 Red. masses --      1.3271                 1.5525                 3.4355
 Frc consts  --      1.4150                 1.6919                 3.9520
 IR Inten    --      3.5477                65.0220               375.6675

                     52                     53                     54
                      A                      A                      A
 Frequencies --   1439.9490              1465.0802              1488.9399
 Red. masses --      2.1293                 1.7110                 1.0408
 Frc consts  --      2.6013                 2.1638                 1.3594
 IR Inten    --    482.2726               149.0107                13.9392

                     55                     56                     57
                      A                      A                      A
 Frequencies --   1496.6131              1503.9736              1540.2953
 Red. masses --      2.5494                 1.0509                 2.3187
 Frc consts  --      3.3644                 1.4005                 3.2412
 IR Inten    --    116.9914                10.9429                99.9005

                     58                     59                     60
                      A                      A                      A
 Frequencies --   1610.1358              1635.4023              1640.3409
 Red. masses --      1.3613                 1.2569                 3.9468
 Frc consts  --      2.0794                 1.9806                 6.2569
 IR Inten    --    271.2175               257.0636                10.8254

                     61                     62                     63
                      A                      A                      A
 Frequencies --   1664.8512              1675.5548              3058.1104
 Red. masses --      4.7404                 5.4691                 1.0336
 Frc consts  --      7.7414                 9.0465                 5.6954
 IR Inten    --    433.6543               252.4683                54.7058

                     64                     65                     66
                      A                      A                      A
 Frequencies --   3130.5714              3154.3415              3187.9183
 Red. masses --      1.1035                 1.1048                 1.0860
 Frc consts  --      6.3717                 6.4769                 6.5029
 IR Inten    --     13.7392                22.5438                11.9197

                     67                     68                     69
                      A                      A                      A
 Frequencies --   3191.0322              3201.4553              3207.4901
 Red. masses --      1.0879                 1.0911                 1.0950
 Frc consts  --      6.5268                 6.5889                 6.6372
 IR Inten    --      1.0527                 8.6391                44.7102

                     70                     71                     72
                      A                      A                      A
 Frequencies --   3220.0327              3233.5325              3510.9598
 Red. masses --      1.0987                 1.0920                 1.0515
 Frc consts  --      6.7117                 6.7273                 7.6366
 IR Inten    --     22.0474                 2.7919                44.9925

                     73                     74                     75
                      A                      A                      A
 Frequencies --   3612.4862              3629.5016              3758.1758
 Red. masses --      1.0964                 1.0453                 1.1055
 Frc consts  --      8.4299                 8.1130                 9.1996
 IR Inten    --     75.9077                90.6960                90.7846

 - Thermochemistry -
 -------------------
 Temperature   298.150 Kelvin.  Pressure   1.00000 Atm.
 Atom     1 has atomic number  6 and mass  12.00000

 Molecular mass:   256.02112 amu.
 Principal axes and moments of inertia in atomic units:
                           1         2         3
     Eigenvalues --  2276.585465810.523136084.15302
           X            0.99946   0.02406  -0.02221
           Y           -0.02289   0.99840   0.05173
           Z            0.02342  -0.05120   0.99841
 This molecule is an asymmetric top.
 Rotational symmetry number  1.
 Warning -- assumption of classical behavior for rotation
           may cause significant error
 Rotational temperatures (Kelvin)      0.03805     0.01491     0.01424
 Rotational constants (GHZ):           0.79274     0.31060     0.29663
    1 imaginary frequencies ignored.
 Zero-point vibrational energy     574082.8 (Joules/Mol)
                                  137.20908 (Kcal/Mol)
 Warning -- explicit consideration of  21 degrees of freedom as
           vibrations may cause significant error
 Vibrational temperatures:     61.31    80.78    96.04   123.23   136.74
          (Kelvin)            161.96   213.62   223.57   267.95   293.34
                              325.08   372.94   391.68   457.68   568.24
                              611.49   662.01   725.51   780.15   833.60
                              887.72   918.94   954.56  1023.43  1046.95
                             1114.88  1157.78  1174.57  1259.40  1363.14
                             1380.04  1435.42  1454.93  1470.06  1474.69
                             1475.32  1528.30  1541.37  1570.16  1573.52
                             1604.37  1701.08  1709.61  1745.06  1798.17
                             1855.70  1887.81  1935.55  1956.73  2010.40
                             2071.77  2107.92  2142.25  2153.29  2163.88
                             2216.14  2316.63  2352.98  2360.08  2395.35
                             2410.75  4399.94  4504.19  4538.39  4586.70
                             4591.18  4606.18  4614.86  4632.91  4652.33
                             5051.49  5197.56  5222.04  5407.18

 Zero-point correction=                           0.218657 (Hartree/Particle)
 Thermal correction to Energy=                    0.233364
 Thermal correction to Enthalpy=                  0.234308
 Thermal correction to Gibbs Free Energy=         0.175334
 Sum of electronic and zero-point Energies=          -3147.622773
 Sum of electronic and thermal Energies=             -3147.608065
 Sum of electronic and thermal Enthalpies=           -3147.607121
 Sum of electronic and thermal Free Energies=        -3147.666095

                     E (Thermal)             CV                S
                      KCal/Mol        Cal/Mol-Kelvin    Cal/Mol-Kelvin
 Total                  146.438             53.048            124.122
 Electronic               0.000              0.000              0.000
 Translational            0.889              2.981             42.520
 Rotational               0.889              2.981             32.754
 Vibrational            144.661             47.086             48.848
 Vibration     1          0.595              1.980              5.134
 Vibration     2          0.596              1.975              4.588
 Vibration     3          0.598              1.970              4.247
 Vibration     4          0.601              1.959              3.757
 Vibration     5          0.603              1.953              3.554
 Vibration     6          0.607              1.939              3.224
 Vibration     7          0.618              1.904              2.692
 Vibration     8          0.620              1.897              2.605
 Vibration     9          0.632              1.859              2.265
 Vibration    10          0.640              1.834              2.098
 Vibration    11          0.650              1.802              1.911
 Vibration    12          0.668              1.747              1.667
 Vibration    13          0.675              1.724              1.582
 Vibration    14          0.705              1.639              1.320
 Vibration    15          0.762              1.481              0.981
 Vibration    16          0.787              1.416              0.875
 Vibration    17          0.818              1.339              0.766
 Vibration    18          0.860              1.241              0.648
 Vibration    19          0.897              1.157              0.561
 Vibration    20          0.936              1.076              0.487
 Vibration    21          0.977              0.996              0.421

 Optimization completed.
    -- Stationary point found.
 Normal termination of Gaussian 16 at Fri Feb 12 21:19:33 2021.
