 Gaussian 16, Revision A.03,
 Gaussian 16:  ES64L-G16RevA.03 25-Dec-2016

 ----------------------------------------------------------------------
 # wB97XD def2tzvp, opt=(ts, noeigen, calcfc, maxcycles=70, maxstep=3),
  freq=noraman, scrf=(iefpcm, solvent=water)
 ----------------------------------------------------------------------

 ------------------------
 0_iteration/TS-343-0.out
 ------------------------
 Symbolic Z-matrix:
 Charge =  0 Multiplicity = 1

 SCF Done:  E(RwB97XD) =  -3187.14218588     A.U. after   14 cycles
 SCF Done:  E(RwB97XD) =  -3187.14214201     A.U. after   11 cycles
 SCF Done:  E(RwB97XD) =  -3187.14216835     A.U. after   10 cycles
 SCF Done:  E(RwB97XD) =  -3187.14225698     A.U. after   11 cycles
 SCF Done:  E(RwB97XD) =  -3187.14239430     A.U. after   11 cycles
 SCF Done:  E(RwB97XD) =  -3187.14257335     A.U. after   11 cycles
 SCF Done:  E(RwB97XD) =  -3187.14277226     A.U. after   12 cycles
 SCF Done:  E(RwB97XD) =  -3187.14298101     A.U. after   12 cycles
 SCF Done:  E(RwB97XD) =  -3187.14321151     A.U. after   11 cycles
 SCF Done:  E(RwB97XD) =  -3187.14349896     A.U. after   11 cycles
 SCF Done:  E(RwB97XD) =  -3187.14416524     A.U. after   10 cycles
 SCF Done:  E(RwB97XD) =  -3187.14416589     A.U. after    9 cycles
 SCF Done:  E(RwB97XD) =  -3187.14416370     A.U. after   12 cycles
 SCF Done:  E(RwB97XD) =  -3187.14416730     A.U. after   10 cycles
 SCF Done:  E(RwB97XD) =  -3187.14416764     A.U. after    8 cycles
 SCF Done:  E(RwB97XD) =  -3187.14415018     A.U. after   12 cycles
 SCF Done:  E(RwB97XD) =  -3187.14416770     A.U. after   12 cycles
 SCF Done:  E(RwB97XD) =  -3187.14416758     A.U. after   10 cycles
 SCF Done:  E(RwB97XD) =  -3187.14416770     A.U. after    8 cycles
 Optimization completed.
    -- Stationary point found.
 Normal termination of Gaussian 16 at Sat Mar 27 15:25:23 2021.

 ---------------------------------------------------------------------
 #N Geom=AllCheck Guess=TCheck SCRF=Check GenChk RwB97XD/def2TZVP Freq
 ---------------------------------------------------------------------

 Structure from the checkpoint file:  "/beegfs/scratch/user/q/tla25/Gau-73131.chk"
 ------------------------
 0_iteration/TS-343-0.out
 ------------------------
 Charge =  0 Multiplicity = 1

                         Standard orientation:
 ---------------------------------------------------------------------
 Center     Atomic      Atomic             Coordinates (Angstroms)
 Number     Number       Type             X           Y           Z
 ---------------------------------------------------------------------
      1          6           0        1.455131    1.197569   -0.619583
      2          6           0        0.008950    1.286192   -0.600200
      3          8           0       -0.577831    2.303003   -0.979342
      4          6           0        2.238978    0.170055   -0.143851
      5          6           0        2.396559    1.350609    2.330275
      6          1           0        2.295973    1.329652    3.414607
      7          1           0        3.372727    1.750414    2.062365
      8          1           0        1.624167    1.991261    1.906155
      9          7           0        2.252281    0.018078    1.755759
     10          1           0        3.006668   -0.603004    2.026528
     11          1           0        1.378625   -0.412741    2.036859
     12          1           0        3.307845    0.293153   -0.243206
     13         35           0        1.891029   -1.746373   -0.513001
     14          6           0        2.165810    2.460142   -1.057553
     15          1           0        3.247434    2.319051   -1.052780
     16          1           0        1.872762    2.749203   -2.069689
     17          1           0        1.939174    3.309166   -0.406126
     18          7           0       -0.698656    0.203957   -0.105484
     19          6           0       -2.080745    0.034339    0.006646
     20          6           0       -3.005670    1.079419   -0.028831
     21          6           0       -4.358305    0.808833    0.125981
     22          6           0       -4.817439   -0.484394    0.321851
     23          6           0       -3.897017   -1.523458    0.363993
     24          6           0       -2.546763   -1.269611    0.207219
     25          1           0       -0.174911   -0.647478    0.013094
     26          1           0       -2.660980    2.088879   -0.180132
     27          1           0       -5.061816    1.632044    0.094908
     28          1           0       -5.874777   -0.681429    0.441767
     29          1           0       -4.230868   -2.542166    0.517495
     30          1           0       -1.837710   -2.089387    0.240329
 ---------------------------------------------------------------------

 SCF Done:  E(RwB97XD) =  -3187.14416770     A.U. after    1 cycles

 The electronic state is 1-A.
 Alpha  occ. eigenvalues -- -483.13270 -62.68126 -56.47221 -56.46897 -56.46886
 Alpha  occ. eigenvalues --  -19.20235 -14.49405 -14.45869 -10.38445 -10.38073
 Alpha  occ. eigenvalues --  -10.33620 -10.31965 -10.28954 -10.28798 -10.28709
 Alpha  occ. eigenvalues --  -10.28148 -10.28073 -10.27036 -10.26548  -8.82235
 Alpha  occ. eigenvalues --   -6.64320  -6.63292  -6.63258  -2.74711  -2.74426
 Alpha  occ. eigenvalues --   -2.74398  -2.73568  -2.73566  -1.13130  -1.04748
 Alpha  occ. eigenvalues --   -1.03569  -0.95417  -0.92531  -0.86971  -0.84990
 Alpha  occ. eigenvalues --   -0.84285  -0.79301  -0.76771  -0.74389  -0.71467
 Alpha  occ. eigenvalues --   -0.68599  -0.65139  -0.63514  -0.62217  -0.58169
 Alpha  occ. eigenvalues --   -0.57799  -0.57187  -0.54821  -0.53262  -0.53018
 Alpha  occ. eigenvalues --   -0.51893  -0.51533  -0.50833  -0.49615  -0.48650
 Alpha  occ. eigenvalues --   -0.48018  -0.45887  -0.45752  -0.45117  -0.44430
 Alpha  occ. eigenvalues --   -0.43700  -0.42763  -0.39274  -0.37842  -0.37411
 Alpha  occ. eigenvalues --   -0.34043  -0.33361  -0.30257  -0.26665
 Alpha virt. eigenvalues --    0.03999   0.04484   0.05477   0.08037   0.10060
 Alpha virt. eigenvalues --    0.12577   0.13024   0.14054   0.15105   0.16445
 Alpha virt. eigenvalues --    0.16947   0.17245   0.17734   0.18133   0.18678

 Mulliken charges:
               1
     1  C   -0.200777
     2  C    0.339293
     3  O   -0.530055
     4  C   -0.097707
     5  C   -0.285414
     6  H    0.163580
     7  H    0.158516
     8  H    0.159087
     9  N   -0.304596
    10  H    0.294103
    11  H    0.283890
    12  H    0.197348
    13  Br  -0.146420
    14  C   -0.336470
    15  H    0.120410
    16  H    0.120239
    17  H    0.111867
    18  N   -0.252552
    19  C    0.283398
    20  C   -0.297146
    21  C   -0.104963
    22  C   -0.197140
    23  C   -0.107495
    24  C   -0.293764
    25  H    0.205053
    26  H    0.153598
    27  H    0.140344
    28  H    0.139628
    29  H    0.142152
    30  H    0.141994
 Sum of Mulliken charges =  -0.00000

 Dipole moment (field-independent basis, Debye):
    X=              6.7899    Y=             -3.8376    Z=              7.7173  Tot=             10.9721
 Quadrupole moment (field-independent basis, Debye-Ang):
   XX=            -85.7500   YY=           -109.8449   ZZ=            -98.6930
   XY=              6.7180   XZ=             10.5465   YZ=              4.7562

  Exact polarizability: 297.084  -5.310 268.339   5.455 -15.461 184.267
 Approx polarizability: 220.822  -6.441 220.326   3.060 -13.240 155.739

 ******    1 imaginary frequencies (negative Signs) ******

                      1                      2                      3
                      A                      A                      A
 Frequencies --   -414.3796                 7.2827                29.0205
 Red. masses --      5.8493                 3.8126                 4.7073
 Frc consts  --      0.5918                 0.0001                 0.0023
 IR Inten    --    814.4715                 0.8632                 6.5045

                      4                      5                      6
                      A                      A                      A
 Frequencies --     63.9889                71.1833                76.4578
 Red. masses --      3.7673                 6.7130                 3.5261
 Frc consts  --      0.0091                 0.0200                 0.0121
 IR Inten    --      1.0137                10.4339                 3.0372

                      7                      8                      9
                      A                      A                      A
 Frequencies --     98.7232               137.6006               153.5100
 Red. masses --      2.7429                 2.7912                 1.1073
 Frc consts  --      0.0158                 0.0311                 0.0154
 IR Inten    --     28.3091                 2.4376                 3.1036

                     10                     11                     12
                      A                      A                      A
 Frequencies --    164.4812               181.1976               195.0163
 Red. masses --      3.9116                 1.4806                 3.0224
 Frc consts  --      0.0623                 0.0286                 0.0677
 IR Inten    --      6.9963                 1.7180                 5.6520

                     13                     14                     15
                      A                      A                      A
 Frequencies --    244.7798               261.1787               295.2702
 Red. masses --      4.6619                 6.2801                 3.2887
 Frc consts  --      0.1646                 0.2524                 0.1689
 IR Inten    --      5.9427                20.3361                 4.2780

                     16                     17                     18
                      A                      A                      A
 Frequencies --    317.0176               352.3534               386.8483
 Red. masses --      3.3948                 5.8239                 6.2304
 Frc consts  --      0.2010                 0.4260                 0.5493
 IR Inten    --     13.3341                31.9263                37.5806

                     19                     20                     21
                      A                      A                      A
 Frequencies --    423.1825               475.4643               526.9037
 Red. masses --      2.9733                 3.2633                 2.6703
 Frc consts  --      0.3137                 0.4346                 0.4368
 IR Inten    --      0.2158                46.5315                49.3626

                     22                     23                     24
                      A                      A                      A
 Frequencies --    563.7787               594.9666               605.3341
 Red. masses --      1.2239                 2.9496                 5.1553
 Frc consts  --      0.2292                 0.6152                 1.1130
 IR Inten    --     85.0249                44.3470                66.2462

                     25                     26                     27
                      A                      A                      A
 Frequencies --    637.2362               702.9840               717.7289
 Red. masses --      5.7605                 4.4510                 1.8731
 Frc consts  --      1.3782                 1.2960                 0.5685
 IR Inten    --      4.3165               197.8196                56.1083

                     28                     29                     30
                      A                      A                      A
 Frequencies --    728.2829               780.3014               783.5578
 Red. masses --      1.8460                 4.8072                 2.1153
 Frc consts  --      0.5769                 1.7245                 0.7652
 IR Inten    --     21.7457                12.4042               131.3778

                     31                     32                     33
                      A                      A                      A
 Frequencies --    857.4874               860.3456               924.2226
 Red. masses --      3.1874                 1.4810                 2.5502
 Frc consts  --      1.3809                 0.6459                 1.2835
 IR Inten    --      3.8688                 1.0047                42.2335

                     34                     35                     36
                      A                      A                      A
 Frequencies --    935.7409              1000.3130              1000.4612
 Red. masses --      2.2132                 1.2257                 1.2465
 Frc consts  --      1.1418                 0.7226                 0.7351
 IR Inten    --     15.7202                30.8410                21.0630

                     37                     38                     39
                      A                      A                      A
 Frequencies --   1016.1886              1019.5355              1024.5964
 Red. masses --      1.2952                 4.9685                 1.4077
 Frc consts  --      0.7880                 3.0428                 0.8707
 IR Inten    --      1.3851                 9.0495               100.3193

                     40                     41                     42
                      A                      A                      A
 Frequencies --   1028.4220              1056.1561              1059.4799
 Red. masses --      1.1570                 1.3210                 2.0700
 Frc consts  --      0.7210                 0.8682                 1.3690
 IR Inten    --     93.8129                17.9254                 5.6524

                     43                     44                     45
                      A                      A                      A
 Frequencies --   1082.5191              1108.4729              1126.1910
 Red. masses --      4.9632                 1.8955                 1.6297
 Frc consts  --      3.4268                 1.3722                 1.2178
 IR Inten    --     50.5103                53.2616                73.0261

                     46                     47                     48
                      A                      A                      A
 Frequencies --   1130.5847              1180.9755              1204.7118
 Red. masses --      1.4337                 1.1214                 1.1411
 Frc consts  --      1.0797                 0.9215                 0.9758
 IR Inten    --     28.0679                 3.8531                29.0466

                     49                     50                     51
                      A                      A                      A
 Frequencies --   1223.7033              1232.3474              1279.5806
 Red. masses --      1.4209                 1.4514                 2.7494
 Frc consts  --      1.2536                 1.2987                 2.6523
 IR Inten    --     40.7783               283.9483               167.6153

                     52                     53                     54
                      A                      A                      A
 Frequencies --   1338.8032              1343.4526              1357.1029
 Red. masses --      2.5316                 1.3350                 2.2388
 Frc consts  --      2.6735                 1.4196                 2.4294
 IR Inten    --    122.3330                14.0402               138.4832

                     55                     56                     57
                      A                      A                      A
 Frequencies --   1372.3473              1415.6066              1445.7637
 Red. masses --      2.2971                 1.3404                 1.5986
 Frc consts  --      2.5490                 1.5827                 1.9688
 IR Inten    --    382.1928                69.7945               270.8437

                     58                     59                     60
                      A                      A                      A
 Frequencies --   1464.8512              1467.3551              1479.2195
 Red. masses --      1.0558                 1.4175                 2.1511
 Frc consts  --      1.3348                 1.7982                 2.7732
 IR Inten    --     12.6053               121.8066               206.1568

                     61                     62                     63
                      A                      A                      A
 Frequencies --   1492.9559              1500.8291              1509.7244
 Red. masses --      1.0459                 1.0421                 1.3693
 Frc consts  --      1.3736                 1.3830                 1.8389
 IR Inten    --     53.9768                15.8903               306.4004

                     64                     65                     66
                      A                      A                      A
 Frequencies --   1544.8900              1572.3909              1642.1133
 Red. masses --      2.4728                 2.1283                 1.0948
 Frc consts  --      3.4772                 3.1003                 1.7394
 IR Inten    --    239.7068               470.4592                89.3768

                     67                     68                     69
                      A                      A                      A
 Frequencies --   1656.5824              1670.8245              1679.8139
 Red. masses --      7.3706                 3.7684                 5.4040
 Frc consts  --     11.9174                 6.1982                 8.9844
 IR Inten    --    321.9038               128.9742               638.0777

                     70                     71                     72
                      A                      A                      A
 Frequencies --   3029.4539              3072.8657              3082.4535
 Red. masses --      1.0382                 1.0324                 1.1006
 Frc consts  --      5.6137                 5.7437                 6.1616
 IR Inten    --    102.7163                30.5168                53.1909

                     73                     74                     75
                      A                      A                      A
 Frequencies --   3121.6868              3155.9931              3166.4805
 Red. masses --      1.1002                 1.1053                 1.1063
 Frc consts  --      6.3168                 6.4865                 6.5353
 IR Inten    --     38.3003                 8.2892                14.3963

                     76                     77                     78
                      A                      A                      A
 Frequencies --   3184.0917              3194.9865              3204.7345
 Red. masses --      1.0883                 1.0881                 1.0930
 Frc consts  --      6.5006                 6.5442                 6.6137
 IR Inten    --     14.3739                 3.5610                29.8296

                     79                     80                     81
                      A                      A                      A
 Frequencies --   3220.3442              3220.4557              3267.4026
 Red. masses --      1.0925                 1.0972                 1.0926
 Frc consts  --      6.6751                 6.7049                 6.8725
 IR Inten    --      9.7594                17.0919                 3.2217

                     82                     83                     84
                      A                      A                      A
 Frequencies --   3520.0432              3604.1195              3619.1672
 Red. masses --      1.0505                 1.0969                 1.0763
 Frc consts  --      7.6688                 8.3948                 8.3058
 IR Inten    --     47.9022                55.0677               179.5817

 - Thermochemistry -
 -------------------
 Temperature   298.150 Kelvin.  Pressure   1.00000 Atm.
 Atom     1 has atomic number  6 and mass  12.00000

 Molecular mass:   270.03677 amu.
 Principal axes and moments of inertia in atomic units:
                           1         2         3
     Eigenvalues --  2786.256646637.698667967.82023
           X            0.99820   0.05846   0.01325
           Y           -0.05818   0.99809  -0.02098
           Z           -0.01445   0.02017   0.99969
 This molecule is an asymmetric top.
 Rotational symmetry number  1.
 Warning -- assumption of classical behavior for rotation
           may cause significant error
 Rotational temperatures (Kelvin)      0.03109     0.01305     0.01087
 Rotational constants (GHZ):           0.64773     0.27189     0.22650
    1 imaginary frequencies ignored.
 Zero-point vibrational energy     649252.7 (Joules/Mol)
                                  155.17511 (Kcal/Mol)
 Warning -- explicit consideration of  23 degrees of freedom as
           vibrations may cause significant error
 Vibrational temperatures:     10.48    41.75    92.07   102.42   110.01
          (Kelvin)            142.04   197.98   220.87   236.65   260.70
                              280.58   352.18   375.78   424.83   456.12
                              506.96   556.59   608.87   684.09   758.10
                              811.15   856.02   870.94   916.84  1011.44
                             1032.65  1047.84  1122.68  1127.36  1233.73
                             1237.85  1329.75  1346.32  1439.23  1439.44
                             1462.07  1466.88  1474.17  1479.67  1519.57
                             1524.36  1557.50  1594.85  1620.34  1626.66
                             1699.16  1733.31  1760.64  1773.07  1841.03
                             1926.24  1932.93  1952.57  1974.50  2036.74
                             2080.13  2107.59  2111.20  2128.27  2148.03
                             2159.36  2172.16  2222.75  2262.32  2362.63
                             2383.45  2403.94  2416.88  4358.71  4421.17
                             4434.96  4491.41  4540.77  4555.86  4581.20
                             4596.87  4610.90  4633.36  4633.52  4701.06
                             5064.56  5185.52  5207.17

 Zero-point correction=                           0.247287 (Hartree/Particle)
 Thermal correction to Energy=                    0.263217
 Thermal correction to Enthalpy=                  0.264162
 Thermal correction to Gibbs Free Energy=         0.200245
 Sum of electronic and zero-point Energies=          -3186.896880
 Sum of electronic and thermal Energies=             -3186.880950
 Sum of electronic and thermal Enthalpies=           -3186.880006
 Sum of electronic and thermal Free Energies=        -3186.943923

                     E (Thermal)             CV                S
                      KCal/Mol        Cal/Mol-Kelvin    Cal/Mol-Kelvin
 Total                  165.171             57.233            134.525
 Electronic               0.000              0.000              0.000
 Translational            0.889              2.981             42.679
 Rotational               0.889              2.981             33.355
 Vibrational            163.394             51.272             58.491
 Vibration     1          0.593              1.987              8.641
 Vibration     2          0.593              1.984              5.895
 Vibration     3          0.597              1.971              4.330
 Vibration     4          0.598              1.968              4.120
 Vibration     5          0.599              1.965              3.980
 Vibration     6          0.604              1.950              3.479
 Vibration     7          0.614              1.916              2.837
 Vibration     8          0.619              1.899              2.628
 Vibration     9          0.623              1.886              2.498
 Vibration    10          0.630              1.865              2.316
 Vibration    11          0.636              1.847              2.180
 Vibration    12          0.660              1.771              1.768
 Vibration    13          0.669              1.744              1.654
 Vibration    14          0.689              1.683              1.444
 Vibration    15          0.704              1.641              1.325
 Vibration    16          0.729              1.570              1.156
 Vibration    17          0.755              1.498              1.012
 Vibration    18          0.785              1.420              0.881
 Vibration    19          0.832              1.304              0.722
 Vibration    20          0.882              1.190              0.594
 Vibration    21          0.920              1.110              0.516
 Vibration    22          0.953              1.042              0.458
 Vibration    23          0.964              1.020              0.441

 Optimization completed on the basis of negligible forces.
    -- Stationary point found.
 Normal termination of Gaussian 16 at Sat Mar 27 16:21:51 2021.
