 Gaussian 16, Revision A.03,
 Gaussian 16:  ES64L-G16RevA.03 25-Dec-2016

 ----------------------------------------------------------------------
 # wB97XD def2tzvp, opt=(ts, noeigen, calcfc, maxcycles=70, maxstep=8),
  freq=noraman, scrf=(iefpcm, solvent=water)
 ----------------------------------------------------------------------

 ------------------------
 0_iteration/TS-384-0.out
 ------------------------
 Symbolic Z-matrix:
 Charge =  0 Multiplicity = 1

 SCF Done:  E(RwB97XD) =  -1017.74399594     A.U. after   16 cycles
 SCF Done:  E(RwB97XD) =  -1017.74241877     A.U. after   14 cycles
 SCF Done:  E(RwB97XD) =  -1017.74119433     A.U. after   14 cycles
 SCF Done:  E(RwB97XD) =  -1017.74058143     A.U. after   14 cycles
 SCF Done:  E(RwB97XD) =  -1017.74187183     A.U. after   14 cycles
 SCF Done:  E(RwB97XD) =  -1017.74444272     A.U. after   14 cycles
 SCF Done:  E(RwB97XD) =  -1017.74728118     A.U. after   14 cycles
 SCF Done:  E(RwB97XD) =  -1017.75004911     A.U. after   13 cycles
 SCF Done:  E(RwB97XD) =  -1017.75208031     A.U. after   13 cycles
 SCF Done:  E(RwB97XD) =  -1017.75403154     A.U. after   13 cycles
 SCF Done:  E(RwB97XD) =  -1017.76397159     A.U. after   11 cycles
 SCF Done:  E(RwB97XD) =  -1017.76397551     A.U. after   10 cycles
 SCF Done:  E(RwB97XD) =  -1017.76393357     A.U. after   12 cycles
 SCF Done:  E(RwB97XD) =  -1017.76397718     A.U. after   12 cycles
 SCF Done:  E(RwB97XD) =  -1017.76397828     A.U. after   10 cycles
 SCF Done:  E(RwB97XD) =  -1017.76397849     A.U. after   10 cycles
 SCF Done:  E(RwB97XD) =  -1017.76397872     A.U. after    8 cycles
 SCF Done:  E(RwB97XD) =  -1017.76397885     A.U. after    8 cycles
 SCF Done:  E(RwB97XD) =  -1017.76397887     A.U. after    9 cycles
 Optimization completed.
    -- Stationary point found.
 Normal termination of Gaussian 16 at Fri Feb 12 20:00:47 2021.

 ---------------------------------------------------------------------
 #N Geom=AllCheck Guess=TCheck SCRF=Check GenChk RwB97XD/def2TZVP Freq
 ---------------------------------------------------------------------

 Structure from the checkpoint file:  "/beegfs/scratch/user/q/tla25/Gau-92132.chk"
 ------------------------
 0_iteration/TS-384-0.out
 ------------------------
 Charge =  0 Multiplicity = 1

                         Standard orientation:
 ---------------------------------------------------------------------
 Center     Atomic      Atomic             Coordinates (Angstroms)
 Number     Number       Type             X           Y           Z
 ---------------------------------------------------------------------
      1          6           0        1.459640   -0.914410    0.182301
      2          6           0        0.223765   -1.484726   -0.242637
      3          8           0        0.145712   -2.654775   -0.645166
      4          6           0        1.634957    0.307853    0.821335
      5          6           0        2.452165    1.437536   -1.604735
      6          1           0        2.351807    2.193923   -2.382391
      7          1           0        3.505784    1.289707   -1.376355
      8          1           0        2.038408    0.493709   -1.963174
      9          7           0        1.746207    1.815772   -0.388528
     10          1           0        2.195108    2.584100    0.096461
     11          1           0        0.785191    2.080914   -0.573440
     12          1           0        2.619415    0.490887    1.229214
     13         17           0        0.440704    1.008138    1.927173
     14          6           0        2.701706   -1.736612   -0.079912
     15          1           0        3.601662   -1.203823    0.230215
     16          1           0        2.672577   -2.686100    0.461266
     17          1           0        2.808487   -1.979512   -1.140369
     18          6           0       -1.045616   -0.676289   -0.268936
     19          6           0       -2.109543   -1.018772    0.558619
     20          6           0       -3.295548   -0.304269    0.506492
     21          6           0       -3.439312    0.746357   -0.391234
     22          6           0       -2.393813    1.071567   -1.242184
     23          6           0       -1.201770    0.363089   -1.178179
     24          1           0       -1.998941   -1.838380    1.258226
     25          1           0       -4.112238   -0.566949    1.167283
     26          1           0       -4.367069    1.302757   -0.432526
     27          1           0       -2.504865    1.875392   -1.959028
     28          1           0       -0.396213    0.604880   -1.861871
 ---------------------------------------------------------------------

 SCF Done:  E(RwB97XD) =  -1017.76397887     A.U. after    1 cycles

 The electronic state is 1-A.
 Alpha  occ. eigenvalues -- -101.69914 -19.20877 -14.48742 -10.38937 -10.35394
 Alpha  occ. eigenvalues --  -10.31880 -10.29720 -10.29360 -10.29251 -10.29177
 Alpha  occ. eigenvalues --  -10.29087 -10.29056 -10.27074 -10.26707  -9.58504
 Alpha  occ. eigenvalues --   -7.33141  -7.32296  -7.32249  -1.11447  -1.04404
 Alpha  occ. eigenvalues --   -0.97237  -0.96453  -0.88465  -0.86008  -0.85324
 Alpha  occ. eigenvalues --   -0.79220  -0.76980  -0.74482  -0.70734  -0.69376
 Alpha  occ. eigenvalues --   -0.63837  -0.63178  -0.58746  -0.57549  -0.56848
 Alpha  occ. eigenvalues --   -0.55325  -0.54777  -0.54173  -0.52993  -0.51183
 Alpha  occ. eigenvalues --   -0.49868  -0.49501  -0.48166  -0.47629  -0.46442
 Alpha  occ. eigenvalues --   -0.45805  -0.45288  -0.44454  -0.43628  -0.42428
 Alpha  occ. eigenvalues --   -0.40067  -0.38578  -0.34051  -0.33806  -0.31833
 Alpha  occ. eigenvalues --   -0.27786
 Alpha virt. eigenvalues --    0.02991   0.05000   0.05571   0.08772   0.10572
 Alpha virt. eigenvalues --    0.12687   0.13005   0.14650   0.15500   0.16200
 Alpha virt. eigenvalues --    0.16738   0.17286   0.17721   0.18434   0.19792

 Mulliken charges:
               1
     1  C   -0.246067
     2  C    0.225537
     3  O   -0.502580
     4  C    0.033130
     5  C   -0.297415
     6  H    0.165609
     7  H    0.160759
     8  H    0.154244
     9  N   -0.331570
    10  H    0.289897
    11  H    0.277464
    12  H    0.194447
    13  Cl  -0.114606
    14  C   -0.351740
    15  H    0.121305
    16  H    0.121607
    17  H    0.118616
    18  C    0.181909
    19  C   -0.225524
    20  C   -0.141825
    21  C   -0.149753
    22  C   -0.141435
    23  C   -0.302440
    24  H    0.139878
    25  H    0.143385
    26  H    0.144832
    27  H    0.142362
    28  H    0.189974
 Sum of Mulliken charges =  -0.00000

 Dipole moment (field-independent basis, Debye):
    X=              4.0348    Y=             10.1737    Z=             -0.9316  Tot=             10.9842
 Quadrupole moment (field-independent basis, Debye-Ang):
   XX=            -72.6416   YY=            -97.3019   ZZ=            -90.2885
   XY=              8.0069   XZ=             -4.1902   YZ=            -11.3509

  Exact polarizability: 232.903   0.691 237.019 -14.115  -9.434 184.196
 Approx polarizability: 182.299  -0.571 196.323 -11.429  -7.424 158.684

 ******    1 imaginary frequencies (negative Signs) ******

                      1                      2                      3
                      A                      A                      A
 Frequencies --   -375.2582                44.3669                58.3257
 Red. masses --      6.0212                 4.6490                 5.0947
 Frc consts  --      0.4996                 0.0054                 0.0102
 IR Inten    --    972.6784                 4.6061                 6.1623

                      4                      5                      6
                      A                      A                      A
 Frequencies --     73.6250                76.0475               127.8687
 Red. masses --      2.9525                 5.4123                 2.7322
 Frc consts  --      0.0094                 0.0184                 0.0263
 IR Inten    --      0.5271                 5.4189                 9.7772

                      7                      8                      9
                      A                      A                      A
 Frequencies --    141.8900               150.8641               181.1521
 Red. masses --      1.1125                 3.1540                 4.7117
 Frc consts  --      0.0132                 0.0423                 0.0911
 IR Inten    --      0.8574                16.1008                 5.9705

                     10                     11                     12
                      A                      A                      A
 Frequencies --    187.4563               201.9090               249.3952
 Red. masses --      1.3893                 2.5338                 4.6535
 Frc consts  --      0.0288                 0.0609                 0.1705
 IR Inten    --      1.1311                 1.2202                15.5410

                     13                     14                     15
                      A                      A                      A
 Frequencies --    285.8409               296.2147               323.3582
 Red. masses --      3.5113                 4.5770                 3.6529
 Frc consts  --      0.1690                 0.2366                 0.2250
 IR Inten    --      2.1343                33.0696                18.4012

                     16                     17                     18
                      A                      A                      A
 Frequencies --    369.6576               420.8657               439.6983
 Red. masses --      5.8319                 2.9587                 5.9247
 Frc consts  --      0.4695                 0.3088                 0.6749
 IR Inten    --     14.7505                 1.1015                29.6263

                     19                     20                     21
                      A                      A                      A
 Frequencies --    475.2036               562.2375               613.9276
 Red. masses --      3.0945                 3.5181                 2.3393
 Frc consts  --      0.4117                 0.6552                 0.5195
 IR Inten    --    110.4155                18.1199                 7.1485

                     22                     23                     24
                      A                      A                      A
 Frequencies --    635.7393               685.0383               730.4230
 Red. masses --      6.4032                 3.5570                 1.8378
 Frc consts  --      1.5248                 0.9835                 0.5777
 IR Inten    --      0.3346                71.6563                66.3123

                     25                     26                     27
                      A                      A                      A
 Frequencies --    751.7601               777.6092               803.3843
 Red. masses --      2.1561                 4.6936                 4.2770
 Frc consts  --      0.7179                 1.6722                 1.6264
 IR Inten    --     27.6748                41.1356               147.1503

                     28                     29                     30
                      A                      A                      A
 Frequencies --    816.9284               884.2922               950.6204
 Red. masses --      3.0910                 1.2538                 1.8384
 Frc consts  --      1.2154                 0.5777                 0.9788
 IR Inten    --     17.1527                 0.1599                28.4731

                     31                     32                     33
                      A                      A                      A
 Frequencies --    974.2525              1003.5181              1014.2626
 Red. masses --      1.8656                 1.2771                 1.4452
 Frc consts  --      1.0433                 0.7577                 0.8759
 IR Inten    --    113.9954                27.1552                 1.4921

                     34                     35                     36
                      A                      A                      A
 Frequencies --   1021.8149              1026.3743              1030.3410
 Red. masses --      1.1389                 2.6722                 1.6031
 Frc consts  --      0.7006                 1.6586                 1.0027
 IR Inten    --     74.3341                 7.1400                11.9471

                     37                     38                     39
                      A                      A                      A
 Frequencies --   1032.9783              1059.4458              1063.0440
 Red. masses --      1.6845                 1.3908                 1.9789
 Frc consts  --      1.0590                 0.9198                 1.3176
 IR Inten    --    137.7545                 7.8081                 9.0245

                     40                     41                     42
                      A                      A                      A
 Frequencies --   1084.9793              1111.5635              1153.0956
 Red. masses --      4.5026                 1.5481                 1.1355
 Frc consts  --      3.1229                 1.1270                 0.8896
 IR Inten    --     48.2803                11.8229                80.1605

                     43                     44                     45
                      A                      A                      A
 Frequencies --   1183.8644              1192.2919              1206.6664
 Red. masses --      1.1435                 2.7717                 1.1244
 Frc consts  --      0.9443                 2.3214                 0.9646
 IR Inten    --      0.2006                 1.2726                 0.7017

                     46                     47                     48
                      A                      A                      A
 Frequencies --   1211.7851              1290.1641              1320.6870
 Red. masses --      1.4086                 1.5647                 4.1436
 Frc consts  --      1.2187                 1.5345                 4.2583
 IR Inten    --     25.0767                45.6597                 4.0484

                     49                     50                     51
                      A                      A                      A
 Frequencies --   1340.3979              1358.2747              1413.6195
 Red. masses --      1.3299                 1.4810                 1.4330
 Frc consts  --      1.4078                 1.6099                 1.6872
 IR Inten    --      3.5249                 1.6400                27.8008

                     52                     53                     54
                      A                      A                      A
 Frequencies --   1428.7689              1436.5780              1460.2896
 Red. masses --      3.0890                 2.0163                 1.3340
 Frc consts  --      3.7153                 2.4517                 1.6761
 IR Inten    --    817.9315               183.6151                86.3697

                     55                     56                     57
                      A                      A                      A
 Frequencies --   1468.6056              1488.6435              1495.9921
 Red. masses --      1.0471                 2.1711                 1.0422
 Frc consts  --      1.3306                 2.8347                 1.3742
 IR Inten    --     13.3222                 9.7126                50.2511

                     58                     59                     60
                      A                      A                      A
 Frequencies --   1499.6598              1506.4542              1542.9439
 Red. masses --      1.0681                 1.2017                 2.3872
 Frc consts  --      1.4153                 1.6067                 3.3484
 IR Inten    --     55.5308               236.3258                 9.1151

                     61                     62                     63
                      A                      A                      A
 Frequencies --   1617.6160              1646.5914              1650.2814
 Red. masses --     11.2001                 1.1097                 5.3519
 Frc consts  --     17.2672                 1.7726                 8.5876
 IR Inten    --    751.7780                50.2233                10.3557

                     64                     65                     66
                      A                      A                      A
 Frequencies --   1675.6819              3034.9956              3064.7817
 Red. masses --      5.8983                 1.0366                 1.0335
 Frc consts  --      9.7580                 5.6255                 5.7195
 IR Inten    --      1.0948                85.8436                31.3317

                     67                     68                     69
                      A                      A                      A
 Frequencies --   3088.1385              3121.9494              3141.9311
 Red. masses --      1.1016                 1.1007                 1.1041
 Frc consts  --      6.1898                 6.3205                 6.4215
 IR Inten    --     49.3545                34.8947                11.2359

                     70                     71                     72
                      A                      A                      A
 Frequencies --   3164.1042              3189.0059              3194.5568
 Red. masses --      1.1057                 1.0868                 1.0872
 Frc consts  --      6.5221                 6.5122                 6.5372
 IR Inten    --     16.1087                 8.0884                 1.2515

                     73                     74                     75
                      A                      A                      A
 Frequencies --   3203.3903              3207.3423              3211.1469
 Red. masses --      1.0910                 1.0915                 1.0950
 Frc consts  --      6.5961                 6.6157                 6.6528
 IR Inten    --      8.2337                10.4685                40.9848

                     76                     77                     78
                      A                      A                      A
 Frequencies --   3221.8723              3521.3897              3606.2511
 Red. masses --      1.0988                 1.0507                 1.0965
 Frc consts  --      6.7201                 7.6764                 8.4019
 IR Inten    --     18.1300                43.6691                67.3372

 - Thermochemistry -
 -------------------
 Temperature   298.150 Kelvin.  Pressure   1.00000 Atm.
 Atom     1 has atomic number  6 and mass  12.00000

 Molecular mass:   211.07639 amu.
 Principal axes and moments of inertia in atomic units:
                           1         2         3
     Eigenvalues --  2222.967493742.735974209.93501
           X            0.99967  -0.01059  -0.02332
           Y            0.00730   0.99056  -0.13688
           Z            0.02455   0.13667   0.99031
 This molecule is an asymmetric top.
 Rotational symmetry number  1.
 Warning -- assumption of classical behavior for rotation
           may cause significant error
 Rotational temperatures (Kelvin)      0.03896     0.02314     0.02057
 Rotational constants (GHZ):           0.81186     0.48220     0.42869
    1 imaginary frequencies ignored.
 Zero-point vibrational energy     605897.1 (Joules/Mol)
                                  144.81288 (Kcal/Mol)
 Warning -- explicit consideration of  20 degrees of freedom as
           vibrations may cause significant error
 Vibrational temperatures:     63.83    83.92   105.93   109.42   183.97
          (Kelvin)            204.15   217.06   260.64   269.71   290.50
                              358.82   411.26   426.19   465.24   531.85
                              605.53   632.63   683.71   808.93   883.30
                              914.69   985.62  1050.92  1081.62  1118.81
                             1155.89  1175.38  1272.30  1367.73  1401.73
                             1443.84  1459.30  1470.16  1476.72  1482.43
                             1486.23  1524.31  1529.48  1561.04  1599.29
                             1659.05  1703.32  1715.44  1736.12  1743.49
                             1856.26  1900.17  1928.53  1954.25  2033.88
                             2055.68  2066.92  2101.03  2113.00  2141.83
                             2152.40  2157.68  2167.45  2219.95  2327.39
                             2369.08  2374.39  2410.93  4366.68  4409.54
                             4443.14  4491.79  4520.54  4552.44  4588.27
                             4596.25  4608.96  4614.65  4620.12  4635.56
                             5066.49  5188.59

 Zero-point correction=                           0.230774 (Hartree/Particle)
 Thermal correction to Energy=                    0.245111
 Thermal correction to Enthalpy=                  0.246055
 Thermal correction to Gibbs Free Energy=         0.188799
 Sum of electronic and zero-point Energies=          -1017.533205
 Sum of electronic and thermal Energies=             -1017.518868
 Sum of electronic and thermal Enthalpies=           -1017.517923
 Sum of electronic and thermal Free Energies=        -1017.575180

                     E (Thermal)             CV                S
                      KCal/Mol        Cal/Mol-Kelvin    Cal/Mol-Kelvin
 Total                  153.810             52.250            120.506
 Electronic               0.000              0.000              0.000
 Translational            0.889              2.981             41.945
 Rotational               0.889              2.981             31.927
 Vibrational            152.032             46.288             46.635
 Vibration     1          0.595              1.980              5.054
 Vibration     2          0.596              1.974              4.513
 Vibration     3          0.599              1.966              4.054
 Vibration     4          0.599              1.965              3.990
 Vibration     5          0.611              1.925              2.978
 Vibration     6          0.615              1.911              2.778
 Vibration     7          0.618              1.902              2.661
 Vibration     8          0.630              1.865              2.317
 Vibration     9          0.632              1.857              2.253
 Vibration    10          0.639              1.837              2.116
 Vibration    11          0.662              1.764              1.735
 Vibration    12          0.684              1.700              1.498
 Vibration    13          0.690              1.681              1.438
 Vibration    14          0.708              1.629              1.293
 Vibration    15          0.742              1.535              1.081
 Vibration    16          0.783              1.425              0.889
 Vibration    17          0.800              1.384              0.828
 Vibration    18          0.832              1.305              0.723
 Vibration    19          0.918              1.113              0.519
 Vibration    20          0.973              1.002              0.426

 Optimization completed.
    -- Stationary point found.
 Normal termination of Gaussian 16 at Fri Feb 12 20:50:17 2021.
