 Gaussian 16, Revision A.03,
 Gaussian 16:  ES64L-G16RevA.03 25-Dec-2016

 ----------------------------------------------------------------------
 # wB97XD def2tzvp, opt=(ts, noeigen, calcfc, maxcycles=70, maxstep=3),
  freq=noraman, scrf=(iefpcm, solvent=water)
 ----------------------------------------------------------------------

 ------------------------
 0_iteration/TS-316-0.out
 ------------------------
 Symbolic Z-matrix:
 Charge =  0 Multiplicity = 1

 SCF Done:  E(RwB97XD) =  -901.272243552     A.U. after   15 cycles
 SCF Done:  E(RwB97XD) =  -901.272141263     A.U. after   11 cycles
 SCF Done:  E(RwB97XD) =  -901.272076185     A.U. after   11 cycles
 SCF Done:  E(RwB97XD) =  -901.272053579     A.U. after   11 cycles
 SCF Done:  E(RwB97XD) =  -901.272096099     A.U. after   11 cycles
 SCF Done:  E(RwB97XD) =  -901.272266790     A.U. after   10 cycles
 SCF Done:  E(RwB97XD) =  -901.272548919     A.U. after   10 cycles
 SCF Done:  E(RwB97XD) =  -901.272897068     A.U. after   10 cycles
 SCF Done:  E(RwB97XD) =  -901.273298363     A.U. after   10 cycles
 SCF Done:  E(RwB97XD) =  -901.273725357     A.U. after   10 cycles
 SCF Done:  E(RwB97XD) =  -901.275391217     A.U. after   10 cycles
 SCF Done:  E(RwB97XD) =  -901.275404120     A.U. after   10 cycles
 SCF Done:  E(RwB97XD) =  -901.275405215     A.U. after   10 cycles
 SCF Done:  E(RwB97XD) =  -901.275364249     A.U. after   12 cycles
 SCF Done:  E(RwB97XD) =  -901.275407253     A.U. after   10 cycles
 SCF Done:  E(RwB97XD) =  -901.275408826     A.U. after   10 cycles
 SCF Done:  E(RwB97XD) =  -901.275409221     A.U. after    8 cycles
 SCF Done:  E(RwB97XD) =  -901.275409616     A.U. after    8 cycles
 SCF Done:  E(RwB97XD) =  -901.275409636     A.U. after    7 cycles
 Optimization completed.
    -- Stationary point found.
 Normal termination of Gaussian 16 at Tue Apr 13 21:32:43 2021.

 ---------------------------------------------------------------------
 #N Geom=AllCheck Guess=TCheck SCRF=Check GenChk RwB97XD/def2TZVP Freq
 ---------------------------------------------------------------------

 Structure from the checkpoint file:  "/beegfs/scratch/user/q/tla25/Gau-417220.chk"
 ------------------------
 0_iteration/TS-316-0.out
 ------------------------
 Charge =  0 Multiplicity = 1

                         Standard orientation:
 ---------------------------------------------------------------------
 Center     Atomic      Atomic             Coordinates (Angstroms)
 Number     Number       Type             X           Y           Z
 ---------------------------------------------------------------------
      1          6           0        0.146583    0.344333    0.427954
      2          6           0        1.225181   -0.505853    0.040582
      3          8           0        1.171645   -1.728861   -0.028796
      4          6           0       -1.151670   -0.076902    0.714289
      5          6           0       -3.636582   -0.161096   -0.817553
      6          1           0       -4.130451    0.056286   -1.765422
      7          1           0       -3.886196   -1.175616   -0.515239
      8          1           0       -4.002569    0.532348   -0.060842
      9          7           0       -2.184035   -0.029526   -0.918478
     10          1           0       -1.778027   -0.748204   -1.506239
     11          1           0       -1.921062    0.868272   -1.307415
     12          1           0       -1.769653    0.688437    1.172658
     13          6           0       -1.472012   -1.465051    1.196729
     14          1           0       -1.132708   -2.224810    0.498572
     15          1           0       -0.958177   -1.635272    2.144054
     16          1           0       -2.541867   -1.569840    1.370630
     17         17           0        0.364022    2.095557    0.295457
     18          8           0        2.371979    0.154897   -0.242710
     19          6           0        3.480907   -0.651154   -0.614968
     20          1           0        4.300148    0.039831   -0.798410
     21          1           0        3.750393   -1.342522    0.184020
     22          1           0        3.266601   -1.220648   -1.519935
 ---------------------------------------------------------------------

 SCF Done:  E(RwB97XD) =  -901.275409636     A.U. after    1 cycles

 The electronic state is 1-A.
 Alpha  occ. eigenvalues -- -101.68172 -19.28027 -19.21034 -14.47971 -10.39802
 Alpha  occ. eigenvalues --  -10.34406 -10.32539 -10.31798 -10.30300 -10.27894
 Alpha  occ. eigenvalues --   -9.56703  -7.31320  -7.30500  -7.30486  -1.19447
 Alpha  occ. eigenvalues --   -1.09685  -1.03523  -0.95811  -0.87895  -0.82947
 Alpha  occ. eigenvalues --   -0.79132  -0.77028  -0.70824  -0.63928  -0.62595
 Alpha  occ. eigenvalues --   -0.58334  -0.56770  -0.56282  -0.55278  -0.54299
 Alpha  occ. eigenvalues --   -0.53695  -0.50000  -0.49551  -0.48207  -0.47593
 Alpha  occ. eigenvalues --   -0.46232  -0.45587  -0.43439  -0.43022  -0.40275
 Alpha  occ. eigenvalues --   -0.39065  -0.37877  -0.34645  -0.26913
 Alpha virt. eigenvalues --    0.06051   0.09849   0.11650   0.13423   0.14441
 Alpha virt. eigenvalues --    0.15006   0.15899   0.16538   0.17534   0.18103
 Alpha virt. eigenvalues --    0.19361   0.19773   0.20390   0.20892   0.21357

 Mulliken charges:
               1
     1  C   -0.136170
     2  C    0.395415
     3  O   -0.515974
     4  C   -0.064015
     5  C   -0.288876
     6  H    0.153350
     7  H    0.157681
     8  H    0.151185
     9  N   -0.340775
    10  H    0.282359
    11  H    0.278997
    12  H    0.154051
    13  C   -0.345753
    14  H    0.142740
    15  H    0.143170
    16  H    0.140305
    17  Cl  -0.197382
    18  O   -0.309158
    19  C   -0.188208
    20  H    0.137126
    21  H    0.125111
    22  H    0.124821
 Sum of Mulliken charges =  -0.00000

 Dipole moment (field-independent basis, Debye):
    X=             -7.2209    Y=             -0.5102    Z=             -2.7895  Tot=              7.7578
 Quadrupole moment (field-independent basis, Debye-Ang):
   XX=            -46.5506   YY=            -77.5276   ZZ=            -63.1550
   XY=              0.3804   XZ=              2.6716   YZ=             -0.9069

  Exact polarizability: 180.968  -0.610 138.694   3.184  -0.988 111.699
 Approx polarizability: 129.831   0.159 119.542   1.698   0.179  97.025

 ******    1 imaginary frequencies (negative Signs) ******

                      1                      2                      3
                      A                      A                      A
 Frequencies --   -351.3718                37.0297                55.6005
 Red. masses --      6.1104                 2.9756                 3.1885
 Frc consts  --      0.4445                 0.0024                 0.0058
 IR Inten    --    952.9749                 0.3317                 7.0391

                      4                      5                      6
                      A                      A                      A
 Frequencies --     71.4543               120.5034               142.3199
 Red. masses --      2.7875                 3.2649                 3.2872
 Frc consts  --      0.0084                 0.0279                 0.0392
 IR Inten    --      6.8454                 2.9728                21.7553

                      7                      8                      9
                      A                      A                      A
 Frequencies --    156.3139               171.9223               174.1183
 Red. masses --      1.8765                 1.4403                 1.4580
 Frc consts  --      0.0270                 0.0251                 0.0260
 IR Inten    --      4.0810                 7.0303                 5.2128

                     10                     11                     12
                      A                      A                      A
 Frequencies --    221.3643               237.7861               246.3294
 Red. masses --      2.5227                 2.0260                 1.8304
 Frc consts  --      0.0728                 0.0675                 0.0654
 IR Inten    --     14.2658                 4.2408                 0.3127

                     13                     14                     15
                      A                      A                      A
 Frequencies --    307.8420               344.2452               420.1619
 Red. masses --      3.0582                 3.8901                 3.9115
 Frc consts  --      0.1708                 0.2716                 0.4068
 IR Inten    --     19.1062                28.5145                 0.6770

                     16                     17                     18
                      A                      A                      A
 Frequencies --    447.6291               464.6189               585.6398
 Red. masses --      4.9556                 9.0812                 3.3626
 Frc consts  --      0.5850                 1.1550                 0.6795
 IR Inten    --     98.5173                31.1536                20.0420

                     19                     20                     21
                      A                      A                      A
 Frequencies --    655.1359               783.7501               786.0724
 Red. masses --      1.3729                10.6055                 4.7189
 Frc consts  --      0.3472                 3.8383                 1.7180
 IR Inten    --     32.3632                52.0229                40.3359

                     22                     23                     24
                      A                      A                      A
 Frequencies --    955.5255               968.7561               998.8902
 Red. masses --      2.2004                 2.8522                 1.1896
 Frc consts  --      1.1837                 1.5771                 0.6993
 IR Inten    --     20.7343               150.6965                26.0187

                     25                     26                     27
                      A                      A                      A
 Frequencies --   1038.1829              1049.2050              1072.6008
 Red. masses --      1.1673                 1.6665                 4.0342
 Frc consts  --      0.7413                 1.0809                 2.7346
 IR Inten    --     51.1510                35.6907               173.2328

                     28                     29                     30
                      A                      A                      A
 Frequencies --   1090.2651              1148.2115              1182.1418
 Red. masses --      2.6810                 2.6271                 1.2816
 Frc consts  --      1.8777                 2.0407                 1.0552
 IR Inten    --    184.0138                66.5756                 8.8606

                     31                     32                     33
                      A                      A                      A
 Frequencies --   1186.8371              1214.7590              1222.7853
 Red. masses --      1.2180                 1.4862                 1.4307
 Frc consts  --      1.0108                 1.2921                 1.2604
 IR Inten    --    298.7458                38.8478                16.1642

                     34                     35                     36
                      A                      A                      A
 Frequencies --   1250.2139              1346.0076              1383.7369
 Red. masses --      2.4648                 1.3115                 2.0628
 Frc consts  --      2.2699                 1.4000                 2.3271
 IR Inten    --    364.4847                 0.3849               477.1623

                     37                     38                     39
                      A                      A                      A
 Frequencies --   1411.9364              1453.4255              1472.0363
 Red. masses --      1.3145                 1.4142                 1.3655
 Frc consts  --      1.5440                 1.7601                 1.7433
 IR Inten    --    133.1947               168.8829                81.8467

                     40                     41                     42
                      A                      A                      A
 Frequencies --   1475.5535              1481.4609              1482.3904
 Red. masses --      1.0849                 1.0582                 1.1874
 Frc consts  --      1.3917                 1.3684                 1.5374
 IR Inten    --     20.6166                31.0978               151.8497

                     43                     44                     45
                      A                      A                      A
 Frequencies --   1492.5625              1496.9107              1503.7122
 Red. masses --      1.0858                 1.0699                 1.3101
 Frc consts  --      1.4252                 1.4125                 1.7453
 IR Inten    --     50.7157                 9.6125               122.1291

                     46                     47                     48
                      A                      A                      A
 Frequencies --   1511.5516              1645.0481              1684.8780
 Red. masses --      1.1288                 1.0889                 9.7002
 Frc consts  --      1.5196                 1.7362                16.2244
 IR Inten    --     73.9494                51.1625               576.4713

                     49                     50                     51
                      A                      A                      A
 Frequencies --   3060.2910              3066.1487              3075.7048
 Red. masses --      1.0309                 1.0345                 1.0382
 Frc consts  --      5.6882                 5.7303                 5.7867
 IR Inten    --     66.2357                52.7783                21.7399

                     52                     53                     54
                      A                      A                      A
 Frequencies --   3134.7235              3140.1181              3143.4827
 Red. masses --      1.1065                 1.1046                 1.1008
 Frc consts  --      6.4064                 6.4171                 6.4087
 IR Inten    --     40.6145                23.0206                24.8025

                     55                     56                     57
                      A                      A                      A
 Frequencies --   3162.4694              3168.0625              3168.2035
 Red. masses --      1.0912                 1.1046                 1.1052
 Frc consts  --      6.4302                 6.5317                 6.5360
 IR Inten    --     11.7634                13.8065                29.9459

                     58                     59                     60
                      A                      A                      A
 Frequencies --   3186.0684              3527.7857              3608.3357
 Red. masses --      1.1004                 1.0509                 1.0963
 Frc consts  --      6.5810                 7.7055                 8.4096
 IR Inten    --     12.9405                18.7624                43.7736

 - Thermochemistry -
 -------------------
 Temperature   298.150 Kelvin.  Pressure   1.00000 Atm.
 Atom     1 has atomic number  6 and mass  12.00000

 Molecular mass:   165.05566 amu.
 Principal axes and moments of inertia in atomic units:
                           1         2         3
     Eigenvalues --  1165.392412607.589203256.21393
           X            1.00000  -0.00061  -0.00188
           Y            0.00057   0.99971  -0.02394
           Z            0.00189   0.02394   0.99971
 This molecule is an asymmetric top.
 Rotational symmetry number  1.
 Warning -- assumption of classical behavior for rotation
           may cause significant error
 Rotational temperatures (Kelvin)      0.07432     0.03322     0.02660
 Rotational constants (GHZ):           1.54861     0.69211     0.55425
    1 imaginary frequencies ignored.
 Zero-point vibrational energy     479049.5 (Joules/Mol)
                                  114.49557 (Kcal/Mol)
 Warning -- explicit consideration of  17 degrees of freedom as
           vibrations may cause significant error
 Vibrational temperatures:     53.28    80.00   102.81   173.38   204.77
          (Kelvin)            224.90   247.36   250.52   318.49   342.12
                              354.41   442.92   495.29   604.52   644.04
                              668.48   842.61   942.59  1127.64  1130.98
                             1374.79  1393.82  1437.18  1493.71  1509.57
                             1543.23  1568.65  1652.02  1700.84  1707.59
                             1747.77  1759.32  1798.78  1936.60  1990.89
                             2031.46  2091.16  2117.93  2122.99  2131.49
                             2132.83  2147.46  2153.72  2163.51  2174.79
                             2366.86  2424.16  4403.08  4411.50  4425.25
                             4510.17  4517.93  4522.77  4550.09  4558.14
                             4558.34  4584.04  5075.70  5191.59

 Zero-point correction=                           0.182460 (Hartree/Particle)
 Thermal correction to Energy=                    0.194954
 Thermal correction to Enthalpy=                  0.195898
 Thermal correction to Gibbs Free Energy=         0.142621
 Sum of electronic and zero-point Energies=           -901.092949
 Sum of electronic and thermal Energies=              -901.080456
 Sum of electronic and thermal Enthalpies=            -901.079512
 Sum of electronic and thermal Free Energies=         -901.132789

                     E (Thermal)             CV                S
                      KCal/Mol        Cal/Mol-Kelvin    Cal/Mol-Kelvin
 Total                  122.335             42.278            112.131
 Electronic               0.000              0.000              0.000
 Translational            0.889              2.981             41.212
 Rotational               0.889              2.981             30.671
 Vibrational            120.558             36.317             40.249
 Vibration     1          0.594              1.982              5.412
 Vibration     2          0.596              1.975              4.608
 Vibration     3          0.598              1.968              4.113
 Vibration     4          0.609              1.932              3.092
 Vibration     5          0.616              1.911              2.772
 Vibration     6          0.620              1.896              2.594
 Vibration     7          0.626              1.877              2.414
 Vibration     8          0.627              1.874              2.391
 Vibration     9          0.648              1.809              1.948
 Vibration    10          0.656              1.783              1.819
 Vibration    11          0.661              1.769              1.757
 Vibration    12          0.698              1.659              1.374
 Vibration    13          0.723              1.587              1.192
 Vibration    14          0.783              1.426              0.891
 Vibration    15          0.807              1.366              0.803
 Vibration    16          0.822              1.329              0.753
 Vibration    17          0.943              1.062              0.475

 Optimization completed.
    -- Stationary point found.
 Normal termination of Gaussian 16 at Tue Apr 13 21:38:50 2021.
