 Gaussian 16, Revision A.03,
 Gaussian 16:  ES64L-G16RevA.03 25-Dec-2016

 ----------------------------------------------------------------------
 # wB97XD def2tzvp, opt=(ts, noeigen, calcfc, maxcycles=70, maxstep=8),
  freq=noraman, scrf=(iefpcm, solvent=water)
 ----------------------------------------------------------------------

 ------------------------
 0_iteration/TS-385-0.out
 ------------------------
 Symbolic Z-matrix:
 Charge =  0 Multiplicity = 1

 SCF Done:  E(RwB97XD) =  -3321.00846858     A.U. after   15 cycles
 SCF Done:  E(RwB97XD) =  -3321.00782742     A.U. after   11 cycles
 SCF Done:  E(RwB97XD) =  -3321.00741957     A.U. after   12 cycles
 SCF Done:  E(RwB97XD) =  -3321.00724378     A.U. after   12 cycles
 SCF Done:  E(RwB97XD) =  -3321.00731192     A.U. after   12 cycles
 SCF Done:  E(RwB97XD) =  -3321.00763347     A.U. after   13 cycles
 SCF Done:  E(RwB97XD) =  -3321.00814302     A.U. after   13 cycles
 SCF Done:  E(RwB97XD) =  -3321.00844618     A.U. after   14 cycles
 SCF Done:  E(RwB97XD) =  -3321.00849453     A.U. after   12 cycles
 SCF Done:  E(RwB97XD) =  -3321.00850398     A.U. after   12 cycles
 SCF Done:  E(RwB97XD) =  -3321.00852319     A.U. after   11 cycles
 SCF Done:  E(RwB97XD) =  -3321.00852480     A.U. after    9 cycles
 SCF Done:  E(RwB97XD) =  -3321.00852500     A.U. after    8 cycles
 SCF Done:  E(RwB97XD) =  -3321.00852503     A.U. after    6 cycles
 Optimization completed.
    -- Stationary point found.
 Normal termination of Gaussian 16 at Fri Feb 12 12:41:18 2021.

 ---------------------------------------------------------------------
 #N Geom=AllCheck Guess=TCheck SCRF=Check GenChk RwB97XD/def2TZVP Freq
 ---------------------------------------------------------------------

 Structure from the checkpoint file:  "/beegfs/scratch/user/q/tla25/Gau-110706.chk"
 ------------------------
 0_iteration/TS-385-0.out
 ------------------------
 Charge =  0 Multiplicity = 1

                         Standard orientation:
 ---------------------------------------------------------------------
 Center     Atomic      Atomic             Coordinates (Angstroms)
 Number     Number       Type             X           Y           Z
 ---------------------------------------------------------------------
      1          6           0       -0.426596   -0.485475   -0.080251
      2          6           0       -0.779740   -1.679079    0.608212
      3          8           0       -1.884282   -1.969817    1.047791
      4          6           0        0.838407   -0.134507   -0.498620
      5          6           0        2.972313    1.676216    0.520013
      6          1           0        2.752096    2.308623   -0.339187
      7          1           0        3.374879    2.298526    1.320844
      8          1           0        3.721738    0.941060    0.232356
      9          7           0        1.754197    0.982144    0.925644
     10          1           0        1.915931    0.340492    1.693027
     11          1           0        1.028371    1.630456    1.207575
     12          1           0        0.965241    0.672030   -1.205885
     13         17           0        2.063505   -1.360163   -0.705133
     14         35           0       -1.763704    0.855367   -0.280004
     15          1           0        0.060369   -2.385670    0.720689
 ---------------------------------------------------------------------

 SCF Done:  E(RwB97XD) =  -3321.00852503     A.U. after    1 cycles

 The electronic state is 1-A.
 Alpha  occ. eigenvalues -- -483.13021-101.71575 -62.67861 -56.46970 -56.46623
 Alpha  occ. eigenvalues --  -56.46619 -19.22671 -14.47748 -10.40516 -10.36389
 Alpha  occ. eigenvalues --  -10.32313 -10.31760  -9.60141  -8.81980  -7.34804
 Alpha  occ. eigenvalues --   -7.33920  -7.33873  -6.64116  -6.62999  -6.62988
 Alpha  occ. eigenvalues --   -2.74510  -2.74179  -2.74170  -2.73267  -2.73267
 Alpha  occ. eigenvalues --   -1.13110  -1.03620  -0.99133  -0.92210  -0.82989
 Alpha  occ. eigenvalues --   -0.78750  -0.75571  -0.63153  -0.62864  -0.59651
 Alpha  occ. eigenvalues --   -0.56239  -0.55804  -0.54401  -0.51314  -0.49345
 Alpha  occ. eigenvalues --   -0.48000  -0.46822  -0.46177  -0.41751  -0.40690
 Alpha  occ. eigenvalues --   -0.38467  -0.37542  -0.33863  -0.29186
 Alpha virt. eigenvalues --    0.01560   0.05768   0.09867   0.10978   0.13978
 Alpha virt. eigenvalues --    0.14539   0.15834   0.16408   0.19131   0.19382
 Alpha virt. eigenvalues --    0.19942   0.20370   0.23194   0.23636   0.26286

 Mulliken charges:
               1
     1  C   -0.068214
     2  C    0.071093
     3  O   -0.461997
     4  C   -0.008400
     5  C   -0.265670
     6  H    0.149606
     7  H    0.150482
     8  H    0.147242
     9  N   -0.391821
    10  H    0.283353
    11  H    0.280647
    12  H    0.203295
    13  Cl  -0.065683
    14  Br  -0.120095
    15  H    0.096163
 Sum of Mulliken charges =  -0.00000

 Dipole moment (field-independent basis, Debye):
    X=              9.1814    Y=              5.4771    Z=              0.6753  Tot=             10.7123
 Quadrupole moment (field-independent basis, Debye-Ang):
   XX=            -69.2965   YY=            -68.2580   ZZ=            -65.7506
   XY=             -1.7446   XZ=              8.4860   YZ=              4.8965

  Exact polarizability: 181.096  15.226 143.427  -5.913  -3.155  98.625
 Approx polarizability: 137.782   6.691 117.194  -5.823  -3.248  88.751

 ******    1 imaginary frequencies (negative Signs) ******

                      1                      2                      3
                      A                      A                      A
 Frequencies --   -335.5220                44.3795                67.3231
 Red. masses --      6.3222                 3.0425                 3.0449
 Frc consts  --      0.4193                 0.0035                 0.0081
 IR Inten    --    982.6539                 0.4198                 3.7176

                      4                      5                      6
                      A                      A                      A
 Frequencies --     97.8781               156.8855               175.9406
 Red. masses --      3.8558                 1.4181                 4.3364
 Frc consts  --      0.0218                 0.0206                 0.0791
 IR Inten    --      9.5374                 2.6293                15.6949

                      7                      8                      9
                      A                      A                      A
 Frequencies --    184.1065               190.6628               264.7917
 Red. masses --     11.0708                 4.4025                 5.7629
 Frc consts  --      0.2211                 0.0943                 0.2381
 IR Inten    --     11.0358                 0.1795                 1.3450

                     10                     11                     12
                      A                      A                      A
 Frequencies --    292.7252               322.2500               462.0076
 Red. masses --      3.2510                 3.9744                 5.1140
 Frc consts  --      0.1641                 0.2432                 0.6431
 IR Inten    --     16.4174                16.7992               191.2133

                     13                     14                     15
                      A                      A                      A
 Frequencies --    595.6136               608.0698               707.9359
 Red. masses --      3.1033                 1.8478                 5.7456
 Frc consts  --      0.6486                 0.4025                 1.6966
 IR Inten    --     49.3457                60.5122                25.8052

                     16                     17                     18
                      A                      A                      A
 Frequencies --    803.3909              1001.4358              1008.6141
 Red. masses --      5.5313                 1.0777                 1.1230
 Frc consts  --      2.1035                 0.6368                 0.6731
 IR Inten    --    169.2225                19.9720               156.3031

                     19                     20                     21
                      A                      A                      A
 Frequencies --   1018.2187              1070.2569              1105.8292
 Red. masses --      1.6275                 3.5439                 1.3021
 Frc consts  --      0.9941                 2.3917                 0.9381
 IR Inten    --      0.4695               231.6721                94.2550

                     22                     23                     24
                      A                      A                      A
 Frequencies --   1143.9079              1206.7629              1331.8249
 Red. masses --      1.9045                 1.4152                 1.5490
 Frc consts  --      1.4683                 1.2142                 1.6189
 IR Inten    --      7.8462                16.0875               189.3989

                     25                     26                     27
                      A                      A                      A
 Frequencies --   1343.5882              1399.2804              1460.8600
 Red. masses --      1.3295                 1.8270                 1.2047
 Frc consts  --      1.4140                 2.1077                 1.5147
 IR Inten    --      2.1923               462.7186                45.9577

                     28                     29                     30
                      A                      A                      A
 Frequencies --   1490.4551              1490.6149              1506.1025
 Red. masses --      1.4053                 1.5861                 1.0348
 Frc consts  --      1.8394                 2.0764                 1.3829
 IR Inten    --    218.9707               303.9735                20.8971

                     31                     32                     33
                      A                      A                      A
 Frequencies --   1643.4030              1695.6059              2978.2721
 Red. masses --      1.0897                 8.8673                 1.0825
 Frc consts  --      1.7340                15.0208                 5.6575
 IR Inten    --     62.2935               974.6181                73.1802

                     34                     35                     36
                      A                      A                      A
 Frequencies --   3061.4293              3136.4943              3161.5914
 Red. masses --      1.0348                 1.1034                 1.1053
 Frc consts  --      5.7145                 6.3952                 6.5096
 IR Inten    --     59.4502                18.4971                15.8275

                     37                     38                     39
                      A                      A                      A
 Frequencies --   3224.9600              3527.7886              3612.1597
 Red. masses --      1.0936                 1.0503                 1.0964
 Frc consts  --      6.7013                 7.7017                 8.4287
 IR Inten    --      1.1249                23.4400                42.0966

 - Thermochemistry -
 -------------------
 Temperature   298.150 Kelvin.  Pressure   1.00000 Atm.
 Atom     1 has atomic number  6 and mass  12.00000

 Molecular mass:   198.93995 amu.
 Principal axes and moments of inertia in atomic units:
                           1         2         3
     Eigenvalues --  1276.458252602.023013365.72123
           X            0.99510   0.09823   0.01082
           Y           -0.09842   0.99497   0.01856
           Z           -0.00895  -0.01954   0.99977
 This molecule is an asymmetric top.
 Rotational symmetry number  1.
 Warning -- assumption of classical behavior for rotation
           may cause significant error
 Rotational temperatures (Kelvin)      0.06785     0.03329     0.02573
 Rotational constants (GHZ):           1.41387     0.69359     0.53621
    1 imaginary frequencies ignored.
 Zero-point vibrational energy     290653.2 (Joules/Mol)
                                   69.46778 (Kcal/Mol)
 Warning -- explicit consideration of  13 degrees of freedom as
           vibrations may cause significant error
 Vibrational temperatures:     63.85    96.86   140.82   225.72   253.14
          (Kelvin)            264.89   274.32   380.98   421.17   463.65
                              664.73   856.96   874.88  1018.56  1155.90
                             1440.84  1451.17  1464.99  1539.86  1591.04
                             1645.83  1736.26  1916.20  1933.12  2013.25
                             2101.85  2144.43  2144.66  2166.95  2364.49
                             2439.60  4285.07  4404.71  4512.72  4548.82
                             4640.00  5075.70  5197.09

 Zero-point correction=                           0.110704 (Hartree/Particle)
 Thermal correction to Energy=                    0.120609
 Thermal correction to Enthalpy=                  0.121553
 Thermal correction to Gibbs Free Energy=         0.073105
 Sum of electronic and zero-point Energies=          -3320.897821
 Sum of electronic and thermal Energies=             -3320.887916
 Sum of electronic and thermal Enthalpies=           -3320.886972
 Sum of electronic and thermal Free Energies=        -3320.935420

                     E (Thermal)             CV                S
                      KCal/Mol        Cal/Mol-Kelvin    Cal/Mol-Kelvin
 Total                   75.683             32.140            101.967
 Electronic               0.000              0.000              0.000
 Translational            0.889              2.981             41.768
 Rotational               0.889              2.981             30.792
 Vibrational             73.906             26.178             29.407
 Vibration     1          0.595              1.980              5.053
 Vibration     2          0.598              1.970              4.230
 Vibration     3          0.603              1.951              3.496
 Vibration     4          0.621              1.895              2.587
 Vibration     5          0.628              1.872              2.371
 Vibration     6          0.631              1.861              2.286
 Vibration     7          0.634              1.853              2.221
 Vibration     8          0.671              1.738              1.630
 Vibration     9          0.688              1.687              1.458
 Vibration    10          0.707              1.631              1.299
 Vibration    11          0.820              1.334              0.760
 Vibration    12          0.953              1.041              0.457
 Vibration    13          0.967              1.015              0.436

 Optimization completed.
    -- Stationary point found.
 Normal termination of Gaussian 16 at Fri Feb 12 12:48:16 2021.
