 Gaussian 16, Revision A.03,
 Gaussian 16:  ES64L-G16RevA.03 25-Dec-2016

 ----------------------------------------------------------------------
 # wB97XD def2tzvp, opt=(ts, noeigen, calcfc, maxcycles=70, maxstep=8),
  freq=noraman, scrf=(iefpcm, solvent=water)
 ----------------------------------------------------------------------

 ------------------------
 1_iteration/TS-389-1.out
 ------------------------
 Symbolic Z-matrix:
 Charge =  0 Multiplicity = 1

 SCF Done:  E(RwB97XD) =  -3415.70062308     A.U. after   15 cycles
 SCF Done:  E(RwB97XD) =  -3415.70062326     A.U. after    7 cycles
 Optimization completed.
    -- Stationary point found.
 Normal termination of Gaussian 16 at Thu Apr 15 20:17:19 2021.

 ---------------------------------------------------------------------
 #N Geom=AllCheck Guess=TCheck SCRF=Check GenChk RwB97XD/def2TZVP Freq
 ---------------------------------------------------------------------

 Structure from the checkpoint file:  "/beegfs/scratch/user/q/tla25/Gau-305529.chk"
 ------------------------
 1_iteration/TS-389-1.out
 ------------------------
 Charge =  0 Multiplicity = 1

                         Standard orientation:
 ---------------------------------------------------------------------
 Center     Atomic      Atomic             Coordinates (Angstroms)
 Number     Number       Type             X           Y           Z
 ---------------------------------------------------------------------
      1          6           0        0.209034   -0.136200   -0.290485
      2          6           0        0.881371    1.098905    0.082088
      3          8           0        0.232658    2.117122    0.356050
      4          6           0       -1.147365   -0.249867   -0.484075
      5          6           0       -3.530039   -0.263559    1.284078
      6          1           0       -3.906220   -0.165221    2.303684
      7          1           0       -4.013295    0.480492    0.654552
      8          1           0       -3.775300   -1.256433    0.909648
      9          7           0       -2.083876   -0.074254    1.221024
     10          1           0       -1.798335    0.859377    1.496709
     11          1           0       -1.590010   -0.739002    1.804493
     12          1           0       -1.543787   -1.227611   -0.716267
     13         17           0       -2.040537    0.977153   -1.387267
     14         35           0        1.137851   -1.805012   -0.098829
     15          7           0        2.232626    1.104468    0.133798
     16          6           0        2.974441    2.285253    0.505715
     17          1           0        2.736855    0.283332   -0.146354
     18          1           0        4.026528    2.022021    0.590029
     19          1           0        2.869906    3.080190   -0.236513
     20          1           0        2.630826    2.671027    1.466485
 ---------------------------------------------------------------------

 SCF Done:  E(RwB97XD) =  -3415.70062326     A.U. after    1 cycles

 The electronic state is 1-A.
 Alpha  occ. eigenvalues -- -483.12871-101.69907 -62.67708 -56.46813 -56.46481
 Alpha  occ. eigenvalues --  -56.46462 -19.20501 -14.47939 -14.44966 -10.39250
 Alpha  occ. eigenvalues --  -10.38427 -10.31656 -10.31045 -10.30835  -9.58482
 Alpha  occ. eigenvalues --   -8.81824  -7.33135  -7.32270  -7.32216  -6.63941
 Alpha  occ. eigenvalues --   -6.62877  -6.62818  -2.74335  -2.74036  -2.73987
 Alpha  occ. eigenvalues --   -2.73127  -2.73127  -1.13302  -1.03647  -1.01752
 Alpha  occ. eigenvalues --   -0.97204  -0.91411  -0.82233  -0.80774  -0.78295
 Alpha  occ. eigenvalues --   -0.71390  -0.66703  -0.62873  -0.59731  -0.56201
 Alpha  occ. eigenvalues --   -0.55880  -0.55108  -0.53552  -0.53118  -0.50693
 Alpha  occ. eigenvalues --   -0.48111  -0.47928  -0.47446  -0.46602  -0.45297
 Alpha  occ. eigenvalues --   -0.40232  -0.40153  -0.39014  -0.37671  -0.33989
 Alpha  occ. eigenvalues --   -0.33520  -0.27453
 Alpha virt. eigenvalues --    0.03867   0.07233   0.09586   0.11674   0.12970
 Alpha virt. eigenvalues --    0.14414   0.14985   0.16400   0.17515   0.17912
 Alpha virt. eigenvalues --    0.18777   0.19563   0.20523   0.21343   0.22371

 Mulliken charges:
               1
     1  C   -0.200471
     2  C    0.360541
     3  O   -0.540684
     4  C   -0.014743
     5  C   -0.267079
     6  H    0.149297
     7  H    0.145753
     8  H    0.149584
     9  N   -0.355838
    10  H    0.280300
    11  H    0.280322
    12  H    0.194197
    13  Cl  -0.107669
    14  Br  -0.154934
    15  N   -0.325820
    16  C   -0.247304
    17  H    0.255412
    18  H    0.141854
    19  H    0.127887
    20  H    0.129395
 Sum of Mulliken charges =  -0.00000

 Dipole moment (field-independent basis, Debye):
    X=             -2.2524    Y=             -3.2410    Z=              3.6844  Tot=              5.3993
 Quadrupole moment (field-independent basis, Debye-Ang):
   XX=            -58.6716   YY=            -88.0717   ZZ=            -77.1231
   XY=              7.4824   XZ=             -7.8358   YZ=             -0.6709

  Exact polarizability: 205.267  -4.252 159.633  -6.195  -4.317 127.856
 Approx polarizability: 151.966  -8.369 134.955  -3.357  -2.867 111.106

 ******    1 imaginary frequencies (negative Signs) ******

                      1                      2                      3
                      A                      A                      A
 Frequencies --   -351.6674                26.2139                49.0785
 Red. masses --      6.8251                 3.8143                 4.0618
 Frc consts  --      0.4973                 0.0015                 0.0058
 IR Inten    --    890.3764                 7.8811                18.7562

                      4                      5                      6
                      A                      A                      A
 Frequencies --     80.3203                86.2189                94.2733
 Red. masses --      2.0873                 1.4083                 3.0856
 Frc consts  --      0.0079                 0.0062                 0.0162
 IR Inten    --     13.7027                 6.7851                 3.6611

                      7                      8                      9
                      A                      A                      A
 Frequencies --    121.5708               141.7277               158.3398
 Red. masses --      2.6639                 4.7168                 1.6775
 Frc consts  --      0.0232                 0.0558                 0.0248
 IR Inten    --      0.4640                10.3231                15.3933

                     10                     11                     12
                      A                      A                      A
 Frequencies --    184.5719               191.8617               256.3026
 Red. masses --      3.6171                 4.4902                 5.3589
 Frc consts  --      0.0726                 0.0974                 0.2074
 IR Inten    --      3.3877                34.5612                 8.4510

                     13                     14                     15
                      A                      A                      A
 Frequencies --    287.8316               334.6873               389.6314
 Red. masses --      4.4338                 4.3207                 1.4467
 Frc consts  --      0.2164                 0.2852                 0.1294
 IR Inten    --     27.1057                10.5640                70.7979

                     16                     17                     18
                      A                      A                      A
 Frequencies --    391.9651               446.1249               571.5381
 Red. masses --      7.2528                 3.1937                 3.8404
 Frc consts  --      0.6565                 0.3745                 0.7391
 IR Inten    --     37.5849               176.9417                 9.5112

                     19                     20                     21
                      A                      A                      A
 Frequencies --    645.2469               759.2368               775.2967
 Red. masses --      1.6328                 5.0661                 8.9816
 Frc consts  --      0.4005                 1.7206                 3.1808
 IR Inten    --     14.8440               203.7953                62.8907

                     22                     23                     24
                      A                      A                      A
 Frequencies --    815.6488               982.9566              1014.7331
 Red. masses --      3.8914                 2.4013                 1.2520
 Frc consts  --      1.5253                 1.3670                 0.7595
 IR Inten    --     28.2798                 3.3602                27.1165

                     25                     26                     27
                      A                      A                      A
 Frequencies --   1026.2062              1072.1010              1106.4766
 Red. masses --      1.1376                 3.1341                 1.6009
 Frc consts  --      0.7058                 2.1224                 1.1548
 IR Inten    --    112.8571               224.8355                10.1571

                     28                     29                     30
                      A                      A                      A
 Frequencies --   1122.8109              1157.3930              1189.4493
 Red. masses --      2.1914                 1.2877                 1.7299
 Frc consts  --      1.6277                 1.0163                 1.4420
 IR Inten    --     30.6055                 1.8064                15.4012

                     31                     32                     33
                      A                      A                      A
 Frequencies --   1209.3193              1271.2598              1337.7268
 Red. masses --      1.4058                 1.5658                 1.6397
 Frc consts  --      1.2113                 1.4909                 1.7288
 IR Inten    --     26.2759                96.4776               175.0651

                     34                     35                     36
                      A                      A                      A
 Frequencies --   1342.4330              1441.8784              1456.6372
 Red. masses --      1.3345                 2.8776                 1.2130
 Frc consts  --      1.4170                 3.5248                 1.5164
 IR Inten    --      9.7563               665.6592                 5.5800

                     37                     38                     39
                      A                      A                      A
 Frequencies --   1464.8532              1477.1334              1490.8675
 Red. masses --      1.4946                 1.0739                 1.0404
 Frc consts  --      1.8895                 1.3805                 1.3624
 IR Inten    --    134.5075                11.5658                16.6402

                     40                     41                     42
                      A                      A                      A
 Frequencies --   1502.1649              1507.5272              1566.3092
 Red. masses --      1.0311                 1.0789                 2.0205
 Frc consts  --      1.3709                 1.4446                 2.9206
 IR Inten    --     20.2364                20.3166               735.7064

                     43                     44                     45
                      A                      A                      A
 Frequencies --   1645.6710              1656.6573              3048.0666
 Red. masses --      1.0895                 8.0668                 1.0378
 Frc consts  --      1.7384                13.0442                 5.6811
 IR Inten    --     45.6074               455.9829                78.3297

                     46                     47                     48
                      A                      A                      A
 Frequencies --   3063.5801              3109.1400              3140.2405
 Red. masses --      1.0359                 1.1015                 1.1025
 Frc consts  --      5.7283                 6.2736                 6.4053
 IR Inten    --     59.6292                40.2156                18.5144

                     49                     50                     51
                      A                      A                      A
 Frequencies --   3160.2544              3169.3071              3226.2923
 Red. masses --      1.1021                 1.1050                 1.0927
 Frc consts  --      6.4853                 6.5392                 6.7014
 IR Inten    --     22.1014                13.9039                 1.2566

                     52                     53                     54
                      A                      A                      A
 Frequencies --   3518.2785              3603.3903              3681.6610
 Red. masses --      1.0512                 1.0965                 1.0781
 Frc consts  --      7.6668                 8.3886                 8.6101
 IR Inten    --     25.2893                51.1577                86.4485

 - Thermochemistry -
 -------------------
 Temperature   298.150 Kelvin.  Pressure   1.00000 Atm.
 Atom     1 has atomic number  6 and mass  12.00000

 Molecular mass:   227.96650 amu.
 Principal axes and moments of inertia in atomic units:
                           1         2         3
     Eigenvalues --  2163.568533194.292404412.84988
           X            0.98484   0.17154  -0.02588
           Y           -0.17135   0.98516   0.00958
           Z            0.02714  -0.00500   0.99962
 This molecule is an asymmetric top.
 Rotational symmetry number  1.
 Warning -- assumption of classical behavior for rotation
           may cause significant error
 Rotational temperatures (Kelvin)      0.04003     0.02712     0.01963
 Rotational constants (GHZ):           0.83415     0.56499     0.40897
    1 imaginary frequencies ignored.
 Zero-point vibrational energy     410142.4 (Joules/Mol)
                                   98.02640 (Kcal/Mol)
 Warning -- explicit consideration of  17 degrees of freedom as
           vibrations may cause significant error
 Vibrational temperatures:     37.72    70.61   115.56   124.05   135.64
          (Kelvin)            174.91   203.91   227.82   265.56   276.05
                              368.76   414.13   481.54   560.59   563.95
                              641.87   822.32   928.37  1092.37  1115.48
                             1173.54  1414.26  1459.97  1476.48  1542.51
                             1591.97  1615.47  1665.23  1711.35  1739.94
                             1829.06  1924.69  1931.46  2074.54  2095.78
                             2107.60  2125.27  2145.03  2161.28  2169.00
                             2253.57  2367.75  2383.56  4385.49  4407.81
                             4473.36  4518.11  4546.90  4559.93  4641.92
                             5062.02  5184.47  5297.09

 Zero-point correction=                           0.156215 (Hartree/Particle)
 Thermal correction to Energy=                    0.169264
 Thermal correction to Enthalpy=                  0.170208
 Thermal correction to Gibbs Free Energy=         0.113873
 Sum of electronic and zero-point Energies=          -3415.544408
 Sum of electronic and thermal Energies=             -3415.531359
 Sum of electronic and thermal Enthalpies=           -3415.530415
 Sum of electronic and thermal Free Energies=        -3415.586751

                     E (Thermal)             CV                S
                      KCal/Mol        Cal/Mol-Kelvin    Cal/Mol-Kelvin
 Total                  106.215             42.450            118.568
 Electronic               0.000              0.000              0.000
 Translational            0.889              2.981             42.174
 Rotational               0.889              2.981             31.789
 Vibrational            104.437             36.488             44.604
 Vibration     1          0.593              1.985              6.097
 Vibration     2          0.595              1.978              4.854
 Vibration     3          0.600              1.963              3.883
 Vibration     4          0.601              1.959              3.744
 Vibration     5          0.603              1.953              3.569
 Vibration     6          0.609              1.931              3.075
 Vibration     7          0.615              1.912              2.780
 Vibration     8          0.621              1.893              2.570
 Vibration     9          0.631              1.861              2.282
 Vibration    10          0.634              1.851              2.210
 Vibration    11          0.666              1.752              1.687
 Vibration    12          0.685              1.696              1.487
 Vibration    13          0.716              1.606              1.237
 Vibration    14          0.758              1.492              1.002
 Vibration    15          0.759              1.487              0.993
 Vibration    16          0.805              1.369              0.808
 Vibration    17          0.928              1.093              0.501

 Optimization completed.
    -- Stationary point found.
 Normal termination of Gaussian 16 at Thu Apr 15 20:23:32 2021.
