 Gaussian 16, Revision A.03,
 Gaussian 16:  ES64L-G16RevA.03 25-Dec-2016

 ----------------------------------------------------------------------
 # wB97XD def2tzvp, opt=(ts, noeigen, calcfc, maxcycles=70, maxstep=8),
  freq=noraman, scrf=(iefpcm, solvent=water)
 ----------------------------------------------------------------------

 ------------------------
 0_iteration/TS-360-0.out
 ------------------------
 Symbolic Z-matrix:
 Charge =  0 Multiplicity = 1

 SCF Done:  E(RwB97XD) =  -3552.04164303     A.U. after   15 cycles
 SCF Done:  E(RwB97XD) =  -3552.04073209     A.U. after   14 cycles
 SCF Done:  E(RwB97XD) =  -3552.04020055     A.U. after   14 cycles
 SCF Done:  E(RwB97XD) =  -3552.04069665     A.U. after   14 cycles
 SCF Done:  E(RwB97XD) =  -3552.04300559     A.U. after   14 cycles
 SCF Done:  E(RwB97XD) =  -3552.04471595     A.U. after   14 cycles
 SCF Done:  E(RwB97XD) =  -3552.04664540     A.U. after   13 cycles
 SCF Done:  E(RwB97XD) =  -3552.04849964     A.U. after   13 cycles
 SCF Done:  E(RwB97XD) =  -3552.05028308     A.U. after   13 cycles
 SCF Done:  E(RwB97XD) =  -3552.05189044     A.U. after   13 cycles
 SCF Done:  E(RwB97XD) =  -3552.06017298     A.U. after   12 cycles
 SCF Done:  E(RwB97XD) =  -3552.06014730     A.U. after   12 cycles
 SCF Done:  E(RwB97XD) =  -3552.06016849     A.U. after   12 cycles
 SCF Done:  E(RwB97XD) =  -3552.06018228     A.U. after   11 cycles
 SCF Done:  E(RwB97XD) =  -3552.06018441     A.U. after   11 cycles
 SCF Done:  E(RwB97XD) =  -3552.06018481     A.U. after    8 cycles
 SCF Done:  E(RwB97XD) =  -3552.06018523     A.U. after   10 cycles
 SCF Done:  E(RwB97XD) =  -3552.06018623     A.U. after   11 cycles
 SCF Done:  E(RwB97XD) =  -3552.06018639     A.U. after    7 cycles
 Optimization completed.
    -- Stationary point found.
 Normal termination of Gaussian 16 at Fri Feb 12 20:12:09 2021.

 ---------------------------------------------------------------------
 #N Geom=AllCheck Guess=TCheck SCRF=Check GenChk RwB97XD/def2TZVP Freq
 ---------------------------------------------------------------------

 Structure from the checkpoint file:  "/beegfs/scratch/user/q/tla25/Gau-112373.chk"
 ------------------------
 0_iteration/TS-360-0.out
 ------------------------
 Charge =  0 Multiplicity = 1

                         Standard orientation:
 ---------------------------------------------------------------------
 Center     Atomic      Atomic             Coordinates (Angstroms)
 Number     Number       Type             X           Y           Z
 ---------------------------------------------------------------------
      1          6           0       -1.299906   -0.720616   -0.328275
      2          6           0       -0.167045   -1.606982   -0.291681
      3          8           0       -0.254142   -2.807029   -0.533247
      4          6           0       -1.372976    0.656114   -0.335635
      5          6           0       -2.141487    0.552871    2.433111
      6          1           0       -2.000586    0.845549    3.473859
      7          1           0       -3.204163    0.541753    2.200967
      8          1           0       -1.748051   -0.455534    2.292039
      9          7           0       -1.458630    1.454998    1.516953
     10          1           0       -1.921272    2.353419    1.445548
     11          1           0       -0.497678    1.620681    1.792660
     12          1           0       -2.333011    1.082259   -0.580842
     13         35           0        0.003269    1.781077   -1.043011
     14         17           0       -2.868351   -1.520090   -0.435479
     15          6           0        1.177992   -1.051391    0.076743
     16          6           0        1.400233   -0.494886    1.330131
     17          6           0        2.661414   -0.033966    1.677705
     18          6           0        3.704527   -0.118291    0.767467
     19          6           0        3.489599   -0.688776   -0.480787
     20          6           0        2.234438   -1.166378   -0.820070
     21          1           0        0.591749   -0.443938    2.048736
     22          1           0        2.827930    0.390647    2.659372
     23          1           0        4.686782    0.251554    1.032580
     24          1           0        4.304023   -0.762994   -1.190175
     25          1           0        2.064627   -1.614505   -1.791144
 ---------------------------------------------------------------------

 SCF Done:  E(RwB97XD) =  -3552.06018639     A.U. after    1 cycles

 The electronic state is 1-A.
 Alpha  occ. eigenvalues -- -483.14226-101.69204 -62.69062 -56.48192 -56.47823
 Alpha  occ. eigenvalues --  -56.47804 -19.22692 -14.48228 -10.39563 -10.37619
 Alpha  occ. eigenvalues --  -10.32971 -10.31830 -10.30437 -10.29871 -10.29628
 Alpha  occ. eigenvalues --  -10.29567 -10.29506 -10.29452  -9.57729  -8.83170
 Alpha  occ. eigenvalues --   -7.32372  -7.31508  -7.31500  -6.65364  -6.64184
 Alpha  occ. eigenvalues --   -6.64121  -2.75747  -2.75414  -2.75365  -2.74410
 Alpha  occ. eigenvalues --   -2.74409  -1.13728  -1.03733  -0.97769  -0.97068
 Alpha  occ. eigenvalues --   -0.92107  -0.87279  -0.85767  -0.82565  -0.78952
 Alpha  occ. eigenvalues --   -0.75840  -0.71287  -0.70310  -0.64027  -0.63564
 Alpha  occ. eigenvalues --   -0.59560  -0.57678  -0.57211  -0.56171  -0.55323
 Alpha  occ. eigenvalues --   -0.54026  -0.53525  -0.51594  -0.51181  -0.49074
 Alpha  occ. eigenvalues --   -0.48110  -0.47721  -0.46854  -0.44991  -0.44592
 Alpha  occ. eigenvalues --   -0.43304  -0.41943  -0.39667  -0.38751  -0.37318
 Alpha  occ. eigenvalues --   -0.34895  -0.34255  -0.32932  -0.29170
 Alpha virt. eigenvalues --    0.00785   0.04123   0.04635   0.05561   0.09644
 Alpha virt. eigenvalues --    0.12260   0.13257   0.13796   0.14548   0.15260
 Alpha virt. eigenvalues --    0.16191   0.17134   0.18057   0.18236   0.19265

 Mulliken charges:
               1
     1  C   -0.151521
     2  C    0.206437
     3  O   -0.444776
     4  C    0.001325
     5  C   -0.293198
     6  H    0.160223
     7  H    0.162682
     8  H    0.151590
     9  N   -0.381285
    10  H    0.291064
    11  H    0.280673
    12  H    0.201903
    13  Br  -0.052798
    14  Cl  -0.160290
    15  C    0.157755
    16  C   -0.257101
    17  C   -0.140251
    18  C   -0.143351
    19  C   -0.135427
    20  C   -0.214034
    21  H    0.177919
    22  H    0.144406
    23  H    0.147417
    24  H    0.146716
    25  H    0.143920
 Sum of Mulliken charges =  -0.00000

 Dipole moment (field-independent basis, Debye):
    X=             -0.0785    Y=              9.5720    Z=              5.7217  Tot=             11.1520
 Quadrupole moment (field-independent basis, Debye-Ang):
   XX=            -91.0450   YY=           -116.4130   ZZ=            -90.2295
   XY=            -10.1270   XZ=             -8.1448   YZ=              4.6243

  Exact polarizability: 252.299  13.513 230.275 -13.028  30.334 208.990
 Approx polarizability: 200.038  12.957 192.267  -9.413  23.567 178.523

 ******    1 imaginary frequencies (negative Signs) ******

                      1                      2                      3
                      A                      A                      A
 Frequencies --   -347.3765                33.9857                49.2789
 Red. masses --      6.0522                 5.1967                 5.4454
 Frc consts  --      0.4303                 0.0035                 0.0078
 IR Inten    --    829.5172                 5.4322                 3.1372

                      4                      5                      6
                      A                      A                      A
 Frequencies --     62.1290                73.5587               100.2836
 Red. masses --      3.3520                 5.7851                 3.9473
 Frc consts  --      0.0076                 0.0184                 0.0234
 IR Inten    --      0.3917                 4.6621                 8.7452

                      7                      8                      9
                      A                      A                      A
 Frequencies --    124.5557               148.3587               179.2596
 Red. masses --      4.1801                 6.4899                 2.9524
 Frc consts  --      0.0382                 0.0842                 0.0559
 IR Inten    --      5.0387                 4.9896                 2.4135

                     10                     11                     12
                      A                      A                      A
 Frequencies --    190.2263               208.1487               242.8369
 Red. masses --      1.4039                 4.8333                 8.1538
 Frc consts  --      0.0299                 0.1234                 0.2833
 IR Inten    --      1.8927                 6.2874                24.8674

                     13                     14                     15
                      A                      A                      A
 Frequencies --    257.6561               283.7133               324.2079
 Red. masses --      4.5196                 5.0858                13.9590
 Frc consts  --      0.1768                 0.2412                 0.8645
 IR Inten    --     10.6741                 3.3515                 1.1909

                     16                     17                     18
                      A                      A                      A
 Frequencies --    374.6679               419.1377               453.2102
 Red. masses --      5.7482                 2.9048                 3.9153
 Frc consts  --      0.4754                 0.3007                 0.4738
 IR Inten    --     19.5958                 0.9030                89.6620

                     19                     20                     21
                      A                      A                      A
 Frequencies --    541.3890               587.6724               635.0828
 Red. masses --      3.3763                 2.3519                 6.4166
 Frc consts  --      0.5831                 0.4786                 1.5248
 IR Inten    --      6.6933                 9.6832                 0.2330

                     22                     23                     24
                      A                      A                      A
 Frequencies --    660.0337               712.8526               728.0438
 Red. masses --      3.4305                 4.1326                 1.7796
 Frc consts  --      0.8805                 1.2373                 0.5558
 IR Inten    --     97.8539                41.2515               120.5370

                     25                     26                     27
                      A                      A                      A
 Frequencies --    747.4807               772.2106               811.2890
 Red. masses --      3.0051                 7.7086                 3.5850
 Frc consts  --      0.9893                 2.7083                 1.3902
 IR Inten    --     45.8660                95.4357                64.2122

                     28                     29                     30
                      A                      A                      A
 Frequencies --    854.6136               881.5210               963.3830
 Red. masses --      4.3560                 1.2496                 1.4645
 Frc consts  --      1.8745                 0.5721                 0.8008
 IR Inten    --     65.9928                 1.1716                14.5007

                     31                     32                     33
                      A                      A                      A
 Frequencies --    997.2028              1002.3789              1013.8873
 Red. masses --      1.1158                 1.0864                 1.4050
 Frc consts  --      0.6538                 0.6432                 0.8510
 IR Inten    --     84.3194                38.0121                 2.4023

                     34                     35                     36
                      A                      A                      A
 Frequencies --   1027.0357              1033.7406              1056.8655
 Red. masses --      4.9117                 1.3351                 2.4029
 Frc consts  --      3.0525                 0.8406                 1.5813
 IR Inten    --      1.6697                 0.6143                10.8760

                     37                     38                     39
                      A                      A                      A
 Frequencies --   1074.8807              1103.6304              1107.6174
 Red. masses --      2.6094                 1.3457                 1.7623
 Frc consts  --      1.7763                 0.9657                 1.2738
 IR Inten    --    104.8994                45.6054                29.7563

                     40                     41                     42
                      A                      A                      A
 Frequencies --   1119.0054              1184.0537              1202.7598
 Red. masses --      2.0846                 1.1376                 1.4049
 Frc consts  --      1.5379                 0.9397                 1.1974
 IR Inten    --      9.6605                 0.4279                14.7897

                     43                     44                     45
                      A                      A                      A
 Frequencies --   1204.3664              1258.0926              1322.8917
 Red. masses --      1.1209                 1.8274                 3.9339
 Frc consts  --      0.9579                 1.7042                 4.0562
 IR Inten    --      2.7526                38.3082                12.8942

                     46                     47                     48
                      A                      A                      A
 Frequencies --   1339.4046              1355.0095              1371.7438
 Red. masses --      1.3386                 1.5785                 2.4336
 Frc consts  --      1.4149                 1.7076                 2.6980
 IR Inten    --      7.0226                11.7129               157.0223

                     49                     50                     51
                      A                      A                      A
 Frequencies --   1430.5808              1468.4031              1490.1299
 Red. masses --      4.0415                 1.3934                 2.2292
 Frc consts  --      4.8733                 1.7702                 2.9164
 IR Inten    --    996.6800               127.7566                29.6238

                     52                     53                     54
                      A                      A                      A
 Frequencies --   1492.8298              1502.5752              1540.8228
 Red. masses --      1.0428                 1.0336                 2.3394
 Frc consts  --      1.3693                 1.3749                 3.2723
 IR Inten    --     11.3975                16.7256                 6.7744

                     55                     56                     57
                      A                      A                      A
 Frequencies --   1647.9108              1649.7976              1670.9168
 Red. masses --      1.1479                 4.7103                12.0416
 Frc consts  --      1.8366                 7.5538                19.8082
 IR Inten    --     33.1582                72.9033               693.1721

                     58                     59                     60
                      A                      A                      A
 Frequencies --   1674.5744              3060.7966              3132.4267
 Red. masses --      5.9073                 1.0343                 1.1040
 Frc consts  --      9.7599                 5.7089                 6.3824
 IR Inten    --      1.7403                30.0138                18.2563

                     61                     62                     63
                      A                      A                      A
 Frequencies --   3165.5138              3196.4567              3201.0602
 Red. masses --      1.1046                 1.0859                 1.0880
 Frc consts  --      6.5215                 6.5369                 6.5683
 IR Inten    --     14.0893                 1.7997                 0.5426

                     64                     65                     66
                      A                      A                      A
 Frequencies --   3208.4522              3216.1275              3225.0659
 Red. masses --      1.0916                 1.0954                 1.0989
 Frc consts  --      6.6207                 6.6754                 6.7344
 IR Inten    --      9.7349                34.3156                14.6659

                     67                     68                     69
                      A                      A                      A
 Frequencies --   3242.1586              3524.7892              3610.2898
 Red. masses --      1.0918                 1.0509                 1.0963
 Frc consts  --      6.7617                 7.6928                 8.4188
 IR Inten    --      2.0428                47.9346                54.2503

 - Thermochemistry -
 -------------------
 Temperature   298.150 Kelvin.  Pressure   1.00000 Atm.
 Atom     1 has atomic number  6 and mass  12.00000

 Molecular mass:   274.97125 amu.
 Principal axes and moments of inertia in atomic units:
                           1         2         3
     Eigenvalues --  3228.347904681.759695647.77854
           X            0.99870  -0.04336  -0.02678
           Y            0.04596   0.99338   0.10524
           Z            0.02204  -0.10633   0.99409
 This molecule is an asymmetric top.
 Rotational symmetry number  1.
 Warning -- assumption of classical behavior for rotation
           may cause significant error
 Rotational temperatures (Kelvin)      0.02683     0.01850     0.01534
 Rotational constants (GHZ):           0.55903     0.38548     0.31955
    1 imaginary frequencies ignored.
 Zero-point vibrational energy     505703.6 (Joules/Mol)
                                  120.86605 (Kcal/Mol)
 Warning -- explicit consideration of  19 degrees of freedom as
           vibrations may cause significant error
 Vibrational temperatures:     48.90    70.90    89.39   105.83   144.29
          (Kelvin)            179.21   213.46   257.91   273.69   299.48
                              349.39   370.71   408.20   466.46   539.06
                              603.05   652.07   778.94   845.53   913.74
                              949.64  1025.64  1047.49  1075.46  1111.04
                             1167.26  1229.60  1268.31  1386.09  1434.75
                             1442.20  1458.76  1477.68  1487.32  1520.59
                             1546.51  1587.88  1593.61  1610.00  1703.59
                             1730.50  1732.81  1810.11  1903.35  1927.10
                             1949.56  1973.63  2058.29  2112.70  2143.96
                             2147.85  2161.87  2216.90  2370.98  2373.69
                             2404.08  2409.34  4403.80  4506.86  4554.47
                             4598.99  4605.61  4616.25  4627.29  4640.15
                             4664.74  5071.39  5194.40

 Zero-point correction=                           0.192612 (Hartree/Particle)
 Thermal correction to Energy=                    0.206935
 Thermal correction to Enthalpy=                  0.207879
 Thermal correction to Gibbs Free Energy=         0.149067
 Sum of electronic and zero-point Energies=          -3551.867574
 Sum of electronic and thermal Energies=             -3551.853252
 Sum of electronic and thermal Enthalpies=           -3551.852307
 Sum of electronic and thermal Free Energies=        -3551.911120

                     E (Thermal)             CV                S
                      KCal/Mol        Cal/Mol-Kelvin    Cal/Mol-Kelvin
 Total                  129.854             50.782            123.781
 Electronic               0.000              0.000              0.000
 Translational            0.889              2.981             42.733
 Rotational               0.889              2.981             32.812
 Vibrational            128.076             44.820             48.236
 Vibration     1          0.594              1.983              5.582
 Vibration     2          0.595              1.978              4.846
 Vibration     3          0.597              1.972              4.388
 Vibration     4          0.599              1.966              4.056
 Vibration     5          0.604              1.949              3.449
 Vibration     6          0.610              1.928              3.028
 Vibration     7          0.618              1.904              2.693
 Vibration     8          0.629              1.868              2.336
 Vibration     9          0.634              1.853              2.226
 Vibration    10          0.641              1.828              2.060
 Vibration    11          0.659              1.775              1.782
 Vibration    12          0.667              1.750              1.678
 Vibration    13          0.682              1.704              1.511
 Vibration    14          0.709              1.627              1.289
 Vibration    15          0.746              1.524              1.061
 Vibration    16          0.782              1.429              0.895
 Vibration    17          0.812              1.354              0.786
 Vibration    18          0.896              1.159              0.562
 Vibration    19          0.945              1.058              0.471

 Optimization completed.
    -- Stationary point found.
 Normal termination of Gaussian 16 at Fri Feb 12 20:58:18 2021.
