 Gaussian 16, Revision A.03,
 Gaussian 16:  ES64L-G16RevA.03 25-Dec-2016

 ----------------------------------------------------------------------
 # wB97XD def2tzvp, opt=(ts, noeigen, calcfc, maxcycles=70, maxstep=8),
  freq=noraman, scrf=(iefpcm, solvent=water)
 ----------------------------------------------------------------------

 ------------------------
 0_iteration/TS-334-0.out
 ------------------------
 Symbolic Z-matrix:
 Charge =  0 Multiplicity = 1

 SCF Done:  E(RwB97XD) =  -2995.38311001     A.U. after   15 cycles
 SCF Done:  E(RwB97XD) =  -2995.38220722     A.U. after   12 cycles
 SCF Done:  E(RwB97XD) =  -2995.38165135     A.U. after   13 cycles
 SCF Done:  E(RwB97XD) =  -2995.38177192     A.U. after   13 cycles
 SCF Done:  E(RwB97XD) =  -2995.38219100     A.U. after   14 cycles
 SCF Done:  E(RwB97XD) =  -2995.38278519     A.U. after   13 cycles
 SCF Done:  E(RwB97XD) =  -2995.38314795     A.U. after   13 cycles
 SCF Done:  E(RwB97XD) =  -2995.38319664     A.U. after   12 cycles
 SCF Done:  E(RwB97XD) =  -2995.38330596     A.U. after   12 cycles
 SCF Done:  E(RwB97XD) =  -2995.38322401     A.U. after   12 cycles
 SCF Done:  E(RwB97XD) =  -2995.38318412     A.U. after   11 cycles
 SCF Done:  E(RwB97XD) =  -2995.38336510     A.U. after   12 cycles
 SCF Done:  E(RwB97XD) =  -2995.38338312     A.U. after   10 cycles
 SCF Done:  E(RwB97XD) =  -2995.38338667     A.U. after   10 cycles
 SCF Done:  E(RwB97XD) =  -2995.38338608     A.U. after   10 cycles
 SCF Done:  E(RwB97XD) =  -2995.38338650     A.U. after    8 cycles
 Optimization completed.
    -- Stationary point found.
 Normal termination of Gaussian 16 at Fri Feb 12 16:45:49 2021.

 ---------------------------------------------------------------------
 #N Geom=AllCheck Guess=TCheck SCRF=Check GenChk RwB97XD/def2TZVP Freq
 ---------------------------------------------------------------------

 Structure from the checkpoint file:  "/beegfs/scratch/user/q/tla25/Gau-105654.chk"
 ------------------------
 0_iteration/TS-334-0.out
 ------------------------
 Charge =  0 Multiplicity = 1

                         Standard orientation:
 ---------------------------------------------------------------------
 Center     Atomic      Atomic             Coordinates (Angstroms)
 Number     Number       Type             X           Y           Z
 ---------------------------------------------------------------------
      1          6           0        0.288743    0.717612    1.212668
      2          6           0        1.540501    0.659647    0.462716
      3          8           0        2.267160    1.659164    0.369452
      4          6           0       -0.988124    0.480233    0.738672
      5          6           0       -1.161172    2.947865   -0.369957
      6          1           0       -1.343987    3.579992   -1.237420
      7          1           0       -1.792408    3.271018    0.455709
      8          1           0       -0.116594    3.019595   -0.072247
      9          7           0       -1.455124    1.548494   -0.673256
     10          1           0       -2.434482    1.404285   -0.897321
     11          1           0       -0.906874    1.217941   -1.460621
     12          1           0       -1.795279    0.770503    1.398239
     13         35           0       -1.561572   -1.222075   -0.105398
     14          1           0        0.304600    1.476350    1.988336
     15          7           0        1.908507   -0.504124   -0.168375
     16          6           0        1.677724   -1.806020    0.427656
     17          6           0        3.057267   -0.458639   -1.048206
     18          1           0        0.954783   -1.723485    1.232934
     19          1           0        1.305292   -2.516543   -0.312308
     20          1           0        2.616896   -2.195713    0.837962
     21          1           0        3.047214    0.458891   -1.630906
     22          1           0        4.002036   -0.505236   -0.493906
     23          1           0        3.013212   -1.313053   -1.725028
 ---------------------------------------------------------------------

 SCF Done:  E(RwB97XD) =  -2995.38338650     A.U. after    1 cycles

 The electronic state is 1-A.
 Alpha  occ. eigenvalues -- -483.12100 -62.66977 -56.46069 -56.45747 -56.45733
 Alpha  occ. eigenvalues --  -19.19800 -14.49949 -14.44804 -10.38289 -10.37091
 Alpha  occ. eigenvalues --  -10.31862 -10.30104 -10.29960 -10.24485  -8.81098
 Alpha  occ. eigenvalues --   -6.63182  -6.62163  -6.62117  -2.73574  -2.73295
 Alpha  occ. eigenvalues --   -2.73258  -2.72433  -2.72433  -1.12345  -1.05268
 Alpha  occ. eigenvalues --   -1.02150  -0.91044  -0.84044  -0.80874  -0.79341
 Alpha  occ. eigenvalues --   -0.77769  -0.70080  -0.64364  -0.61767  -0.58043
 Alpha  occ. eigenvalues --   -0.56873  -0.56341  -0.55393  -0.53727  -0.52748
 Alpha  occ. eigenvalues --   -0.49109  -0.48372  -0.47763  -0.47681  -0.46309
 Alpha  occ. eigenvalues --   -0.45347  -0.45013  -0.42321  -0.36941  -0.36713
 Alpha  occ. eigenvalues --   -0.34111  -0.31290  -0.26825
 Alpha virt. eigenvalues --    0.05556   0.07669   0.09626   0.12323   0.13985
 Alpha virt. eigenvalues --    0.14540   0.15051   0.16841   0.16978   0.17785
 Alpha virt. eigenvalues --    0.18858   0.19301   0.19465   0.20926   0.21402

 Mulliken charges:
               1
     1  C   -0.470068
     2  C    0.304755
     3  O   -0.538638
     4  C   -0.029918
     5  C   -0.289623
     6  H    0.160082
     7  H    0.157055
     8  H    0.155464
     9  N   -0.275410
    10  H    0.292732
    11  H    0.289607
    12  H    0.188345
    13  Br  -0.168535
    14  H    0.133243
    15  N   -0.148018
    16  C   -0.276858
    17  C   -0.288945
    18  H    0.147969
    19  H    0.137927
    20  H    0.125905
    21  H    0.135082
    22  H    0.124106
    23  H    0.133742
 Sum of Mulliken charges =  -0.00000

 Dipole moment (field-independent basis, Debye):
    X=             -5.9961    Y=              1.1574    Z=             -3.5412  Tot=              7.0592
 Quadrupole moment (field-independent basis, Debye-Ang):
   XX=            -75.4527   YY=            -71.1625   ZZ=            -72.6310
   XY=            -21.0759   XZ=             -1.4674   YZ=             -4.0265

  Exact polarizability: 177.955   2.698 177.654   9.506   4.809 135.340
 Approx polarizability: 135.878   5.379 141.159   6.702   5.256 117.147

 ******    1 imaginary frequencies (negative Signs) ******

                      1                      2                      3
                      A                      A                      A
 Frequencies --   -378.2133                40.0561                56.8993
 Red. masses --      5.9819                 4.2700                 2.8371
 Frc consts  --      0.5042                 0.0040                 0.0054
 IR Inten    --    639.2320                 5.9626                 4.2887

                      4                      5                      6
                      A                      A                      A
 Frequencies --     78.2861                91.4160               145.1677
 Red. masses --      4.0002                 2.9272                 2.1857
 Frc consts  --      0.0144                 0.0144                 0.0271
 IR Inten    --      0.9489                50.9975                 4.7394

                      7                      8                      9
                      A                      A                      A
 Frequencies --    170.6401               173.0717               191.5349
 Red. masses --      1.7709                 1.6128                 1.7569
 Frc consts  --      0.0304                 0.0285                 0.0380
 IR Inten    --      2.5601                 2.1582                 3.2697

                     10                     11                     12
                      A                      A                      A
 Frequencies --    207.1907               233.6156               276.4188
 Red. masses --      1.4545                 2.6229                 2.1137
 Frc consts  --      0.0368                 0.0843                 0.0952
 IR Inten    --      3.7513                49.8130                11.2776

                     13                     14                     15
                      A                      A                      A
 Frequencies --    286.8888               364.0403               415.8679
 Red. masses --      3.2631                 3.7793                 2.5142
 Frc consts  --      0.1582                 0.2951                 0.2562
 IR Inten    --     37.9709                17.7332                 9.4439

                     16                     17                     18
                      A                      A                      A
 Frequencies --    450.5476               498.4500               573.1049
 Red. masses --      2.2414                 3.1032                 3.9649
 Frc consts  --      0.2681                 0.4543                 0.7673
 IR Inten    --     69.9926               285.7086                24.5759

                     19                     20                     21
                      A                      A                      A
 Frequencies --    608.9982               720.4080               746.2837
 Red. masses --      2.0736                 2.2181                 3.0311
 Frc consts  --      0.4531                 0.6782                 0.9946
 IR Inten    --    128.4786                34.6783                17.6856

                     22                     23                     24
                      A                      A                      A
 Frequencies --    774.4406               851.9251              1007.2046
 Red. masses --      3.0517                 4.5756                 2.3223
 Frc consts  --      1.0784                 1.9566                 1.3881
 IR Inten    --     41.4011                37.6792                55.7171

                     25                     26                     27
                      A                      A                      A
 Frequencies --   1020.5408              1045.5160              1081.0449
 Red. masses --      1.0977                 1.2221                 3.6787
 Frc consts  --      0.6736                 0.7870                 2.5330
 IR Inten    --     18.2044                32.8138                59.4561

                     28                     29                     30
                      A                      A                      A
 Frequencies --   1083.4728              1131.3180              1155.5597
 Red. masses --      1.3791                 1.2356                 1.2000
 Frc consts  --      0.9538                 0.9318                 0.9441
 IR Inten    --     19.7584                 2.0860                19.7012

                     31                     32                     33
                      A                      A                      A
 Frequencies --   1172.4018              1175.2712              1242.4531
 Red. masses --      1.4041                 1.6120                 1.4182
 Frc consts  --      1.1371                 1.3119                 1.2899
 IR Inten    --     62.4741               222.1733               154.3208

                     34                     35                     36
                      A                      A                      A
 Frequencies --   1250.1063              1298.8988              1318.6690
 Red. masses --      1.4062                 3.4639                 1.5180
 Frc consts  --      1.2948                 3.4433                 1.5552
 IR Inten    --    144.2187                88.7454               178.9036

                     37                     38                     39
                      A                      A                      A
 Frequencies --   1344.2019              1416.5276              1441.9643
 Red. masses --      1.3038                 2.4329                 1.4901
 Frc consts  --      1.3880                 2.8762                 1.8255
 IR Inten    --      1.7645               376.6620               116.5191

                     40                     41                     42
                      A                      A                      A
 Frequencies --   1445.9029              1465.1712              1471.7031
 Red. masses --      1.4050                 1.5486                 1.2392
 Frc consts  --      1.7306                 1.9587                 1.5814
 IR Inten    --    100.5369                74.5003                96.7095

                     43                     44                     45
                      A                      A                      A
 Frequencies --   1479.3220              1486.9511              1495.7049
 Red. masses --      1.0718                 1.0662                 1.0396
 Frc consts  --      1.3819                 1.3890                 1.3702
 IR Inten    --      3.3950                57.8979                14.9124

                     46                     47                     48
                      A                      A                      A
 Frequencies --   1499.5675              1500.5782              1529.0460
 Red. masses --      1.0376                 1.0654                 1.3492
 Frc consts  --      1.3747                 1.4135                 1.8586
 IR Inten    --     24.9544                21.9264               218.7221

                     49                     50                     51
                      A                      A                      A
 Frequencies --   1628.9979              1639.2656              3015.6103
 Red. masses --      7.7630                 1.0875                 1.0485
 Frc consts  --     12.1373                 1.7217                 5.6180
 IR Inten    --    820.7829                65.0771                76.5454

                     52                     53                     54
                      A                      A                      A
 Frequencies --   3019.0731              3075.0553              3093.3572
 Red. masses --      1.0505                 1.0324                 1.0908
 Frc consts  --      5.6416                 5.7516                 6.1499
 IR Inten    --    147.9439                34.6210                71.8674

                     55                     56                     57
                      A                      A                      A
 Frequencies --   3102.0993              3162.5798              3166.1104
 Red. masses --      1.0897                 1.1054                 1.0888
 Frc consts  --      6.1783                 6.5141                 6.4304
 IR Inten    --     28.4496                 6.6656                 9.1045

                     58                     59                     60
                      A                      A                      A
 Frequencies --   3166.6693              3170.5145              3182.9369
 Red. masses --      1.0977                 1.1055                 1.0978
 Frc consts  --      6.4854                 6.5476                 6.5527
 IR Inten    --     18.4674                 5.0489                 9.7552

                     61                     62                     63
                      A                      A                      A
 Frequencies --   3206.2125              3508.7042              3592.2819
 Red. masses --      1.0923                 1.0508                 1.0971
 Frc consts  --      6.6155                 7.6218                 8.3411
 IR Inten    --      8.0781                42.6102                53.3345

 - Thermochemistry -
 -------------------
 Temperature   298.150 Kelvin.  Pressure   1.00000 Atm.
 Atom     1 has atomic number  6 and mass  12.00000

 Molecular mass:   208.02112 amu.
 Principal axes and moments of inertia in atomic units:
                           1         2         3
     Eigenvalues --  1697.537752495.113383675.92679
           X            0.97661  -0.21456  -0.01410
           Y            0.21440   0.97667  -0.01213
           Z            0.01637   0.00882   0.99983
 This molecule is an asymmetric top.
 Rotational symmetry number  1.
 Warning -- assumption of classical behavior for rotation
           may cause significant error
 Rotational temperatures (Kelvin)      0.05102     0.03471     0.02356
 Rotational constants (GHZ):           1.06315     0.72331     0.49096
    1 imaginary frequencies ignored.
 Zero-point vibrational energy     509871.3 (Joules/Mol)
                                  121.86216 (Kcal/Mol)
 Warning -- explicit consideration of  18 degrees of freedom as
           vibrations may cause significant error
 Vibrational temperatures:     57.63    81.87   112.64   131.53   208.86
          (Kelvin)            245.51   249.01   275.58   298.10   336.12
                              397.70   412.77   523.77   598.34   648.24
                              717.16   824.57   876.21  1036.51  1073.74
                             1114.25  1225.73  1449.14  1468.33  1504.26
                             1555.38  1558.88  1627.71  1662.59  1686.82
                             1690.95  1787.61  1798.62  1868.83  1897.27
                             1934.01  2038.07  2074.67  2080.33  2108.05
                             2117.45  2128.41  2139.39  2151.99  2157.54
                             2159.00  2199.96  2343.76  2358.54  4338.79
                             4343.77  4424.32  4450.65  4463.23  4550.25
                             4555.33  4556.13  4561.66  4579.54  4613.02
                             5048.24  5168.49

 Zero-point correction=                           0.194200 (Hartree/Particle)
 Thermal correction to Energy=                    0.206790
 Thermal correction to Enthalpy=                  0.207734
 Thermal correction to Gibbs Free Energy=         0.153867
 Sum of electronic and zero-point Energies=          -2995.189187
 Sum of electronic and thermal Energies=             -2995.176596
 Sum of electronic and thermal Enthalpies=           -2995.175652
 Sum of electronic and thermal Free Energies=        -2995.229519

                     E (Thermal)             CV                S
                      KCal/Mol        Cal/Mol-Kelvin    Cal/Mol-Kelvin
 Total                  129.763             43.224            113.373
 Electronic               0.000              0.000              0.000
 Translational            0.889              2.981             41.901
 Rotational               0.889              2.981             31.121
 Vibrational            127.985             37.262             40.350
 Vibration     1          0.594              1.981              5.256
 Vibration     2          0.596              1.975              4.562
 Vibration     3          0.600              1.964              3.933
 Vibration     4          0.602              1.955              3.630
 Vibration     5          0.617              1.908              2.735
 Vibration     6          0.626              1.879              2.428
 Vibration     7          0.627              1.876              2.402
 Vibration     8          0.634              1.852              2.213
 Vibration     9          0.641              1.830              2.068
 Vibration    10          0.654              1.789              1.851
 Vibration    11          0.678              1.717              1.556
 Vibration    12          0.684              1.698              1.492
 Vibration    13          0.738              1.546              1.105
 Vibration    14          0.779              1.436              0.906
 Vibration    15          0.809              1.360              0.794
 Vibration    16          0.854              1.253              0.662
 Vibration    17          0.929              1.089              0.498
 Vibration    18          0.968              1.013              0.434

 Optimization completed.
    -- Stationary point found.
 Normal termination of Gaussian 16 at Fri Feb 12 17:06:49 2021.
