 Gaussian 16, Revision A.03,
 Gaussian 16:  ES64L-G16RevA.03 25-Dec-2016

 ----------------------------------------------------------------------
 # wB97XD def2tzvp, opt=(ts, noeigen, calcfc, maxcycles=70, maxstep=8),
  freq=noraman, scrf=(iefpcm, solvent=water)
 ----------------------------------------------------------------------

 ------------------------
 0_iteration/TS-350-0.out
 ------------------------
 Symbolic Z-matrix:
 Charge =  0 Multiplicity = 1

 SCF Done:  E(RwB97XD) =  -5569.00605990     A.U. after   15 cycles
 SCF Done:  E(RwB97XD) =  -5569.00525690     A.U. after   13 cycles
 SCF Done:  E(RwB97XD) =  -5569.00488765     A.U. after   13 cycles
 SCF Done:  E(RwB97XD) =  -5569.00494325     A.U. after   13 cycles
 SCF Done:  E(RwB97XD) =  -5569.00536566     A.U. after   12 cycles
 SCF Done:  E(RwB97XD) =  -5569.00618131     A.U. after   12 cycles
 SCF Done:  E(RwB97XD) =  -5569.00690843     A.U. after   11 cycles
 SCF Done:  E(RwB97XD) =  -5569.00744911     A.U. after   12 cycles
 SCF Done:  E(RwB97XD) =  -5569.00753968     A.U. after   11 cycles
 SCF Done:  E(RwB97XD) =  -5569.00755577     A.U. after   10 cycles
 SCF Done:  E(RwB97XD) =  -5569.00750673     A.U. after   11 cycles
 SCF Done:  E(RwB97XD) =  -5569.00756011     A.U. after   10 cycles
 SCF Done:  E(RwB97XD) =  -5569.00756059     A.U. after    8 cycles
 SCF Done:  E(RwB97XD) =  -5569.00756070     A.U. after    7 cycles
 Optimization completed.
    -- Stationary point found.
 Normal termination of Gaussian 16 at Fri Feb 12 18:04:48 2021.

 ---------------------------------------------------------------------
 #N Geom=AllCheck Guess=TCheck SCRF=Check GenChk RwB97XD/def2TZVP Freq
 ---------------------------------------------------------------------

 Structure from the checkpoint file:  "/beegfs/scratch/user/q/tla25/Gau-31574.chk"
 ------------------------
 0_iteration/TS-350-0.out
 ------------------------
 Charge =  0 Multiplicity = 1

                         Standard orientation:
 ---------------------------------------------------------------------
 Center     Atomic      Atomic             Coordinates (Angstroms)
 Number     Number       Type             X           Y           Z
 ---------------------------------------------------------------------
      1          6           0        0.253280   -0.230974   -0.212689
      2          6           0        0.736039    0.879732    0.618976
      3          8           0        0.058665    1.256938    1.586225
      4          6           0       -1.078277   -0.515772   -0.342077
      5          6           0       -1.258815   -2.165460    1.965963
      6          1           0       -1.589585   -2.335712    2.991652
      7          1           0       -1.488927   -3.044440    1.365648
      8          1           0       -0.180807   -2.010322    1.965477
      9          7           0       -1.894530   -0.994729    1.378555
     10          1           0       -2.901309   -1.083490    1.317467
     11          1           0       -1.648395   -0.145693    1.879908
     12          1           0       -1.376475   -1.406470   -0.874311
     13         35           0       -2.309660    0.926716   -0.761097
     14         35           0        1.458677   -1.675859   -0.607067
     15          7           0        1.925003    1.459892    0.332645
     16          6           0        2.493720    2.404480    1.270559
     17          6           0        2.553858    1.417333   -0.971532
     18          1           0        2.169869    2.163778    2.279303
     19          1           0        3.581421    2.345195    1.216143
     20          1           0        2.189857    3.430641    1.041229
     21          1           0        1.890114    0.956297   -1.697324
     22          1           0        2.761871    2.439002   -1.298349
     23          1           0        3.495278    0.863570   -0.944489
 ---------------------------------------------------------------------

 SCF Done:  E(RwB97XD) =  -5569.00756070     A.U. after    1 cycles

 The electronic state is 1-A.
 Alpha  occ. eigenvalues -- -483.13034-483.12575 -62.67889 -62.67394 -56.47003
 Alpha  occ. eigenvalues --  -56.46649 -56.46642 -56.46509 -56.46164 -56.46149
 Alpha  occ. eigenvalues --  -19.21232 -14.47248 -14.46304 -10.38821 -10.38359
 Alpha  occ. eigenvalues --  -10.31330 -10.30998 -10.30972 -10.30649  -8.82004
 Alpha  occ. eigenvalues --   -8.81496  -6.64151  -6.63634  -6.63025  -6.62999
 Alpha  occ. eigenvalues --   -6.62533  -6.62486  -2.74536  -2.74216  -2.74194
 Alpha  occ. eigenvalues --   -2.74023  -2.73711  -2.73673  -2.73285  -2.73284
 Alpha  occ. eigenvalues --   -2.72783  -2.72782  -1.13956  -1.03745  -1.02849
 Alpha  occ. eigenvalues --   -0.94073  -0.89176  -0.82339  -0.81233  -0.79453
 Alpha  occ. eigenvalues --   -0.78220  -0.70509  -0.63565  -0.61774  -0.57871
 Alpha  occ. eigenvalues --   -0.56951  -0.56557  -0.56021  -0.53331  -0.53204
 Alpha  occ. eigenvalues --   -0.50310  -0.48768  -0.48487  -0.47682  -0.47357
 Alpha  occ. eigenvalues --   -0.46183  -0.45289  -0.44315  -0.39290  -0.37999
 Alpha  occ. eigenvalues --   -0.37689  -0.36488  -0.34744  -0.32305  -0.27225
 Alpha virt. eigenvalues --    0.02831   0.06227   0.08402   0.10903   0.12292
 Alpha virt. eigenvalues --    0.14425   0.15574   0.16084   0.16375   0.17204
 Alpha virt. eigenvalues --    0.17596   0.18813   0.19045   0.19726   0.20426

 Mulliken charges:
               1
     1  C   -0.287220
     2  C    0.341098
     3  O   -0.543307
     4  C   -0.001849
     5  C   -0.287753
     6  H    0.149763
     7  H    0.150674
     8  H    0.151607
     9  N   -0.344735
    10  H    0.279060
    11  H    0.275372
    12  H    0.202555
    13  Br  -0.117747
    14  Br  -0.140902
    15  N   -0.106099
    16  C   -0.290702
    17  C   -0.300743
    18  H    0.141601
    19  H    0.141776
    20  H    0.138866
    21  H    0.161341
    22  H    0.142067
    23  H    0.145276
 Sum of Mulliken charges =  -0.00000

 Dipole moment (field-independent basis, Debye):
    X=             -1.1269    Y=             -2.3089    Z=              1.2323  Tot=              2.8495
 Quadrupole moment (field-independent basis, Debye-Ang):
   XX=            -79.4867   YY=            -87.8261   ZZ=            -91.6699
   XY=             14.6057   XZ=             -5.6187   YZ=             -7.2578

  Exact polarizability: 224.593   1.864 189.497 -16.445  -5.822 164.437
 Approx polarizability: 172.806  -3.041 152.808 -12.692  -1.148 140.017

 ******    1 imaginary frequencies (negative Signs) ******

                      1                      2                      3
                      A                      A                      A
 Frequencies --   -386.5391                43.1751                64.3580
 Red. masses --      6.0224                 3.7995                 4.2624
 Frc consts  --      0.5302                 0.0042                 0.0104
 IR Inten    --    832.7783                 2.8490                 6.1250

                      4                      5                      6
                      A                      A                      A
 Frequencies --     76.9318                87.3511               117.1742
 Red. masses --      3.0852                 2.9196                 4.4115
 Frc consts  --      0.0108                 0.0131                 0.0357
 IR Inten    --      6.2787                10.7608                28.1416

                      7                      8                      9
                      A                      A                      A
 Frequencies --    119.5765               132.8975               149.5511
 Red. masses --      1.3277                 5.5080                 3.9779
 Frc consts  --      0.0112                 0.0573                 0.0524
 IR Inten    --      2.5266                 1.4598                 1.8792

                     10                     11                     12
                      A                      A                      A
 Frequencies --    160.9651               183.3650               199.5616
 Red. masses --      1.8234                 1.4296                 1.8350
 Frc consts  --      0.0278                 0.0283                 0.0431
 IR Inten    --      5.4650                 3.3668                 3.0429

                     13                     14                     15
                      A                      A                      A
 Frequencies --    225.8768               247.2208               263.0578
 Red. masses --      3.0451                 2.8816                 5.5321
 Frc consts  --      0.0915                 0.1038                 0.2256
 IR Inten    --      8.4558                10.7302                30.4126

                     16                     17                     18
                      A                      A                      A
 Frequencies --    287.6298               386.5686               432.3170
 Red. masses --      2.7698                 3.2486                 2.7890
 Frc consts  --      0.1350                 0.2860                 0.3071
 IR Inten    --     37.2132                14.3640                47.9628

                     19                     20                     21
                      A                      A                      A
 Frequencies --    467.8546               548.2186               645.5605
 Red. masses --      8.7805                 3.1603                 2.9466
 Frc consts  --      1.1324                 0.5596                 0.7235
 IR Inten    --     55.0705                11.7439                47.8667

                     22                     23                     24
                      A                      A                      A
 Frequencies --    683.0011               716.2089               780.6087
 Red. masses --      5.9128                 2.2573                 9.7934
 Frc consts  --      1.6251                 0.6822                 3.5160
 IR Inten    --    119.5254                70.4276                41.4194

                     25                     26                     27
                      A                      A                      A
 Frequencies --    912.0909               982.8121              1020.4643
 Red. masses --      4.7327                 1.1009                 1.8910
 Frc consts  --      2.3197                 0.6265                 1.1602
 IR Inten    --     22.1115               115.0879                21.8744

                     28                     29                     30
                      A                      A                      A
 Frequencies --   1041.5607              1076.4512              1087.8428
 Red. masses --      1.2828                 1.2036                 3.4237
 Frc consts  --      0.8199                 0.8217                 2.3871
 IR Inten    --     39.2774               187.9149                10.4081

                     31                     32                     33
                      A                      A                      A
 Frequencies --   1090.6525              1132.2759              1170.2343
 Red. masses --      1.3780                 1.2314                 1.4633
 Frc consts  --      0.9658                 0.9301                 1.1807
 IR Inten    --     15.1749                 0.9266                 7.6951

                     34                     35                     36
                      A                      A                      A
 Frequencies --   1181.1703              1198.9396              1277.9016
 Red. masses --      1.6877                 1.4235                 1.6006
 Frc consts  --      1.3873                 1.2056                 1.5400
 IR Inten    --    162.1272                27.3851                30.2143

                     37                     38                     39
                      A                      A                      A
 Frequencies --   1318.2837              1352.1350              1434.4804
 Red. masses --      4.5889                 1.3071                 2.1613
 Frc consts  --      4.6987                 1.4079                 2.6203
 IR Inten    --     48.3213                 5.0751               737.9180

                     40                     41                     42
                      A                      A                      A
 Frequencies --   1442.3545              1449.4384              1466.2000
 Red. masses --      1.7473                 1.3192                 1.7050
 Frc consts  --      2.1417                 1.6330                 2.1595
 IR Inten    --     41.2088                36.0275               128.9285

                     43                     44                     45
                      A                      A                      A
 Frequencies --   1475.9571              1483.6314              1489.2835
 Red. masses --      1.1621                 1.1194                 1.0409
 Frc consts  --      1.4916                 1.4518                 1.3602
 IR Inten    --     47.4731                 5.0002                20.3538

                     46                     47                     48
                      A                      A                      A
 Frequencies --   1492.5180              1501.2679              1503.0886
 Red. masses --      1.0800                 1.0516                 1.0340
 Frc consts  --      1.4175                 1.3964                 1.3764
 IR Inten    --     35.6338                15.4149                11.4794

                     49                     50                     51
                      A                      A                      A
 Frequencies --   1538.2693              1623.8401              1650.6774
 Red. masses --      1.6863                 1.5562                 2.4104
 Frc consts  --      2.3510                 2.4177                 3.8696
 IR Inten    --    222.0558               464.2763               340.1641

                     52                     53                     54
                      A                      A                      A
 Frequencies --   3037.2570              3044.8148              3062.4192
 Red. masses --      1.0433                 1.0382                 1.0343
 Frc consts  --      5.6704                 5.6711                 5.7152
 IR Inten    --     70.5775                99.6903                49.3875

                     55                     56                     57
                      A                      A                      A
 Frequencies --   3101.3100              3111.1367              3138.2881
 Red. masses --      1.1030                 1.0969                 1.1033
 Frc consts  --      6.2508                 6.2557                 6.4025
 IR Inten    --     61.0893                20.4920                19.0370

                     58                     59                     60
                      A                      A                      A
 Frequencies --   3160.6649              3174.8472              3175.7074
 Red. masses --      1.1053                 1.1007                 1.0992
 Frc consts  --      6.5058                 6.5370                 6.5313
 IR Inten    --     18.3867                 9.9706                12.1454

                     61                     62                     63
                      A                      A                      A
 Frequencies --   3237.9130              3492.8443              3603.8968
 Red. masses --      1.0932                 1.0534                 1.0947
 Frc consts  --      6.7529                 7.5718                 8.3769
 IR Inten    --      1.4273                47.0140                87.2831

 - Thermochemistry -
 -------------------
 Temperature   298.150 Kelvin.  Pressure   1.00000 Atm.
 Atom     1 has atomic number  6 and mass  12.00000

 Molecular mass:   285.93164 amu.
 Principal axes and moments of inertia in atomic units:
                           1         2         3
     Eigenvalues --  2902.408004376.069145433.67181
           X            0.97639   0.21365  -0.03191
           Y           -0.21498   0.97551  -0.04644
           Z            0.02121   0.05220   0.99841
 This molecule is an asymmetric top.
 Rotational symmetry number  1.
 Warning -- assumption of classical behavior for rotation
           may cause significant error
 Rotational temperatures (Kelvin)      0.02984     0.01979     0.01594
 Rotational constants (GHZ):           0.62181     0.41241     0.33214
    1 imaginary frequencies ignored.
 Zero-point vibrational energy     483015.9 (Joules/Mol)
                                  115.44357 (Kcal/Mol)
 Warning -- explicit consideration of  19 degrees of freedom as
           vibrations may cause significant error
 Vibrational temperatures:     62.12    92.60   110.69   125.68   168.59
          (Kelvin)            172.04   191.21   215.17   231.59   263.82
                              287.12   324.99   355.70   378.48   413.84
                              556.19   622.01   673.14   788.76   928.82
                              982.69  1030.46  1123.12  1312.30  1414.05
                             1468.22  1498.57  1548.77  1565.16  1569.21
                             1629.09  1683.71  1699.44  1725.01  1838.62
                             1896.72  1945.42  2063.90  2075.23  2085.42
                             2109.53  2123.57  2134.61  2142.75  2147.40
                             2159.99  2162.61  2213.23  2336.34  2374.96
                             4369.94  4380.81  4406.14  4462.09  4476.23
                             4515.30  4547.49  4567.90  4569.13  4658.63
                             5025.42  5185.20

 Zero-point correction=                           0.183971 (Hartree/Particle)
 Thermal correction to Energy=                    0.198300
 Thermal correction to Enthalpy=                  0.199244
 Thermal correction to Gibbs Free Energy=         0.140543
 Sum of electronic and zero-point Energies=          -5568.823590
 Sum of electronic and thermal Energies=             -5568.809261
 Sum of electronic and thermal Enthalpies=           -5568.808316
 Sum of electronic and thermal Free Energies=        -5568.867018

                     E (Thermal)             CV                S
                      KCal/Mol        Cal/Mol-Kelvin    Cal/Mol-Kelvin
 Total                  124.435             47.527            123.548
 Electronic               0.000              0.000              0.000
 Translational            0.889              2.981             42.850
 Rotational               0.889              2.981             32.601
 Vibrational            122.658             41.565             48.098
 Vibration     1          0.595              1.980              5.108
 Vibration     2          0.597              1.971              4.319
 Vibration     3          0.599              1.965              3.968
 Vibration     4          0.601              1.958              3.719
 Vibration     5          0.608              1.935              3.146
 Vibration     6          0.609              1.933              3.107
 Vibration     7          0.613              1.920              2.904
 Vibration     8          0.618              1.903              2.678
 Vibration     9          0.622              1.890              2.538
 Vibration    10          0.631              1.862              2.294
 Vibration    11          0.638              1.840              2.137
 Vibration    12          0.650              1.802              1.911
 Vibration    13          0.661              1.767              1.750
 Vibration    14          0.670              1.741              1.641
 Vibration    15          0.685              1.697              1.488
 Vibration    16          0.755              1.499              1.013
 Vibration    17          0.793              1.400              0.851
 Vibration    18          0.825              1.321              0.744
 Vibration    19          0.903              1.144              0.548

 Optimization completed.
    -- Stationary point found.
 Normal termination of Gaussian 16 at Fri Feb 12 18:31:33 2021.
