 Gaussian 16, Revision A.03,
 Gaussian 16:  ES64L-G16RevA.03 25-Dec-2016

 ----------------------------------------------------------------------
 # wB97XD def2tzvp, opt=(ts, noeigen, calcfc, maxcycles=70, maxstep=3),
  freq=noraman, scrf=(iefpcm, solvent=water)
 ----------------------------------------------------------------------

 ------------------------
 0_iteration/TS-381-0.out
 ------------------------
 Symbolic Z-matrix:
 Charge =  0 Multiplicity = 1

 SCF Done:  E(RwB97XD) =  -881.396679776     A.U. after   15 cycles
 SCF Done:  E(RwB97XD) =  -881.396562508     A.U. after   11 cycles
 SCF Done:  E(RwB97XD) =  -881.396504157     A.U. after   11 cycles
 SCF Done:  E(RwB97XD) =  -881.396537860     A.U. after   11 cycles
 SCF Done:  E(RwB97XD) =  -881.396705884     A.U. after   11 cycles
 SCF Done:  E(RwB97XD) =  -881.396973752     A.U. after   11 cycles
 SCF Done:  E(RwB97XD) =  -881.397321940     A.U. after   11 cycles
 SCF Done:  E(RwB97XD) =  -881.397733569     A.U. after   12 cycles
 SCF Done:  E(RwB97XD) =  -881.398202629     A.U. after   12 cycles
 SCF Done:  E(RwB97XD) =  -881.398722259     A.U. after   12 cycles
 SCF Done:  E(RwB97XD) =  -881.400707867     A.U. after   11 cycles
 SCF Done:  E(RwB97XD) =  -881.400769949     A.U. after   12 cycles
 SCF Done:  E(RwB97XD) =  -881.400775144     A.U. after   10 cycles
 SCF Done:  E(RwB97XD) =  -881.400776861     A.U. after   10 cycles
 SCF Done:  E(RwB97XD) =  -881.400774028     A.U. after   10 cycles
 SCF Done:  E(RwB97XD) =  -881.400775609     A.U. after   10 cycles
 SCF Done:  E(RwB97XD) =  -881.400776297     A.U. after    8 cycles
 SCF Done:  E(RwB97XD) =  -881.400775892     A.U. after    8 cycles
 SCF Done:  E(RwB97XD) =  -881.400776181     A.U. after    7 cycles
 Optimization completed.
    -- Stationary point found.
 Normal termination of Gaussian 16 at Sat Apr 10 09:32:05 2021.

 ---------------------------------------------------------------------
 #N Geom=AllCheck Guess=TCheck SCRF=Check GenChk RwB97XD/def2TZVP Freq
 ---------------------------------------------------------------------

 Structure from the checkpoint file:  "/beegfs/scratch/user/q/tla25/Gau-164057.chk"
 ------------------------
 0_iteration/TS-381-0.out
 ------------------------
 Charge =  0 Multiplicity = 1

                         Standard orientation:
 ---------------------------------------------------------------------
 Center     Atomic      Atomic             Coordinates (Angstroms)
 Number     Number       Type             X           Y           Z
 ---------------------------------------------------------------------
      1          6           0        0.019520    0.771708   -0.706986
      2          6           0       -1.293140    0.479783   -0.169950
      3          8           0       -2.215141    1.307660   -0.219347
      4          6           0        1.137218   -0.028969   -0.586359
      5          6           0        1.931186    1.161485    1.733281
      6          1           0        0.995543    1.701119    1.592005
      7          1           0        2.168020    1.115652    2.795215
      8          1           0        2.726174    1.684286    1.204764
      9          7           0        1.775920   -0.172946    1.164693
     10          1           0        2.641269   -0.701392    1.172412
     11          1           0        1.073844   -0.707045    1.665391
     12          1           0        2.051536    0.348048   -1.024055
     13         17           0        1.105307   -1.820512   -0.916128
     14          6           0        0.212718    2.167105   -1.256168
     15          1           0        1.231877    2.303138   -1.622347
     16          1           0       -0.465878    2.366954   -2.089723
     17          1           0        0.025552    2.941240   -0.505455
     18          7           0       -1.506008   -0.719544    0.466885
     19          6           0       -2.836002   -1.093133    0.892329
     20          1           0       -0.886370   -1.477405    0.238055
     21          1           0       -3.535303   -1.181026    0.055030
     22          1           0       -2.779410   -2.052775    1.403533
     23          1           0       -3.234348   -0.353809    1.586189
 ---------------------------------------------------------------------

 SCF Done:  E(RwB97XD) =  -881.400776181     A.U. after    1 cycles

 The electronic state is 1-A.
 Alpha  occ. eigenvalues -- -101.69542 -19.19229 -14.49447 -14.43652 -10.38505
 Alpha  occ. eigenvalues --  -10.36547 -10.31941 -10.30165 -10.26731 -10.25534
 Alpha  occ. eigenvalues --   -9.58148  -7.32736  -7.31953  -7.31928  -1.11769
 Alpha  occ. eigenvalues --   -1.05014  -1.00349  -0.95713  -0.87726  -0.79710
 Alpha  occ. eigenvalues --   -0.79361  -0.76348  -0.70024  -0.65419  -0.63687
 Alpha  occ. eigenvalues --   -0.58300  -0.57582  -0.55536  -0.54742  -0.52785
 Alpha  occ. eigenvalues --   -0.52463  -0.49887  -0.49050  -0.48000  -0.46823
 Alpha  occ. eigenvalues --   -0.46358  -0.44932  -0.44725  -0.43980  -0.39845
 Alpha  occ. eigenvalues --   -0.38947  -0.33712  -0.32593  -0.26345
 Alpha virt. eigenvalues --    0.06454   0.08003   0.10420   0.12840   0.12988
 Alpha virt. eigenvalues --    0.15025   0.16016   0.17048   0.17617   0.18117
 Alpha virt. eigenvalues --    0.18671   0.19687   0.20463   0.21422   0.21976

 Mulliken charges:
               1
     1  C   -0.219502
     2  C    0.302979
     3  O   -0.555700
     4  C   -0.053735
     5  C   -0.289554
     6  H    0.160350
     7  H    0.162402
     8  H    0.157065
     9  N   -0.289841
    10  H    0.291522
    11  H    0.279564
    12  H    0.192416
    13  Cl  -0.167647
    14  C   -0.332944
    15  H    0.116545
    16  H    0.114879
    17  H    0.106659
    18  N   -0.327029
    19  C   -0.256986
    20  H    0.228672
    21  H    0.117413
    22  H    0.135505
    23  H    0.126966
 Sum of Mulliken charges =  -0.00000

 Dipole moment (field-independent basis, Debye):
    X=              8.4026    Y=             -3.2156    Z=              5.1915  Tot=             10.3873
 Quadrupole moment (field-independent basis, Debye-Ang):
   XX=            -66.3352   YY=            -72.4190   ZZ=            -64.8184
   XY=             12.1020   XZ=              3.8849   YZ=             -1.2665

  Exact polarizability: 169.350 -12.563 155.170   6.334  -3.916 129.705
 Approx polarizability: 132.270 -11.784 127.535   3.810  -3.009 108.308

 ******    1 imaginary frequencies (negative Signs) ******

                      1                      2                      3
                      A                      A                      A
 Frequencies --   -408.7000                44.3671                64.7599
 Red. masses --      5.7611                 2.9503                 2.1938
 Frc consts  --      0.5670                 0.0034                 0.0054
 IR Inten    --    707.2242                 1.8467                17.6657

                      4                      5                      6
                      A                      A                      A
 Frequencies --     79.6726               130.6501               133.8460
 Red. masses --      3.3512                 2.0188                 1.2214
 Frc consts  --      0.0125                 0.0203                 0.0129
 IR Inten    --     22.2637                19.0253                 2.7380

                      7                      8                      9
                      A                      A                      A
 Frequencies --    138.2919               150.2959               177.1434
 Red. masses --      1.9113                 1.6171                 2.8362
 Frc consts  --      0.0215                 0.0215                 0.0524
 IR Inten    --      1.0656                 2.5622                 9.3991

                     10                     11                     12
                      A                      A                      A
 Frequencies --    188.2369               232.0392               253.7423
 Red. masses --      1.3854                 4.6964                 3.4185
 Frc consts  --      0.0289                 0.1490                 0.1297
 IR Inten    --     12.1748                 8.4518                 6.5861

                     13                     14                     15
                      A                      A                      A
 Frequencies --    305.0655               334.5863               360.1825
 Red. masses --      3.1217                 4.3793                 6.2768
 Frc consts  --      0.1712                 0.2888                 0.4798
 IR Inten    --     15.8105                32.8898                34.3085

                     16                     17                     18
                      A                      A                      A
 Frequencies --    439.5210               495.4691               529.9987
 Red. masses --      3.3628                 1.6501                 2.3502
 Frc consts  --      0.3827                 0.2387                 0.3890
 IR Inten    --     46.0685               189.6327                87.6254

                     19                     20                     21
                      A                      A                      A
 Frequencies --    595.0305               720.0292               745.2170
 Red. masses --      2.9572                 2.9899                 2.2258
 Frc consts  --      0.6169                 0.9133                 0.7283
 IR Inten    --      3.2203               191.1690                50.3113

                     22                     23                     24
                      A                      A                      A
 Frequencies --    791.4567               874.6600               993.2331
 Red. masses --      7.0266                 3.0050                 1.4766
 Frc consts  --      2.5933                 1.3545                 0.8582
 IR Inten    --     62.5849                44.4058               104.3391

                     25                     26                     27
                      A                      A                      A
 Frequencies --   1020.9198              1037.7595              1055.0348
 Red. masses --      1.2800                 1.1428                 2.2586
 Frc consts  --      0.7861                 0.7251                 1.4812
 IR Inten    --     63.1922                57.7262                37.7674

                     28                     29                     30
                      A                      A                      A
 Frequencies --   1062.6843              1086.0292              1147.9748
 Red. masses --      1.4101                 4.7345                 1.2991
 Frc consts  --      0.9382                 3.2901                 1.0087
 IR Inten    --      4.7230                49.3716                 9.2977

                     31                     32                     33
                      A                      A                      A
 Frequencies --   1150.9530              1175.0990              1203.8742
 Red. masses --      1.1352                 1.6500                 2.7370
 Frc consts  --      0.8860                 1.3424                 2.3372
 IR Inten    --     50.2268                49.8237                 7.9775

                     34                     35                     36
                      A                      A                      A
 Frequencies --   1227.8438              1267.3828              1346.3474
 Red. masses --      1.3960                 1.5053                 1.3225
 Frc consts  --      1.2400                 1.4246                 1.4124
 IR Inten    --     39.2211               155.5268                 6.6421

                     37                     38                     39
                      A                      A                      A
 Frequencies --   1376.7186              1415.5488              1445.5436
 Red. masses --      2.3282                 1.3363                 1.4462
 Frc consts  --      2.5999                 1.5777                 1.7805
 IR Inten    --    268.9852                41.0770               179.4159

                     40                     41                     42
                      A                      A                      A
 Frequencies --   1455.3476              1462.1981              1467.9691
 Red. masses --      1.2159                 1.0672                 1.5155
 Frc consts  --      1.5173                 1.3444                 1.9242
 IR Inten    --     21.2993                11.8881               132.0360

                     43                     44                     45
                      A                      A                      A
 Frequencies --   1477.4420              1493.7594              1501.1482
 Red. masses --      1.0646                 1.0441                 1.0417
 Frc consts  --      1.3691                 1.3726                 1.3831
 IR Inten    --     30.5219                44.5599                 9.3629

                     46                     47                     48
                      A                      A                      A
 Frequencies --   1504.2512              1512.1268              1554.0093
 Red. masses --      1.0848                 1.3466                 1.8167
 Frc consts  --      1.4462                 1.8141                 2.5849
 IR Inten    --      1.1503               220.5019               406.5527

                     49                     50                     51
                      A                      A                      A
 Frequencies --   1637.2416              1645.6940              3024.0726
 Red. masses --      1.1934                 4.1791                 1.0382
 Frc consts  --      1.8848                 6.6686                 5.5938
 IR Inten    --    237.8005               690.4621               110.4782

                     52                     53                     54
                      A                      A                      A
 Frequencies --   3035.5687              3072.9099              3073.3624
 Red. masses --      1.0452                 1.0720                 1.0587
 Frc consts  --      5.6747                 5.9642                 5.8920
 IR Inten    --     97.3154                14.1163                77.1767

                     55                     56                     57
                      A                      A                      A
 Frequencies --   3112.5768              3113.9916              3152.7057
 Red. masses --      1.0906                 1.0996                 1.1042
 Frc consts  --      6.2251                 6.2825                 6.4662
 IR Inten    --     44.6284                43.0296                26.2241

                     58                     59                     60
                      A                      A                      A
 Frequencies --   3158.1957              3165.5232              3209.9275
 Red. masses --      1.1055                 1.1064                 1.0918
 Frc consts  --      6.4965                 6.5321                 6.6282
 IR Inten    --      7.7394                14.2135                 6.3620

                     61                     62                     63
                      A                      A                      A
 Frequencies --   3516.9129              3601.8586              3641.6409
 Red. masses --      1.0505                 1.0970                 1.0771
 Frc consts  --      7.6552                 8.3855                 8.4158
 IR Inten    --     41.2891                60.2821               100.3795

 - Thermochemistry -
 -------------------
 Temperature   298.150 Kelvin.  Pressure   1.00000 Atm.
 Atom     1 has atomic number  6 and mass  12.00000

 Molecular mass:   164.07164 amu.
 Principal axes and moments of inertia in atomic units:
                           1         2         3
     Eigenvalues --  1555.524342114.947162562.64133
           X            0.98886   0.14855   0.00909
           Y           -0.14748   0.98628  -0.07417
           Z           -0.01999   0.07200   0.99720
 This molecule is an asymmetric top.
 Rotational symmetry number  1.
 Warning -- assumption of classical behavior for rotation
           may cause significant error
 Rotational temperatures (Kelvin)      0.05568     0.04095     0.03380
 Rotational constants (GHZ):           1.16021     0.85333     0.70425
    1 imaginary frequencies ignored.
 Zero-point vibrational energy     510731.5 (Joules/Mol)
                                  122.06776 (Kcal/Mol)
 Warning -- explicit consideration of  18 degrees of freedom as
           vibrations may cause significant error
 Vibrational temperatures:     63.83    93.18   114.63   187.98   192.57
          (Kelvin)            198.97   216.24   254.87   270.83   333.85
                              365.08   438.92   481.40   518.22   632.37
                              712.87   762.55   856.12  1035.96  1072.20
                             1138.73  1258.44  1429.04  1468.88  1493.10
                             1517.96  1528.97  1562.55  1651.68  1655.96
                             1690.71  1732.11  1766.59  1823.48  1937.09
                             1980.79  2036.66  2079.81  2093.92  2103.78
                             2112.08  2125.71  2149.19  2159.82  2164.28
                             2175.61  2235.87  2355.63  2367.79  4350.97
                             4367.51  4421.23  4421.88  4478.30  4480.34
                             4536.04  4543.94  4554.48  4618.37  5060.05
                             5182.27  5239.51

 Zero-point correction=                           0.194527 (Hartree/Particle)
 Thermal correction to Energy=                    0.207336
 Thermal correction to Enthalpy=                  0.208280
 Thermal correction to Gibbs Free Energy=         0.154786
 Sum of electronic and zero-point Energies=           -881.206249
 Sum of electronic and thermal Energies=              -881.193441
 Sum of electronic and thermal Enthalpies=            -881.192496
 Sum of electronic and thermal Free Energies=         -881.245991

                     E (Thermal)             CV                S
                      KCal/Mol        Cal/Mol-Kelvin    Cal/Mol-Kelvin
 Total                  130.105             43.723            112.588
 Electronic               0.000              0.000              0.000
 Translational            0.889              2.981             41.194
 Rotational               0.889              2.981             30.512
 Vibrational            128.328             37.761             40.882
 Vibration     1          0.595              1.980              5.054
 Vibration     2          0.597              1.971              4.307
 Vibration     3          0.600              1.963              3.899
 Vibration     4          0.612              1.923              2.936
 Vibration     5          0.613              1.920              2.890
 Vibration     6          0.614              1.915              2.827
 Vibration     7          0.618              1.902              2.668
 Vibration     8          0.628              1.870              2.358
 Vibration     9          0.633              1.856              2.245
 Vibration    10          0.653              1.792              1.863
 Vibration    11          0.665              1.756              1.704
 Vibration    12          0.696              1.664              1.389
 Vibration    13          0.716              1.606              1.238
 Vibration    14          0.735              1.554              1.121
 Vibration    15          0.800              1.384              0.828
 Vibration    16          0.851              1.260              0.670
 Vibration    17          0.885              1.184              0.587
 Vibration    18          0.953              1.042              0.458

 Optimization completed.
    -- Stationary point found.
 Normal termination of Gaussian 16 at Sat Apr 10 09:39:04 2021.
