 Gaussian 16, Revision A.03,
 Gaussian 16:  ES64L-G16RevA.03 25-Dec-2016

 ----------------------------------------------------------------------
 # wB97XD def2tzvp, opt=(ts, noeigen, calcfc, maxcycles=70, maxstep=8),
  freq=noraman, scrf=(iefpcm, solvent=water)
 ----------------------------------------------------------------------

 -----------------------
 1_iteration/TS-39-1.out
 -----------------------
 Symbolic Z-matrix:
 Charge =  0 Multiplicity = 1

 SCF Done:  E(RwB97XD) =  -1495.92038359     A.U. after   15 cycles
 SCF Done:  E(RwB97XD) =  -1495.92038440     A.U. after   10 cycles
 SCF Done:  E(RwB97XD) =  -1495.92038433     A.U. after    9 cycles
 SCF Done:  E(RwB97XD) =  -1495.92038426     A.U. after    7 cycles
 Optimization completed.
    -- Stationary point found.
 Normal termination of Gaussian 16 at Fri Jun 11 11:47:46 2021.

 ---------------------------------------------------------------------
 #N Geom=AllCheck Guess=TCheck SCRF=Check GenChk RwB97XD/def2TZVP Freq
 ---------------------------------------------------------------------

 Structure from the checkpoint file:  "/beegfs/scratch/user/q/tla25/Gau-310738.chk"
 -----------------------
 1_iteration/TS-39-1.out
 -----------------------
 Charge =  0 Multiplicity = 1

                         Standard orientation:
 ---------------------------------------------------------------------
 Center     Atomic      Atomic             Coordinates (Angstroms)
 Number     Number       Type             X           Y           Z
 ---------------------------------------------------------------------
      1          6           0       -0.426025   -1.148717   -0.484803
      2          6           0        0.991638   -1.366826   -0.557669
      3          8           0        1.509581   -2.340436   -1.109208
      4          6           0       -1.115933   -0.130462    0.243335
      5          6           0       -0.662445   -1.827441    2.371629
      6          1           0        0.105026   -2.260525    1.736058
      7          1           0       -0.364332   -1.914922    3.414584
      8          1           0       -1.595973   -2.357875    2.206948
      9          7           0       -0.824323   -0.412407    2.018152
     10          1           0       -1.544590    0.018920    2.587341
     11          1           0        0.039197    0.081614    2.220301
     12          6           0       -2.634661   -0.130575    0.087748
     13          6           0       -3.134761    0.324839   -1.132829
     14          6           0       -4.494566    0.368850   -1.376213
     15          6           0       -5.393490   -0.036492   -0.398067
     16          6           0       -4.909812   -0.488208    0.815854
     17          6           0       -3.541361   -0.536592    1.056641
     18          1           0       -2.447085    0.641758   -1.905898
     19          1           0       -4.853991    0.723463   -2.333787
     20          1           0       -6.459062    0.000017   -0.583956
     21          1           0       -5.593717   -0.812274    1.589701
     22          1           0       -3.223271   -0.919742    2.014922
     23          6           0       -0.628689    1.312750    0.082016
     24          6           0       -0.844937    2.285060    1.057207
     25          6           0       -0.456875    3.599091    0.850222
     26          6           0        0.138190    3.973811   -0.344610
     27          6           0        0.329822    3.023979   -1.335123
     28          6           0       -0.055251    1.709404   -1.125350
     29          1           0       -1.336230    2.044771    1.990041
     30          1           0       -0.628952    4.332652    1.627014
     31          1           0        0.441414    5.000261   -0.504695
     32          1           0        0.781073    3.302310   -2.278631
     33          1           0        0.095396    0.972115   -1.902274
     34         17           0       -1.360665   -2.551881   -1.009350
     35          7           0        1.798096   -0.425122    0.090652
     36          6           0        3.194459   -0.339303    0.040216
     37          6           0        3.765306    0.932696    0.135685
     38          6           0        5.140063    1.091431    0.151210
     39          6           0        5.974873   -0.014183    0.063351
     40          6           0        5.410075   -1.277875   -0.029253
     41          6           0        4.033675   -1.451158   -0.035582
     42          1           0        1.364726    0.462312    0.278457
     43          1           0        3.120041    1.802726    0.196012
     44          1           0        5.559282    2.087078    0.226435
     45          1           0        7.050177    0.107973    0.070584
     46          1           0        6.048432   -2.150907   -0.090402
     47          1           0        3.604904   -2.438032   -0.101455
 ---------------------------------------------------------------------

 SCF Done:  E(RwB97XD) =  -1495.92038426     A.U. after    1 cycles

 The electronic state is 1-A.
 Alpha  occ. eigenvalues -- -101.67790 -19.19890 -14.51512 -14.45672 -10.38241
 Alpha  occ. eigenvalues --  -10.38049 -10.33446 -10.32639 -10.32025 -10.31739
 Alpha  occ. eigenvalues --  -10.30518 -10.30253 -10.30055 -10.30015 -10.30013
 Alpha  occ. eigenvalues --  -10.29914 -10.29855 -10.29539 -10.29525 -10.29445
 Alpha  occ. eigenvalues --  -10.29303 -10.28951 -10.28811 -10.28721 -10.28201
 Alpha  occ. eigenvalues --  -10.28176  -9.56312  -7.30940  -7.30104  -7.30092
 Alpha  occ. eigenvalues --   -1.13010  -1.07009  -1.03438  -0.99134  -0.97349
 Alpha  occ. eigenvalues --   -0.95526  -0.94776  -0.90442  -0.86455  -0.86125
 Alpha  occ. eigenvalues --   -0.85735  -0.85046  -0.84885  -0.81587  -0.80444
 Alpha  occ. eigenvalues --   -0.75955  -0.72110  -0.71546  -0.71184  -0.70886
 Alpha  occ. eigenvalues --   -0.70108  -0.67676  -0.66261  -0.64401  -0.63398
 Alpha  occ. eigenvalues --   -0.62008  -0.61073  -0.59612  -0.58220  -0.57810
 Alpha  occ. eigenvalues --   -0.56861  -0.55914  -0.54899  -0.54422  -0.53902
 Alpha  occ. eigenvalues --   -0.53181  -0.52649  -0.51941  -0.51737  -0.51609
 Alpha  occ. eigenvalues --   -0.51243  -0.50757  -0.50035  -0.48975  -0.48516
 Alpha  occ. eigenvalues --   -0.47459  -0.47313  -0.46506  -0.46320  -0.44767
 Alpha  occ. eigenvalues --   -0.44468  -0.43604  -0.43202  -0.42809  -0.42750
 Alpha  occ. eigenvalues --   -0.41556  -0.38933  -0.38238  -0.35617  -0.34834
 Alpha  occ. eigenvalues --   -0.34481  -0.34201  -0.33351  -0.32342  -0.30346
 Alpha  occ. eigenvalues --   -0.26186
 Alpha virt. eigenvalues --    0.02370   0.03481   0.04413   0.05087   0.05402
 Alpha virt. eigenvalues --    0.05665   0.08194   0.10270   0.11621   0.12184
 Alpha virt. eigenvalues --    0.12814   0.13293   0.13913   0.14065   0.15469

 Mulliken charges:
               1
     1  C   -0.182274
     2  C    0.220333
     3  O   -0.519299
     4  C    0.411541
     5  C   -0.304128
     6  H    0.167156
     7  H    0.173004
     8  H    0.164174
     9  N   -0.298684
    10  H    0.292271
    11  H    0.297196
    12  C    0.114928
    13  C   -0.279917
    14  C   -0.134008
    15  C   -0.141272
    16  C   -0.172744
    17  C   -0.219434
    18  H    0.158639
    19  H    0.144529
    20  H    0.145869
    21  H    0.144664
    22  H    0.146649
    23  C    0.040643
    24  C   -0.216550
    25  C   -0.151511
    26  C   -0.135000
    27  C   -0.100270
    28  C   -0.313733
    29  H    0.146090
    30  H    0.148797
    31  H    0.149891
    32  H    0.149298
    33  H    0.183137
    34  Cl  -0.195105
    35  N   -0.240464
    36  C    0.263531
    37  C   -0.277825
    38  C   -0.129653
    39  C   -0.188867
    40  C   -0.093950
    41  C   -0.307727
    42  H    0.216765
    43  H    0.158951
    44  H    0.140114
    45  H    0.139524
    46  H    0.140518
    47  H    0.144202
 Sum of Mulliken charges =  -0.00000

 Dipole moment (field-independent basis, Debye):
    X=             -4.7563    Y=              8.7459    Z=              9.5725  Tot=             13.8111
 Quadrupole moment (field-independent basis, Debye-Ang):
   XX=           -152.6953   YY=           -163.3178   ZZ=           -143.2879
   XY=              7.4818   XZ=             -4.8861   YZ=            -14.9061

  Exact polarizability: 469.470  15.384 394.292 -20.550   4.400 337.138
 Approx polarizability: 348.772   8.889 324.824 -16.879   4.747 299.213

 ******    1 imaginary frequencies (negative Signs) ******

                      1                      2                      3
                      A                      A                      A
 Frequencies --   -326.6079                 8.0981                22.0965
 Red. masses --      5.2114                 4.2602                 4.7072
 Frc consts  --      0.3275                 0.0002                 0.0014
 IR Inten    --    625.2868                 0.5328                 0.2049

                      4                      5                      6
                      A                      A                      A
 Frequencies --     36.9671                44.8663                57.5682
 Red. masses --      3.5852                 5.0118                 4.9417
 Frc consts  --      0.0029                 0.0059                 0.0096
 IR Inten    --      1.4176                 0.0789                 0.3248

                      7                      8                      9
                      A                      A                      A
 Frequencies --     69.6408                82.9348                89.6715
 Red. masses --      5.0431                 5.4806                10.8106
 Frc consts  --      0.0144                 0.0222                 0.0512
 IR Inten    --      1.5610                 3.7511                10.7707

                     10                     11                     12
                      A                      A                      A
 Frequencies --    105.8970               127.5658               144.8175
 Red. masses --      6.2085                 5.4031                 3.5754
 Frc consts  --      0.0410                 0.0518                 0.0442
 IR Inten    --      4.0659                 2.0058                 3.6728

                     13                     14                     15
                      A                      A                      A
 Frequencies --    167.0976               174.5731               194.5202
 Red. masses --      3.0059                 1.4627                 3.2406
 Frc consts  --      0.0495                 0.0263                 0.0722
 IR Inten    --      9.0746                 0.8369                 6.0821

                     16                     17                     18
                      A                      A                      A
 Frequencies --    230.7645               248.2695               262.0707
 Red. masses --      5.8292                 4.5802                 4.7188
 Frc consts  --      0.1829                 0.1663                 0.1909
 IR Inten    --      1.2763                 1.9700                10.9022

                     19                     20                     21
                      A                      A                      A
 Frequencies --    266.7045               307.7053               319.2385
 Red. masses --      4.4368                 5.7767                 2.6407
 Frc consts  --      0.1859                 0.3223                 0.1586
 IR Inten    --      5.6560                 0.1844                 2.6004

                     22                     23                     24
                      A                      A                      A
 Frequencies --    329.6641               347.6465               366.8235
 Red. masses --      5.1687                 4.5423                 6.4636
 Frc consts  --      0.3310                 0.3234                 0.5124
 IR Inten    --     10.6446                36.0811                14.5786

                     25                     26                     27
                      A                      A                      A
 Frequencies --    376.8568               404.0129               423.2967
 Red. masses --      6.8909                 5.8864                 2.9312
 Frc consts  --      0.5766                 0.5661                 0.3094
 IR Inten    --      5.5018                30.6715                 0.5865

                     28                     29                     30
                      A                      A                      A
 Frequencies --    425.2498               427.0061               497.9568
 Red. masses --      2.9716                 2.9304                 3.6968
 Frc consts  --      0.3166                 0.3148                 0.5401
 IR Inten    --      0.2824                 0.1588                 9.1016

                     31                     32                     33
                      A                      A                      A
 Frequencies --    522.7082               544.7180               570.1550
 Red. masses --      2.6014                 3.6915                 1.9605
 Frc consts  --      0.4188                 0.6454                 0.3755
 IR Inten    --     46.2710                 6.6029                64.7186

                     34                     35                     36
                      A                      A                      A
 Frequencies --    593.1171               617.7333               635.0332
 Red. masses --      2.7711                 3.8611                 5.7397
 Frc consts  --      0.5744                 0.8681                 1.3637
 IR Inten    --     28.2780               107.8320                 0.7090

                     37                     38                     39
                      A                      A                      A
 Frequencies --    636.5901               638.0081               657.0573
 Red. masses --      6.2915                 6.1609                 5.9210
 Frc consts  --      1.5022                 1.4776                 1.5061
 IR Inten    --      1.1209                 2.1256                47.2636

                     40                     41                     42
                      A                      A                      A
 Frequencies --    677.5917               717.9544               722.1690
 Red. masses --      5.0731                 1.8652                 1.6196
 Frc consts  --      1.3723                 0.5665                 0.4977
 IR Inten    --    144.2188                55.6047                80.0555

                     43                     44                     45
                      A                      A                      A
 Frequencies --    730.4480               739.9645               767.2436
 Red. masses --      1.6075                 1.8168                 5.9191
 Frc consts  --      0.5053                 0.5861                 2.0529
 IR Inten    --     65.6320               113.5329                 1.5103

                     46                     47                     48
                      A                      A                      A
 Frequencies --    776.1180               782.4799               788.7753
 Red. masses --      2.7881                 1.9898                 2.2972
 Frc consts  --      0.9895                 0.7178                 0.8421
 IR Inten    --     95.8292                66.3167                73.8740

                     49                     50                     51
                      A                      A                      A
 Frequencies --    800.0582               858.7683               860.8947
 Red. masses --      3.1283                 1.2652                 3.4604
 Frc consts  --      1.1798                 0.5498                 1.5111
 IR Inten    --     53.6871                 2.2677                12.0804

                     52                     53                     54
                      A                      A                      A
 Frequencies --    873.7266               881.2010               893.8803
 Red. masses --      1.2712                 1.2579                 4.6383
 Frc consts  --      0.5718                 0.5755                 2.1836
 IR Inten    --      1.8424                 0.3925                19.1550

                     55                     56                     57
                      A                      A                      A
 Frequencies --    931.2337               947.3918               955.4972
 Red. masses --      1.5844                 2.3362                 1.5468
 Frc consts  --      0.8096                 1.2354                 0.8321
 IR Inten    --     11.0576                16.0185                11.2988

                     58                     59                     60
                      A                      A                      A
 Frequencies --    978.3063              1000.6008              1011.8466
 Red. masses --      1.7266                 1.3552                 1.3748
 Frc consts  --      0.9736                 0.7994                 0.8293
 IR Inten    --      3.1353                 0.2766                 0.4876

                     61                     62                     63
                      A                      A                      A
 Frequencies --   1016.2209              1020.0979              1024.1991
 Red. masses --      1.2919                 5.5893                 2.5258
 Frc consts  --      0.7861                 3.4268                 1.5610
 IR Inten    --      0.7038                 2.2284                 1.8024

                     64                     65                     66
                      A                      A                      A
 Frequencies --   1025.1828              1026.5669              1031.1182
 Red. masses --      2.6341                 3.0924                 2.1493
 Frc consts  --      1.6311                 1.9201                 1.3463
 IR Inten    --      6.2678                 5.2383                56.7208

                     67                     68                     69
                      A                      A                      A
 Frequencies --   1032.6194              1042.4001              1045.7748
 Red. masses --      1.9101                 1.3076                 1.3642
 Frc consts  --      1.2000                 0.8371                 0.8790
 IR Inten    --     39.2407                 3.1257                34.6791

                     70                     71                     72
                      A                      A                      A
 Frequencies --   1061.7639              1065.5458              1069.2912
 Red. masses --      2.3266                 2.0295                 3.0962
 Frc consts  --      1.5454                 1.3576                 2.0858
 IR Inten    --     20.5111                28.2108                16.1165

                     73                     74                     75
                      A                      A                      A
 Frequencies --   1073.4484              1104.5608              1119.0172
 Red. masses --      2.1325                 1.3471                 1.5384
 Frc consts  --      1.4478                 0.9684                 1.1350
 IR Inten    --     24.7469                89.3139                17.1330

                     76                     77                     78
                      A                      A                      A
 Frequencies --   1124.7596              1135.8223              1178.6765
 Red. masses --      1.5412                 1.6341                 3.0587
 Frc consts  --      1.1487                 1.2421                 2.5037
 IR Inten    --     14.0871                14.0473                34.8136

                     79                     80                     81
                      A                      A                      A
 Frequencies --   1181.8811              1187.3779              1189.6715
 Red. masses --      1.1253                 1.1273                 1.1719
 Frc consts  --      0.9261                 0.9364                 0.9772
 IR Inten    --      4.2694                 0.5843                 0.7702

                     82                     83                     84
                      A                      A                      A
 Frequencies --   1207.8594              1217.9616              1223.6185
 Red. masses --      1.1414                 1.2502                 2.4640
 Frc consts  --      0.9811                 1.0927                 2.1736
 IR Inten    --     25.5041                60.1585               166.4054

                     85                     86                     87
                      A                      A                      A
 Frequencies --   1241.1911              1272.9935              1283.4671
 Red. masses --      1.2312                 2.5364                 1.7360
 Frc consts  --      1.1175                 2.4217                 1.6849
 IR Inten    --     20.2595               365.5800                48.3007

                     88                     89                     90
                      A                      A                      A
 Frequencies --   1300.2802              1317.1579              1323.9161
 Red. masses --      3.2389                 4.5501                 5.3577
 Frc consts  --      3.2264                 4.6510                 5.5328
 IR Inten    --     57.7142                 8.8518                28.3121

                     91                     92                     93
                      A                      A                      A
 Frequencies --   1340.0918              1352.9093              1361.3768
 Red. masses --      4.2064                 2.8177                 1.6036
 Frc consts  --      4.4507                 3.0386                 1.7511
 IR Inten    --    568.5716               155.3489                10.2091

                     94                     95                     96
                      A                      A                      A
 Frequencies --   1366.9715              1367.5084              1384.5177
 Red. masses --      1.9659                 1.3276                 1.3188
 Frc consts  --      2.1643                 1.4628                 1.4895
 IR Inten    --    191.3101                 7.7265                12.2032

                     97                     98                     99
                      A                      A                      A
 Frequencies --   1472.0164              1473.3805              1489.8262
 Red. masses --      1.2610                 1.8263                 2.2067
 Frc consts  --      1.6099                 2.3359                 2.8858
 IR Inten    --     26.2796               188.7843                 8.4408

                    100                    101                    102
                      A                      A                      A
 Frequencies --   1493.0486              1495.2891              1511.8210
 Red. masses --      2.2118                 1.0407                 1.0432
 Frc consts  --      2.9050                 1.3709                 1.4048
 IR Inten    --     63.9441                16.1690                11.0982

                    103                    104                    105
                      A                      A                      A
 Frequencies --   1539.5134              1544.6789              1550.7179
 Red. masses --      2.1956                 2.4793                 2.1464
 Frc consts  --      3.0661                 3.4854                 3.0410
 IR Inten    --     44.7032               335.6833                26.4812

                    106                    107                    108
                      A                      A                      A
 Frequencies --   1557.8200              1649.5255              1653.5164
 Red. masses --      1.9492                 4.9440                 4.7675
 Frc consts  --      2.7870                 7.9258                 7.6800
 IR Inten    --    181.5710                38.4581               338.9391

                    109                    110                    111
                      A                      A                      A
 Frequencies --   1656.5624              1666.3804              1670.4245
 Red. masses --      6.0778                 3.9336                 2.6825
 Frc consts  --      9.8268                 6.4356                 4.4100
 IR Inten    --    203.9309               318.1845                47.5286

                    112                    113                    114
                      A                      A                      A
 Frequencies --   1674.5377              1676.1646              1681.1418
 Red. masses --      2.7234                 5.6483                 2.3703
 Frc consts  --      4.4994                 9.3497                 3.9470
 IR Inten    --    105.6871               270.0325                66.2796

                    115                    116                    117
                      A                      A                      A
 Frequencies --   3094.9333              3178.3052              3181.1927
 Red. masses --      1.0339                 1.0895                 1.1045
 Frc consts  --      5.8347                 6.4843                 6.5857
 IR Inten    --     20.7724                13.8332                 4.6975

                    118                    119                    120
                      A                      A                      A
 Frequencies --   3195.5101              3197.6326              3199.7891
 Red. masses --      1.0875                 1.1056                 1.0863
 Frc consts  --      6.5429                 6.6604                 6.5528
 IR Inten    --      2.4428                 8.9753                 0.3785

                    121                    122                    123
                      A                      A                      A
 Frequencies --   3202.8776              3205.1420              3207.7594
 Red. masses --      1.0863                 1.0926                 1.0893
 Frc consts  --      6.5657                 6.6132                 6.6038
 IR Inten    --      0.7013                28.9332                 5.4910

                    124                    125                    126
                      A                      A                      A
 Frequencies --   3210.5215              3217.2583              3218.8122
 Red. masses --      1.0888                 1.0932                 1.0920
 Frc consts  --      6.6124                 6.6669                 6.6658
 IR Inten    --      3.0304                20.9728                17.2620

                    127                    128                    129
                      A                      A                      A
 Frequencies --   3220.2815              3225.3263              3225.4299
 Red. masses --      1.0978                 1.0944                 1.0974
 Frc consts  --      6.7077                 6.7080                 6.7267
 IR Inten    --     26.4447                19.7359                24.5143

                    130                    131                    132
                      A                      A                      A
 Frequencies --   3230.7742              3244.6578              3266.1352
 Red. masses --      1.0985                 1.0914                 1.0924
 Frc consts  --      6.7557                 6.7697                 6.8658
 IR Inten    --     10.1193                17.1920                 1.5799

                    133                    134                    135
                      A                      A                      A
 Frequencies --   3517.4296              3590.2660              3633.1859
 Red. masses --      1.0517                 1.0943                 1.0753
 Frc consts  --      7.6668                 8.3111                 8.3632
 IR Inten    --     35.1166                60.0041               189.3548

 - Thermochemistry -
 -------------------
 Temperature   298.150 Kelvin.  Pressure   1.00000 Atm.
 Atom     1 has atomic number  6 and mass  12.00000

 Molecular mass:   364.13424 amu.
 Principal axes and moments of inertia in atomic units:
                           1         2         3
     Eigenvalues --  5429.09035********************
           X            0.99999  -0.00036  -0.00321
           Y            0.00026   0.99957  -0.02943
           Z            0.00322   0.02943   0.99956
 This molecule is an asymmetric top.
 Rotational symmetry number  1.
 Warning -- assumption of classical behavior for rotation
           may cause significant error
 Rotational temperatures (Kelvin)      0.01595     0.00662     0.00547
 Rotational constants (GHZ):           0.33242     0.13803     0.11388
    1 imaginary frequencies ignored.
 Zero-point vibrational energy    1010295.7 (Joules/Mol)
                                  241.46647 (Kcal/Mol)
 Warning -- explicit consideration of  34 degrees of freedom as
           vibrations may cause significant error
 Vibrational temperatures:     11.65    31.79    53.19    64.55    82.83
          (Kelvin)            100.20   119.32   129.02   152.36   183.54
                              208.36   240.42   251.17   279.87   332.02
                              357.20   377.06   383.73   442.72   459.31
                              474.31   500.19   527.78   542.21   581.28
                              609.03   611.84   614.37   716.45   752.06
                              783.73   820.33   853.36   888.78   913.67
                              915.91   917.95   945.36   974.90  1032.98
                             1039.04  1050.95  1064.64  1103.89  1116.66
                             1125.81  1134.87  1151.11  1235.58  1238.64
                             1257.10  1267.85  1286.09  1339.84  1363.09
                             1374.75  1407.56  1439.64  1455.82  1462.12
                             1467.69  1473.59  1475.01  1477.00  1483.55
                             1485.71  1499.78  1504.64  1527.64  1533.08
                             1538.47  1544.45  1589.22  1610.02  1618.28
                             1634.19  1695.85  1700.46  1708.37  1711.67
                             1737.84  1752.38  1760.51  1785.80  1831.55
                             1846.62  1870.81  1895.10  1904.82  1928.09
                             1946.53  1958.72  1966.77  1967.54  1992.01
                             2117.90  2119.87  2143.53  2148.16  2151.39
                             2175.17  2215.02  2222.45  2231.14  2241.36
                             2373.30  2379.04  2383.42  2397.55  2403.37
                             2409.29  2411.63  2418.79  4452.92  4572.87
                             4577.03  4597.63  4600.68  4603.78  4608.23
                             4611.48  4615.25  4619.22  4628.92  4631.15
                             4633.27  4640.53  4640.67  4648.36  4668.34
                             4699.24  5060.80  5165.59  5227.34

 Zero-point correction=                           0.384801 (Hartree/Particle)
 Thermal correction to Energy=                    0.407448
 Thermal correction to Enthalpy=                  0.408393
 Thermal correction to Gibbs Free Energy=         0.330004
 Sum of electronic and zero-point Energies=          -1495.535583
 Sum of electronic and thermal Energies=             -1495.512936
 Sum of electronic and thermal Enthalpies=           -1495.511992
 Sum of electronic and thermal Free Energies=        -1495.590381

                     E (Thermal)             CV                S
                      KCal/Mol        Cal/Mol-Kelvin    Cal/Mol-Kelvin
 Total                  255.678             88.035            164.983
 Electronic               0.000              0.000              0.000
 Translational            0.889              2.981             43.570
 Rotational               0.889              2.981             35.374
 Vibrational            253.900             82.073             86.039
 Vibration     1          0.593              1.987              8.430
 Vibration     2          0.593              1.985              6.436
 Vibration     3          0.594              1.982              5.415
 Vibration     4          0.595              1.979              5.032
 Vibration     5          0.596              1.974              4.539
 Vibration     6          0.598              1.969              4.163
 Vibration     7          0.600              1.961              3.820
 Vibration     8          0.602              1.956              3.667
 Vibration     9          0.605              1.945              3.343
 Vibration    10          0.611              1.926              2.982
 Vibration    11          0.616              1.908              2.739
 Vibration    12          0.624              1.883              2.468
 Vibration    13          0.627              1.874              2.386
 Vibration    14          0.635              1.847              2.184
 Vibration    15          0.652              1.794              1.873
 Vibration    16          0.662              1.766              1.743
 Vibration    17          0.669              1.742              1.648
 Vibration    18          0.672              1.734              1.617
 Vibration    19          0.698              1.659              1.375
 Vibration    20          0.705              1.637              1.314
 Vibration    21          0.712              1.616              1.262
 Vibration    22          0.725              1.580              1.177
 Vibration    23          0.740              1.540              1.093
 Vibration    24          0.747              1.519              1.052
 Vibration    25          0.769              1.461              0.948
 Vibration    26          0.785              1.420              0.881
 Vibration    27          0.787              1.415              0.874
 Vibration    28          0.789              1.411              0.868
 Vibration    29          0.853              1.255              0.663
 Vibration    30          0.878              1.200              0.604
 Vibration    31          0.900              1.151              0.555
 Vibration    32          0.926              1.096              0.504
 Vibration    33          0.951              1.046              0.462
 Vibration    34          0.978              0.994              0.420

 Optimization completed on the basis of negligible forces.
    -- Stationary point found.
 Normal termination of Gaussian 16 at Fri Jun 11 14:11:50 2021.
