 Gaussian 16, Revision A.03,
 Gaussian 16:  ES64L-G16RevA.03 25-Dec-2016

 ----------------------------------------------------------------------
 # wB97XD def2tzvp, opt=(ts, noeigen, calcfc, maxcycles=70, maxstep=8),
  freq=noraman, scrf=(iefpcm, solvent=water)
 ----------------------------------------------------------------------

 ------------------------
 0_iteration/TS-319-0.out
 ------------------------
 Symbolic Z-matrix:
 Charge =  0 Multiplicity = 1

 SCF Done:  E(RwB97XD) =  -1073.14788509     A.U. after   14 cycles
 SCF Done:  E(RwB97XD) =  -1073.14787974     A.U. after   11 cycles
 SCF Done:  E(RwB97XD) =  -1073.14792818     A.U. after   10 cycles
 SCF Done:  E(RwB97XD) =  -1073.14805612     A.U. after   10 cycles
 SCF Done:  E(RwB97XD) =  -1073.14854117     A.U. after   12 cycles
 SCF Done:  E(RwB97XD) =  -1073.14888290     A.U. after   12 cycles
 SCF Done:  E(RwB97XD) =  -1073.14903948     A.U. after   12 cycles
 SCF Done:  E(RwB97XD) =  -1073.14918643     A.U. after   11 cycles
 SCF Done:  E(RwB97XD) =  -1073.14926919     A.U. after   12 cycles
 SCF Done:  E(RwB97XD) =  -1073.14931147     A.U. after   12 cycles
 SCF Done:  E(RwB97XD) =  -1073.14932523     A.U. after   10 cycles
 SCF Done:  E(RwB97XD) =  -1073.14933038     A.U. after   10 cycles
 SCF Done:  E(RwB97XD) =  -1073.14932746     A.U. after   10 cycles
 SCF Done:  E(RwB97XD) =  -1073.14932989     A.U. after    8 cycles
 SCF Done:  E(RwB97XD) =  -1073.14932950     A.U. after    8 cycles
 SCF Done:  E(RwB97XD) =  -1073.14932896     A.U. after    8 cycles
 SCF Done:  E(RwB97XD) =  -1073.14932916     A.U. after    7 cycles
 SCF Done:  E(RwB97XD) =  -1073.14932920     A.U. after    6 cycles
 SCF Done:  E(RwB97XD) =  -1073.14932913     A.U. after    6 cycles
 Optimization completed.
    -- Stationary point found.
 Normal termination of Gaussian 16 at Fri Feb 12 19:36:43 2021.

 ---------------------------------------------------------------------
 #N Geom=AllCheck Guess=TCheck SCRF=Check GenChk RwB97XD/def2TZVP Freq
 ---------------------------------------------------------------------

 Structure from the checkpoint file:  "/beegfs/scratch/user/q/tla25/Gau-93202.chk"
 ------------------------
 0_iteration/TS-319-0.out
 ------------------------
 Charge =  0 Multiplicity = 1

                         Standard orientation:
 ---------------------------------------------------------------------
 Center     Atomic      Atomic             Coordinates (Angstroms)
 Number     Number       Type             X           Y           Z
 ---------------------------------------------------------------------
      1          6           0        1.449132    0.474308   -0.508076
      2          6           0        0.217443   -0.247400   -0.342381
      3          8           0        0.170224   -1.483456   -0.355984
      4          6           0        2.717222   -0.097091   -0.629641
      5          6           0        4.861717   -0.688174    1.237099
      6          1           0        5.428473    0.041592    0.659795
      7          1           0        5.197836   -0.658689    2.274135
      8          1           0        5.050267   -1.680319    0.833780
      9          7           0        3.436664   -0.380570    1.120783
     10          1           0        2.857176   -1.107970    1.523840
     11          1           0        3.208216    0.487365    1.590904
     12          1           0        3.490636    0.618399   -0.890706
     13          6           0        2.947819   -1.452912   -1.242784
     14          1           0        2.592126   -1.435138   -2.274009
     15          1           0        4.011410   -1.687031   -1.258843
     16          1           0        2.401010   -2.231171   -0.719388
     17         17           0        1.450553    2.232663   -0.229803
     18          7           0       -0.924528    0.513997   -0.182901
     19          6           0       -2.247319    0.108621   -0.007061
     20          6           0       -2.673217   -1.221699    0.000808
     21          6           0       -4.017893   -1.514721    0.184376
     22          6           0       -4.958640   -0.512311    0.359539
     23          6           0       -4.536070    0.810843    0.349552
     24          6           0       -3.200527    1.118824    0.169507
     25          1           0       -0.781442    1.510025   -0.176952
     26          1           0       -1.951603   -2.009606   -0.136077
     27          1           0       -4.328710   -2.552552    0.188141
     28          1           0       -6.003716   -0.755041    0.501068
     29          1           0       -5.251335    1.612905    0.483509
     30          1           0       -2.884502    2.155888    0.164531
 ---------------------------------------------------------------------

 SCF Done:  E(RwB97XD) =  -1073.14932913     A.U. after    1 cycles

 The electronic state is 1-A.
 Alpha  occ. eigenvalues -- -101.68835 -19.20083 -14.48210 -14.45849 -10.38492
 Alpha  occ. eigenvalues --  -10.34359 -10.33680 -10.31862 -10.30235 -10.28922
 Alpha  occ. eigenvalues --  -10.28759 -10.28652 -10.28078 -10.27961 -10.27762
 Alpha  occ. eigenvalues --   -9.57378  -7.31972  -7.31205  -7.31154  -1.13081
 Alpha  occ. eigenvalues --   -1.03733  -1.03676  -0.96395  -0.94737  -0.87927
 Alpha  occ. eigenvalues --   -0.84970  -0.84777  -0.79327  -0.78115  -0.73818
 Alpha  occ. eigenvalues --   -0.71387  -0.68572  -0.64716  -0.62875  -0.62257
 Alpha  occ. eigenvalues --   -0.58589  -0.57257  -0.55869  -0.54968  -0.54072
 Alpha  occ. eigenvalues --   -0.52905  -0.52011  -0.51854  -0.50925  -0.49835
 Alpha  occ. eigenvalues --   -0.49122  -0.48151  -0.46682  -0.46099  -0.45514
 Alpha  occ. eigenvalues --   -0.44561  -0.43306  -0.42634  -0.40728  -0.39826
 Alpha  occ. eigenvalues --   -0.39261  -0.33632  -0.33331  -0.30036  -0.26258
 Alpha virt. eigenvalues --    0.04358   0.05527   0.08738   0.09669   0.11323
 Alpha virt. eigenvalues --    0.13017   0.14074   0.14340   0.14931   0.16103
 Alpha virt. eigenvalues --    0.16963   0.17091   0.18158   0.18285   0.18574

 Mulliken charges:
               1
     1  C   -0.144905
     2  C    0.383140
     3  O   -0.554488
     4  C   -0.066115
     5  C   -0.289802
     6  H    0.151592
     7  H    0.154113
     8  H    0.158205
     9  N   -0.330286
    10  H    0.283725
    11  H    0.280808
    12  H    0.153757
    13  C   -0.347777
    14  H    0.140707
    15  H    0.139520
    16  H    0.143725
    17  Cl  -0.207206
    18  N   -0.275152
    19  C    0.299278
    20  C   -0.299876
    21  C   -0.108840
    22  C   -0.202004
    23  C   -0.098351
    24  C   -0.311491
    25  H    0.227646
    26  H    0.158960
    27  H    0.139891
    28  H    0.139338
    29  H    0.142163
    30  H    0.139726
 Sum of Mulliken charges =  -0.00000

 Dipole moment (field-independent basis, Debye):
    X=              8.0027    Y=              0.5910    Z=              3.6641  Tot=              8.8215
 Quadrupole moment (field-independent basis, Debye-Ang):
   XX=            -60.5241   YY=            -97.8463   ZZ=            -95.8205
   XY=             -8.9530   XZ=              9.1133   YZ=             -0.8552

  Exact polarizability: 330.295  -3.366 230.271   0.312   2.524 154.241
 Approx polarizability: 227.696  -0.587 198.947  -1.875   1.772 135.745

 ******    1 imaginary frequencies (negative Signs) ******

                      1                      2                      3
                      A                      A                      A
 Frequencies --   -358.8060                27.3731                30.9702
 Red. masses --      6.1915                 4.3656                 3.5453
 Frc consts  --      0.4696                 0.0019                 0.0020
 IR Inten    --   1240.4554                 5.3284                 2.6920

                      4                      5                      6
                      A                      A                      A
 Frequencies --     45.6741                70.6380                73.6395
 Red. masses --      3.3680                 2.5476                 5.9258
 Frc consts  --      0.0041                 0.0075                 0.0189
 IR Inten    --      2.0186                10.7171                 6.1482

                      7                      8                      9
                      A                      A                      A
 Frequencies --    103.2646               133.7279               165.6368
 Red. masses --      4.8920                 4.7592                 1.1210
 Frc consts  --      0.0307                 0.0501                 0.0181
 IR Inten    --      2.9712                21.6793                 0.5069

                     10                     11                     12
                      A                      A                      A
 Frequencies --    193.8061               211.7311               238.0341
 Red. masses --      2.7335                 2.7954                 3.8208
 Frc consts  --      0.0605                 0.0738                 0.1275
 IR Inten    --     14.9931                16.6133                18.9190

                     13                     14                     15
                      A                      A                      A
 Frequencies --    241.4350               257.1428               294.9221
 Red. masses --      3.3061                 1.9130                 3.4274
 Frc consts  --      0.1135                 0.0745                 0.1756
 IR Inten    --      0.0721                 4.1626                13.2322

                     16                     17                     18
                      A                      A                      A
 Frequencies --    362.5154               401.2803               424.5530
 Red. masses --      6.1637                 4.2370                 3.0323
 Frc consts  --      0.4772                 0.4020                 0.3220
 IR Inten    --      3.7216                47.6739                 0.4789

                     19                     20                     21
                      A                      A                      A
 Frequencies --    427.4561               465.5688               513.6528
 Red. masses --      3.6125                 8.3569                 5.3168
 Frc consts  --      0.3889                 1.0672                 0.8265
 IR Inten    --     12.2783                54.8165                20.6476

                     22                     23                     24
                      A                      A                      A
 Frequencies --    529.1545               560.7818               634.3290
 Red. masses --      2.8125                 1.1284                 4.4226
 Frc consts  --      0.4640                 0.2091                 1.0485
 IR Inten    --     39.5903               103.2114                14.4644

                     25                     26                     27
                      A                      A                      A
 Frequencies --    637.1431               667.7004               720.0859
 Red. masses --      4.5577                 1.4750                 1.8966
 Frc consts  --      1.0901                 0.3874                 0.5794
 IR Inten    --     11.1411                26.6091                62.9692

                     28                     29                     30
                      A                      A                      A
 Frequencies --    762.9823               782.9283               831.2980
 Red. masses --     10.1441                 1.8157                 4.3316
 Frc consts  --      3.4793                 0.6558                 1.7636
 IR Inten    --     33.3523                95.9964                31.4685

                     31                     32                     33
                      A                      A                      A
 Frequencies --    862.9002               865.1407               931.4191
 Red. masses --      1.2672                 5.3850                 1.4596
 Frc consts  --      0.5559                 2.3747                 0.7461
 IR Inten    --      0.1177                 5.0026                13.9347

                     34                     35                     36
                      A                      A                      A
 Frequencies --    966.0546               996.2562              1001.0142
 Red. masses --      2.1099                 1.5301                 1.3418
 Frc consts  --      1.1602                 0.8948                 0.7922
 IR Inten    --    122.9119                48.3160                 0.0424

                     37                     38                     39
                      A                      A                      A
 Frequencies --   1015.8766              1016.4978              1022.0484
 Red. masses --      1.2796                 2.8387                 2.8776
 Frc consts  --      0.7780                 1.7281                 1.7710
 IR Inten    --      0.9087                 4.0899                10.3606

                     40                     41                     42
                      A                      A                      A
 Frequencies --   1044.4186              1057.4393              1064.3709
 Red. masses --      1.2279                 1.5597                 1.8485
 Frc consts  --      0.7892                 1.0275                 1.2338
 IR Inten    --     20.6181                43.0240                10.0346

                     43                     44                     45
                      A                      A                      A
 Frequencies --   1074.9169              1118.3217              1144.0459
 Red. masses --      3.3822                 1.5362                 2.4246
 Frc consts  --      2.3025                 1.1320                 1.8698
 IR Inten    --    383.0715                20.1080                27.3187

                     46                     47                     48
                      A                      A                      A
 Frequencies --   1181.3661              1189.2293              1207.9918
 Red. masses --      1.1231                 1.2160                 1.1490
 Frc consts  --      0.9235                 1.0133                 0.9879
 IR Inten    --      8.6749               430.3206                15.9300

                     49                     50                     51
                      A                      A                      A
 Frequencies --   1224.0489              1230.7785              1276.2596
 Red. masses --      1.7380                 1.6460                 2.6138
 Frc consts  --      1.5343                 1.4690                 2.5084
 IR Inten    --      9.8710                75.6207               263.1584

                     52                     53                     54
                      A                      A                      A
 Frequencies --   1344.8751              1347.6964              1357.8276
 Red. masses --      2.5668                 1.3553                 1.9237
 Frc consts  --      2.7353                 1.4503                 2.0897
 IR Inten    --    319.5555                30.6769               135.0061

                     55                     56                     57
                      A                      A                      A
 Frequencies --   1378.5267              1409.8098              1451.4749
 Red. masses --      1.9210                 1.2898                 1.5427
 Frc consts  --      2.1508                 1.5104                 1.9149
 IR Inten    --    434.9837                92.7082               212.7702

                     58                     59                     60
                      A                      A                      A
 Frequencies --   1470.4091              1472.7291              1480.1906
 Red. masses --      1.2352                 1.2817                 2.0304
 Frc consts  --      1.5735                 1.6379                 2.6210
 IR Inten    --    124.2771                17.7439               441.9554

                     61                     62                     63
                      A                      A                      A
 Frequencies --   1493.2522              1501.2372              1513.7792
 Red. masses --      1.0790                 1.1645                 1.0749
 Frc consts  --      1.4175                 1.5462                 1.4513
 IR Inten    --     58.8244               109.7778                59.8840

                     64                     65                     66
                      A                      A                      A
 Frequencies --   1546.7661              1568.8230              1645.3182
 Red. masses --      2.5060                 2.1115                 1.1031
 Frc consts  --      3.5325                 3.0619                 1.7593
 IR Inten    --    203.3459               730.5081                59.3841

                     67                     68                     69
                      A                      A                      A
 Frequencies --   1654.6716              1666.2228              1678.7602
 Red. masses --      6.7467                 3.5233                 6.2051
 Frc consts  --     10.8835                 5.7632                10.3034
 IR Inten    --    192.8373               171.3334               345.3710

                     70                     71                     72
                      A                      A                      A
 Frequencies --   3067.4184              3075.3629              3141.4398
 Red. masses --      1.0345                 1.0383                 1.1037
 Frc consts  --      5.7350                 5.7856                 6.4173
 IR Inten    --     57.2243                27.1799                27.5657

                     73                     74                     75
                      A                      A                      A
 Frequencies --   3142.9647              3157.9645              3170.4381
 Red. masses --      1.1018                 1.0907                 1.1044
 Frc consts  --      6.4128                 6.4084                 6.5406
 IR Inten    --     25.3444                16.3642                17.0389

                     76                     77                     78
                      A                      A                      A
 Frequencies --   3186.5455              3187.4431              3195.2342
 Red. masses --      1.0875                 1.1009                 1.0884
 Frc consts  --      6.5062                 6.5902                 6.5469
 IR Inten    --     14.2810                10.2069                 3.1606

                     79                     80                     81
                      A                      A                      A
 Frequencies --   3205.1219              3220.5629              3271.4382
 Red. masses --      1.0932                 1.0979                 1.0924
 Frc consts  --      6.6166                 6.7093                 6.8882
 IR Inten    --     32.2189                23.4789                 6.9001

                     82                     83                     84
                      A                      A                      A
 Frequencies --   3527.5838              3607.7868              3636.3475
 Red. masses --      1.0509                 1.0963                 1.0762
 Frc consts  --      7.7049                 8.4072                 8.3844
 IR Inten    --     19.4775                45.8861                96.0103

 - Thermochemistry -
 -------------------
 Temperature   298.150 Kelvin.  Pressure   1.00000 Atm.
 Atom     1 has atomic number  6 and mass  12.00000

 Molecular mass:   226.08729 amu.
 Principal axes and moments of inertia in atomic units:
                           1         2         3
     Eigenvalues --  1600.826487457.845898403.50259
           X            0.99986  -0.01639   0.00365
           Y            0.01634   0.99979   0.01203
           Z           -0.00384  -0.01197   0.99992
 This molecule is an asymmetric top.
 Rotational symmetry number  1.
 Warning -- assumption of classical behavior for rotation
           may cause significant error
 Rotational temperatures (Kelvin)      0.05411     0.01161     0.01031
 Rotational constants (GHZ):           1.12738     0.24199     0.21476
    1 imaginary frequencies ignored.
 Zero-point vibrational energy     652418.4 (Joules/Mol)
                                  155.93175 (Kcal/Mol)
 Warning -- explicit consideration of  22 degrees of freedom as
           vibrations may cause significant error
 Vibrational temperatures:     39.38    44.56    65.71   101.63   105.95
          (Kelvin)            148.57   192.40   238.31   278.84   304.63
                              342.48   347.37   369.97   424.33   521.58
                              577.35   610.84   615.01   669.85   739.03
                              761.34   806.84   912.66   916.71   960.67
                             1036.04  1097.76  1126.46  1196.05  1241.52
                             1244.74  1340.10  1389.94  1433.39  1440.24
                             1461.62  1462.51  1470.50  1502.69  1521.42
                             1531.39  1546.57  1609.02  1646.03  1699.72
                             1711.04  1738.03  1761.13  1770.82  1836.25
                             1934.98  1939.03  1953.61  1983.39  2028.40
                             2088.35  2115.59  2118.93  2129.66  2148.46
                             2159.95  2177.99  2225.45  2257.19  2367.25
                             2380.70  2397.32  2415.36  4413.33  4424.76
                             4519.83  4522.03  4543.61  4561.55  4584.73
                             4586.02  4597.23  4611.46  4633.67  4706.87
                             5075.41  5190.80  5231.89

 Zero-point correction=                           0.248493 (Hartree/Particle)
 Thermal correction to Energy=                    0.264119
 Thermal correction to Enthalpy=                  0.265063
 Thermal correction to Gibbs Free Energy=         0.203278
 Sum of electronic and zero-point Energies=          -1072.900836
 Sum of electronic and thermal Energies=             -1072.885210
 Sum of electronic and thermal Enthalpies=           -1072.884266
 Sum of electronic and thermal Free Energies=        -1072.946051

                     E (Thermal)             CV                S
                      KCal/Mol        Cal/Mol-Kelvin    Cal/Mol-Kelvin
 Total                  165.737             56.728            130.038
 Electronic               0.000              0.000              0.000
 Translational            0.889              2.981             42.150
 Rotational               0.889              2.981             32.973
 Vibrational            163.960             50.766             54.916
 Vibration     1          0.593              1.984              6.011
 Vibration     2          0.594              1.984              5.766
 Vibration     3          0.595              1.979              4.996
 Vibration     4          0.598              1.968              4.135
 Vibration     5          0.599              1.966              4.054
 Vibration     6          0.605              1.947              3.392
 Vibration     7          0.613              1.920              2.892
 Vibration     8          0.624              1.885              2.484
 Vibration     9          0.635              1.848              2.191
 Vibration    10          0.643              1.823              2.029
 Vibration    11          0.656              1.782              1.818
 Vibration    12          0.658              1.777              1.792
 Vibration    13          0.667              1.751              1.681
 Vibration    14          0.689              1.683              1.446
 Vibration    15          0.736              1.549              1.111
 Vibration    16          0.767              1.467              0.958
 Vibration    17          0.787              1.417              0.877
 Vibration    18          0.789              1.410              0.867
 Vibration    19          0.823              1.326              0.750
 Vibration    20          0.869              1.220              0.625
 Vibration    21          0.884              1.185              0.589
 Vibration    22          0.916              1.116              0.522

 Optimization completed.
    -- Stationary point found.
 Normal termination of Gaussian 16 at Fri Feb 12 20:24:31 2021.
