 Gaussian 16, Revision A.03,
 Gaussian 16:  ES64L-G16RevA.03 25-Dec-2016

 ----------------------------------------------------------------------
 # wB97XD def2tzvp, opt=(ts, noeigen, calcfc, maxcycles=70, maxstep=8),
  freq=noraman, scrf=(iefpcm, solvent=water)
 ----------------------------------------------------------------------

 ------------------------
 0_iteration/TS-301-0.out
 ------------------------
 Symbolic Z-matrix:
 Charge =  0 Multiplicity = 1

 SCF Done:  E(RwB97XD) =  -461.103710330     A.U. after   14 cycles
 SCF Done:  E(RwB97XD) =  -461.103014514     A.U. after   12 cycles
 SCF Done:  E(RwB97XD) =  -461.102572615     A.U. after   12 cycles
 SCF Done:  E(RwB97XD) =  -461.102433107     A.U. after   12 cycles
 SCF Done:  E(RwB97XD) =  -461.102685379     A.U. after   12 cycles
 SCF Done:  E(RwB97XD) =  -461.103013992     A.U. after   12 cycles
 SCF Done:  E(RwB97XD) =  -461.103277283     A.U. after   12 cycles
 SCF Done:  E(RwB97XD) =  -461.103352829     A.U. after   11 cycles
 SCF Done:  E(RwB97XD) =  -461.103349841     A.U. after   11 cycles
 SCF Done:  E(RwB97XD) =  -461.103362503     A.U. after   11 cycles
 SCF Done:  E(RwB97XD) =  -461.103353520     A.U. after   11 cycles
 SCF Done:  E(RwB97XD) =  -461.103366472     A.U. after   10 cycles
 SCF Done:  E(RwB97XD) =  -461.103365755     A.U. after   10 cycles
 SCF Done:  E(RwB97XD) =  -461.103364804     A.U. after    9 cycles
 SCF Done:  E(RwB97XD) =  -461.103364954     A.U. after    9 cycles
 SCF Done:  E(RwB97XD) =  -461.103364456     A.U. after    9 cycles
 SCF Done:  E(RwB97XD) =  -461.103364889     A.U. after    9 cycles
 SCF Done:  E(RwB97XD) =  -461.103365079     A.U. after    9 cycles
 SCF Done:  E(RwB97XD) =  -461.103364923     A.U. after    9 cycles
 Optimization completed.
    -- Stationary point found.
 Normal termination of Gaussian 16 at Fri Feb 12 15:49:33 2021.

 ---------------------------------------------------------------------
 #N Geom=AllCheck Guess=TCheck SCRF=Check GenChk RwB97XD/def2TZVP Freq
 ---------------------------------------------------------------------

 Structure from the checkpoint file:  "/beegfs/scratch/user/q/tla25/Gau-38856.chk"
 ------------------------
 0_iteration/TS-301-0.out
 ------------------------
 Charge =  0 Multiplicity = 1

                         Standard orientation:
 ---------------------------------------------------------------------
 Center     Atomic      Atomic             Coordinates (Angstroms)
 Number     Number       Type             X           Y           Z
 ---------------------------------------------------------------------
      1          6           0       -0.182036    0.929046    0.359161
      2          6           0        1.143952    0.514760    0.078035
      3          8           0        2.023888    1.306434   -0.339189
      4          6           0       -1.293749    0.118444    0.783913
      5          6           0       -1.531936   -1.029542   -1.617647
      6          1           0       -0.616488   -0.469288   -1.804068
      7          1           0       -1.287724   -2.038212   -1.294828
      8          1           0       -2.130768   -1.075966   -2.524120
      9          7           0       -2.266762   -0.338348   -0.552284
     10          1           0       -2.639617    0.536484   -0.907063
     11          1           0       -3.057935   -0.890163   -0.232387
     12          1           0       -2.047015    0.739749    1.269421
     13          6           0       -1.155065   -1.173879    1.574386
     14          1           0       -0.424198   -1.041580    2.370136
     15          1           0       -2.110334   -1.440358    2.027534
     16          1           0       -0.844479   -2.028882    0.972871
     17          6           0       -0.510431    2.363962    0.013932
     18          1           0       -0.650334    2.539544   -1.062927
     19          1           0       -1.436730    2.679874    0.504366
     20          1           0        0.279753    3.047980    0.330974
     21          7           0        1.547895   -0.803283    0.307535
     22          6           0        2.794649   -1.273142   -0.253524
     23          1           0        0.823151   -1.494757    0.323076
     24          1           0        2.926081   -2.318681    0.025403
     25          1           0        2.831166   -1.198064   -1.346747
     26          1           0        3.634130   -0.705630    0.145579
 ---------------------------------------------------------------------

 SCF Done:  E(RwB97XD) =  -461.103364923     A.U. after    1 cycles

 The electronic state is 1-A.
 Alpha  occ. eigenvalues --  -19.16857 -14.51361 -14.41953 -10.34225 -10.33618
 Alpha  occ. eigenvalues --  -10.32409 -10.29400 -10.28302 -10.25546 -10.22875
 Alpha  occ. eigenvalues --   -1.09098  -1.06738  -0.98304  -0.89393  -0.82726
 Alpha  occ. eigenvalues --   -0.80415  -0.78088  -0.73227  -0.68481  -0.64981
 Alpha  occ. eigenvalues --   -0.63140  -0.60056  -0.56834  -0.54338  -0.53913
 Alpha  occ. eigenvalues --   -0.51926  -0.50736  -0.49725  -0.49423  -0.48434
 Alpha  occ. eigenvalues --   -0.47589  -0.46114  -0.44743  -0.43457  -0.42857
 Alpha  occ. eigenvalues --   -0.42435  -0.41436  -0.32108  -0.30852  -0.23556
 Alpha virt. eigenvalues --    0.09273   0.10525   0.12110   0.12801   0.14618
 Alpha virt. eigenvalues --    0.15444   0.16018   0.16779   0.17187   0.18657
 Alpha virt. eigenvalues --    0.19265   0.19798   0.20423   0.20890   0.21554

 Mulliken charges:
               1
     1  C   -0.270655
     2  C    0.258308
     3  O   -0.613245
     4  C   -0.069742
     5  C   -0.336467
     6  H    0.170595
     7  H    0.164384
     8  H    0.171075
     9  N   -0.180175
    10  H    0.296285
    11  H    0.295147
    12  H    0.147291
    13  C   -0.398471
    14  H    0.153659
    15  H    0.153364
    16  H    0.124137
    17  C   -0.381922
    18  H    0.097800
    19  H    0.107562
    20  H    0.106826
    21  N   -0.299703
    22  C   -0.252125
    23  H    0.208477
    24  H    0.126434
    25  H    0.102485
    26  H    0.118678
 Sum of Mulliken charges =  -0.00000

 Dipole moment (field-independent basis, Debye):
    X=            -12.3211    Y=             -7.5234    Z=             -1.6595  Tot=             14.5315
 Quadrupole moment (field-independent basis, Debye-Ang):
   XX=            -55.2457   YY=            -66.8410   ZZ=            -61.7829
   XY=             -6.0363   XZ=              4.8508   YZ=              2.0928

  Exact polarizability: 173.157   4.638 143.370  -4.213  -1.704 125.225
 Approx polarizability: 132.880   5.479 115.255  -3.693  -1.668 104.390

 ******    1 imaginary frequencies (negative Signs) ******

                      1                      2                      3
                      A                      A                      A
 Frequencies --   -244.8686                59.3433                69.2381
 Red. masses --      5.3301                 2.9057                 2.6399
 Frc consts  --      0.1883                 0.0060                 0.0075
 IR Inten    --    706.7650                 2.0772                 7.8867

                      4                      5                      6
                      A                      A                      A
 Frequencies --     94.6812               111.9549               131.2414
 Red. masses --      1.8437                 1.3393                 2.6975
 Frc consts  --      0.0097                 0.0099                 0.0274
 IR Inten    --      7.4209                 3.4832                 8.7468

                      7                      8                      9
                      A                      A                      A
 Frequencies --    159.1777               182.8189               193.3914
 Red. masses --      1.3960                 1.6000                 2.0607
 Frc consts  --      0.0208                 0.0315                 0.0454
 IR Inten    --      4.8121                 7.0514                 5.4972

                     10                     11                     12
                      A                      A                      A
 Frequencies --    240.2150               267.1972               293.3202
 Red. masses --      1.5201                 1.6749                 2.4831
 Frc consts  --      0.0517                 0.0705                 0.1259
 IR Inten    --      6.3839                15.3181                16.0298

                     13                     14                     15
                      A                      A                      A
 Frequencies --    323.3034               345.5717               366.5790
 Red. masses --      1.6716                 2.5523                 2.7996
 Frc consts  --      0.1029                 0.1796                 0.2217
 IR Inten    --     15.4737                45.6649                22.5077

                     16                     17                     18
                      A                      A                      A
 Frequencies --    407.9627               474.2977               519.6033
 Red. masses --      2.8017                 1.6279                 3.7105
 Frc consts  --      0.2747                 0.2158                 0.5902
 IR Inten    --     33.2974               127.0510                65.6936

                     19                     20                     21
                      A                      A                      A
 Frequencies --    570.8645               650.6354               771.9067
 Red. masses --      3.3680                 2.8822                 2.3019
 Frc consts  --      0.6467                 0.7189                 0.8081
 IR Inten    --     39.3202                 4.2826                34.3309

                     22                     23                     24
                      A                      A                      A
 Frequencies --    790.9136               823.2819               943.0673
 Red. masses --      2.4721                 2.7427                 1.7751
 Frc consts  --      0.9111                 1.0953                 0.9301
 IR Inten    --     55.2397                46.6401                24.6495

                     25                     26                     27
                      A                      A                      A
 Frequencies --   1010.9658              1023.3085              1044.5633
 Red. masses --      1.7165                 2.2992                 1.3470
 Frc consts  --      1.0336                 1.4185                 0.8660
 IR Inten    --      7.0512                37.7933                31.7534

                     28                     29                     30
                      A                      A                      A
 Frequencies --   1052.9914              1062.3646              1087.1191
 Red. masses --      1.8069                 1.4129                 1.6391
 Frc consts  --      1.1804                 0.9395                 1.1413
 IR Inten    --     46.2799                18.2661                43.0323

                     31                     32                     33
                      A                      A                      A
 Frequencies --   1115.4306              1141.4974              1147.1646
 Red. masses --      1.4547                 1.4333                 1.8314
 Frc consts  --      1.0663                 1.1004                 1.4200
 IR Inten    --     46.1164                 3.4948                93.6338

                     34                     35                     36
                      A                      A                      A
 Frequencies --   1161.8518              1216.2986              1281.6112
 Red. masses --      1.5079                 3.3493                 1.3141
 Frc consts  --      1.1993                 2.9193                 1.2717
 IR Inten    --    111.0037                68.8191               129.6578

                     37                     38                     39
                      A                      A                      A
 Frequencies --   1297.3297              1333.5354              1362.7946
 Red. masses --      1.6880                 1.3691                 1.2444
 Frc consts  --      1.6739                 1.4345                 1.3617
 IR Inten    --    133.7023                80.5415                 5.2644

                     40                     41                     42
                      A                      A                      A
 Frequencies --   1404.1258              1407.8213              1418.8827
 Red. masses --      2.2220                 1.3352                 1.3295
 Frc consts  --      2.5811                 1.5591                 1.5770
 IR Inten    --    209.4708                31.0363                20.2651

                     43                     44                     45
                      A                      A                      A
 Frequencies --   1444.7341              1452.4860              1458.1005
 Red. masses --      1.4741                 1.3320                 1.2713
 Frc consts  --      1.8128                 1.6557                 1.5925
 IR Inten    --    112.0341                 5.0380                26.2308

                     46                     47                     48
                      A                      A                      A
 Frequencies --   1468.1173              1475.9748              1496.0594
 Red. masses --      1.0715                 1.1008                 1.0749
 Frc consts  --      1.3607                 1.4129                 1.4174
 IR Inten    --     15.7170                40.3261                 1.6655

                     49                     50                     51
                      A                      A                      A
 Frequencies --   1500.1927              1503.2238              1507.9450
 Red. masses --      1.1146                 1.1448                 1.1631
 Frc consts  --      1.4780                 1.5242                 1.5583
 IR Inten    --     47.1389                20.5407                48.6243

                     52                     53                     54
                      A                      A                      A
 Frequencies --   1511.6036              1515.6357              1531.8471
 Red. masses --      1.0592                 1.1718                 1.2706
 Frc consts  --      1.4259                 1.5859                 1.7567
 IR Inten    --      4.2730               121.1317               163.4665

                     55                     56                     57
                      A                      A                      A
 Frequencies --   1604.5031              1648.0811              2969.6673
 Red. masses --      3.3900                 1.0841                 1.0589
 Frc consts  --      5.1420                 1.7349                 5.5020
 IR Inten    --   1030.4961                56.4204               157.5230

                     58                     59                     60
                      A                      A                      A
 Frequencies --   3013.0757              3045.9205              3067.8574
 Red. masses --      1.0519                 1.0762                 1.0381
 Frc consts  --      5.6264                 5.8825                 5.7567
 IR Inten    --    136.7234                80.2097                22.5261

                     61                     62                     63
                      A                      A                      A
 Frequencies --   3081.9984              3084.6976              3095.5378
 Red. masses --      1.0728                 1.0471                 1.0992
 Frc consts  --      6.0036                 5.8706                 6.2057
 IR Inten    --     42.8358                11.9219                56.4873

                     64                     65                     66
                      A                      A                      A
 Frequencies --   3102.0261              3133.1848              3143.2020
 Red. masses --      1.0825                 1.1012                 1.1037
 Frc consts  --      6.1372                 6.3694                 6.4246
 IR Inten    --     59.6328                57.9136                34.2295

                     67                     68                     69
                      A                      A                      A
 Frequencies --   3158.7103              3171.1407              3185.4401
 Red. masses --      1.1019                 1.1048                 1.1067
 Frc consts  --      6.4776                 6.5458                 6.6164
 IR Inten    --     14.6591                 1.4588                12.4634

                     70                     71                     72
                      A                      A                      A
 Frequencies --   3504.8990              3578.5767              3703.7896
 Red. masses --      1.0521                 1.0954                 1.0748
 Frc consts  --      7.6152                 8.2647                 8.6868
 IR Inten    --     39.7364                56.6928                20.5048

 - Thermochemistry -
 -------------------
 Temperature   298.150 Kelvin.  Pressure   1.00000 Atm.
 Atom     1 has atomic number  6 and mass  12.00000

 Molecular mass:   144.12626 amu.
 Principal axes and moments of inertia in atomic units:
                           1         2         3
     Eigenvalues --  1144.972261859.364162244.00381
           X            0.99918  -0.04057  -0.00094
           Y            0.04057   0.99918   0.00162
           Z            0.00088  -0.00166   1.00000
 This molecule is an asymmetric top.
 Rotational symmetry number  1.
 Warning -- assumption of classical behavior for rotation
           may cause significant error
 Rotational temperatures (Kelvin)      0.07565     0.04658     0.03860
 Rotational constants (GHZ):           1.57623     0.97062     0.80425
    1 imaginary frequencies ignored.
 Zero-point vibrational energy     613196.5 (Joules/Mol)
                                  146.55748 (Kcal/Mol)
 Warning -- explicit consideration of  18 degrees of freedom as
           vibrations may cause significant error
 Vibrational temperatures:     85.38    99.62   136.23   161.08   188.83
          (Kelvin)            229.02   263.04   278.25   345.62   384.44
                              422.02   465.16   497.20   527.43   586.97
                              682.41   747.59   821.35   936.12  1110.60
                             1137.95  1184.52  1356.86  1454.55  1472.31
                             1502.89  1515.02  1528.51  1564.12  1604.86
                             1642.36  1650.51  1671.65  1749.98  1843.95
                             1866.57  1918.66  1960.76  2020.22  2025.54
                             2041.46  2078.65  2089.80  2097.88  2112.29
                             2123.60  2152.50  2158.44  2162.80  2169.60
                             2174.86  2180.66  2203.99  2308.52  2371.22
                             4272.69  4335.14  4382.40  4413.96  4434.31
                             4438.19  4453.79  4463.12  4507.95  4522.37
                             4544.68  4562.56  4583.14  5042.77  5148.77
                             5328.93

 Zero-point correction=                           0.233554 (Hartree/Particle)
 Thermal correction to Energy=                    0.246180
 Thermal correction to Enthalpy=                  0.247124
 Thermal correction to Gibbs Free Energy=         0.195069
 Sum of electronic and zero-point Energies=           -460.869811
 Sum of electronic and thermal Energies=              -460.857185
 Sum of electronic and thermal Enthalpies=            -460.856241
 Sum of electronic and thermal Free Energies=         -460.908296

                     E (Thermal)             CV                S
                      KCal/Mol        Cal/Mol-Kelvin    Cal/Mol-Kelvin
 Total                  154.480             44.744            109.559
 Electronic               0.000              0.000              0.000
 Translational            0.889              2.981             40.808
 Rotational               0.889              2.981             29.947
 Vibrational            152.703             38.782             38.804
 Vibration     1          0.597              1.974              4.479
 Vibration     2          0.598              1.969              4.175
 Vibration     3          0.603              1.953              3.561
 Vibration     4          0.607              1.940              3.235
 Vibration     5          0.612              1.922              2.928
 Vibration     6          0.621              1.892              2.560
 Vibration     7          0.630              1.863              2.299
 Vibration     8          0.635              1.849              2.195
 Vibration     9          0.657              1.779              1.801
 Vibration    10          0.672              1.733              1.614
 Vibration    11          0.688              1.686              1.455
 Vibration    12          0.708              1.629              1.293
 Vibration    13          0.724              1.584              1.186
 Vibration    14          0.739              1.541              1.094
 Vibration    15          0.773              1.453              0.934
 Vibration    16          0.831              1.307              0.726
 Vibration    17          0.875              1.207              0.611
 Vibration    18          0.927              1.094              0.503

 Optimization completed.
    -- Stationary point found.
 Normal termination of Gaussian 16 at Fri Feb 12 16:13:12 2021.
