 Gaussian 16, Revision A.03,
 Gaussian 16:  ES64L-G16RevA.03 25-Dec-2016

 ----------------------------------------------------------------------
 # wB97XD def2tzvp, opt=(ts, noeigen, calcfc, maxcycles=70, maxstep=8),
  freq=noraman, scrf=(iefpcm, solvent=water)
 ----------------------------------------------------------------------

 ------------------------
 0_iteration/TS-355-0.out
 ------------------------
 Symbolic Z-matrix:
 Charge =  0 Multiplicity = 1

 SCF Done:  E(RwB97XD) =  -3376.39095902     A.U. after   15 cycles
 SCF Done:  E(RwB97XD) =  -3376.39065344     A.U. after   13 cycles
 SCF Done:  E(RwB97XD) =  -3376.39071024     A.U. after   12 cycles
 SCF Done:  E(RwB97XD) =  -3376.39098395     A.U. after   12 cycles
 SCF Done:  E(RwB97XD) =  -3376.39171638     A.U. after   13 cycles
 SCF Done:  E(RwB97XD) =  -3376.39217583     A.U. after   12 cycles
 SCF Done:  E(RwB97XD) =  -3376.39238219     A.U. after   12 cycles
 SCF Done:  E(RwB97XD) =  -3376.39242919     A.U. after   12 cycles
 SCF Done:  E(RwB97XD) =  -3376.39243250     A.U. after   11 cycles
 SCF Done:  E(RwB97XD) =  -3376.39243369     A.U. after   10 cycles
 SCF Done:  E(RwB97XD) =  -3376.39243426     A.U. after    8 cycles
 SCF Done:  E(RwB97XD) =  -3376.39243486     A.U. after    8 cycles
 SCF Done:  E(RwB97XD) =  -3376.39243518     A.U. after    8 cycles
 SCF Done:  E(RwB97XD) =  -3376.39243546     A.U. after    8 cycles
 SCF Done:  E(RwB97XD) =  -3376.39243538     A.U. after    6 cycles
 SCF Done:  E(RwB97XD) =  -3376.39243527     A.U. after    7 cycles
 Optimization completed.
    -- Stationary point found.
 Normal termination of Gaussian 16 at Fri Feb 12 12:48:59 2021.

 ---------------------------------------------------------------------
 #N Geom=AllCheck Guess=TCheck SCRF=Check GenChk RwB97XD/def2TZVP Freq
 ---------------------------------------------------------------------

 Structure from the checkpoint file:  "/beegfs/scratch/user/q/tla25/Gau-95087.chk"
 ------------------------
 0_iteration/TS-355-0.out
 ------------------------
 Charge =  0 Multiplicity = 1

                         Standard orientation:
 ---------------------------------------------------------------------
 Center     Atomic      Atomic             Coordinates (Angstroms)
 Number     Number       Type             X           Y           Z
 ---------------------------------------------------------------------
      1          6           0       -1.069007    0.163867   -0.250549
      2          6           0       -1.589818   -0.824283    0.674975
      3          8           0       -0.842067   -1.467809    1.419402
      4          6           0        0.260459    0.446443   -0.449064
      5          6           0        2.318788    2.023562    0.987184
      6          1           0        2.564307    2.601289    1.879524
      7          1           0        3.049857    1.226673    0.868043
      8          1           0        2.363237    2.677145    0.117194
      9          7           0        0.983760    1.438086    1.074536
     10          1           0        0.901969    0.767616    1.830764
     11          1           0        0.271281    2.146328    1.206571
     12          1           0        0.500352    1.211086   -1.173292
     13         35           0        1.580127   -0.949881   -0.562824
     14         17           0       -2.191202    1.340186   -0.945345
     15          7           0       -2.932367   -1.011587    0.712063
     16          1           0       -3.555645   -0.554939    0.072885
     17          1           0       -3.295101   -1.713096    1.331350
 ---------------------------------------------------------------------

 SCF Done:  E(RwB97XD) =  -3376.39243527     A.U. after    1 cycles

 The electronic state is 1-A.
 Alpha  occ. eigenvalues -- -483.13256-101.69479 -62.68110 -56.47232 -56.46873
 Alpha  occ. eigenvalues --  -56.46851 -19.20507 -14.48232 -14.44266 -10.38840
 Alpha  occ. eigenvalues --  -10.38816 -10.31778 -10.31604  -9.58002  -8.82229
 Alpha  occ. eigenvalues --   -7.32629  -7.31811  -7.31761  -6.64405  -6.63257
 Alpha  occ. eigenvalues --   -6.63186  -2.74789  -2.74470  -2.74413  -2.73485
 Alpha  occ. eigenvalues --   -2.73484  -1.13224  -1.03662  -1.00295  -0.96664
 Alpha  occ. eigenvalues --   -0.91223  -0.82304  -0.78715  -0.74400  -0.65714
 Alpha  occ. eigenvalues --   -0.63004  -0.61873  -0.57283  -0.56258  -0.54512
 Alpha  occ. eigenvalues --   -0.52894  -0.51142  -0.50611  -0.48132  -0.46741
 Alpha  occ. eigenvalues --   -0.45588  -0.42155  -0.40742  -0.38229  -0.37113
 Alpha  occ. eigenvalues --   -0.35126  -0.33791  -0.27685
 Alpha virt. eigenvalues --    0.03499   0.06330   0.10066   0.12126   0.13343
 Alpha virt. eigenvalues --    0.14894   0.15627   0.17239   0.18132   0.18660
 Alpha virt. eigenvalues --    0.19278   0.19796   0.21305   0.22833   0.25269

 Mulliken charges:
               1
     1  C   -0.134421
     2  C    0.306517
     3  O   -0.524278
     4  C   -0.047674
     5  C   -0.267133
     6  H    0.151591
     7  H    0.148502
     8  H    0.151323
     9  N   -0.358740
    10  H    0.285356
    11  H    0.283020
    12  H    0.192598
    13  Br  -0.083101
    14  Cl  -0.174563
    15  N   -0.470609
    16  H    0.270263
    17  H    0.271348
 Sum of Mulliken charges =  -0.00000

 Dipole moment (field-independent basis, Debye):
    X=              1.4793    Y=              5.6834    Z=              1.3635  Tot=              6.0290
 Quadrupole moment (field-independent basis, Debye-Ang):
   XX=            -60.9074   YY=            -69.9994   ZZ=            -74.1003
   XY=              9.7640   XZ=              1.4064   YZ=              7.0714

  Exact polarizability: 185.915   5.872 140.897   8.811  -3.014 114.772
 Approx polarizability: 140.170  -1.874 118.144   7.949  -5.023 101.508

 ******    1 imaginary frequencies (negative Signs) ******

                      1                      2                      3
                      A                      A                      A
 Frequencies --   -352.6017                32.2105                63.3915
 Red. masses --      6.8177                 3.2175                 2.5805
 Frc consts  --      0.4994                 0.0020                 0.0061
 IR Inten    --    840.6298                 2.6707                28.4106

                      4                      5                      6
                      A                      A                      A
 Frequencies --     69.8518                92.8120               109.0828
 Red. masses --      7.6247                 1.3532                 2.6760
 Frc consts  --      0.0219                 0.0069                 0.0188
 IR Inten    --      4.5343               248.0205                66.8339

                      7                      8                      9
                      A                      A                      A
 Frequencies --    133.1645               149.8689               182.4086
 Red. masses --      5.6306                 2.0339                 2.2297
 Frc consts  --      0.0588                 0.0269                 0.0437
 IR Inten    --      9.0192                16.6323                36.1631

                     10                     11                     12
                      A                      A                      A
 Frequencies --    228.3947               284.7819               291.3467
 Red. masses --      6.4889                 5.4735                 5.0946
 Frc consts  --      0.1994                 0.2615                 0.2548
 IR Inten    --     15.2016                10.0166                 4.4157

                     13                     14                     15
                      A                      A                      A
 Frequencies --    411.2528               453.3696               534.3066
 Red. masses --      4.5947                 9.8524                 2.7135
 Frc consts  --      0.4579                 1.1932                 0.4564
 IR Inten    --    131.9737                38.7582                10.5512

                     16                     17                     18
                      A                      A                      A
 Frequencies --    555.1005               605.7700               732.5494
 Red. masses --      1.1900                 1.6759                 2.7090
 Frc consts  --      0.2160                 0.3623                 0.8565
 IR Inten    --      5.0312                15.8838               140.9267

                     19                     20                     21
                      A                      A                      A
 Frequencies --    760.3325               780.6083               990.5822
 Red. masses --      5.6651                 8.7478                 1.8268
 Frc consts  --      1.9296                 3.1406                 1.0562
 IR Inten    --     87.9415                56.6793                 8.7421

                     22                     23                     24
                      A                      A                      A
 Frequencies --   1014.0756              1028.7658              1070.9393
 Red. masses --      1.3853                 1.1288                 3.7884
 Frc consts  --      0.8393                 0.7039                 2.5600
 IR Inten    --     24.3697               100.0970               205.3177

                     25                     26                     27
                      A                      A                      A
 Frequencies --   1092.6606              1116.3350              1212.8647
 Red. masses --      2.1327                 1.1231                 1.4052
 Frc consts  --      1.5002                 0.8246                 1.2179
 IR Inten    --     14.4424                48.6924                21.2860

                     28                     29                     30
                      A                      A                      A
 Frequencies --   1265.2941              1341.4478              1394.9160
 Red. masses --      1.3488                 1.3188                 3.5190
 Frc consts  --      1.2722                 1.3982                 4.0343
 IR Inten    --     39.4014                 1.9029               207.0445

                     31                     32                     33
                      A                      A                      A
 Frequencies --   1441.7389              1463.5267              1491.1253
 Red. masses --      2.7879                 1.6329                 1.0418
 Frc consts  --      3.4142                 2.0606                 1.3648
 IR Inten    --    795.2153               341.4304                18.7410

                     34                     35                     36
                      A                      A                      A
 Frequencies --   1501.5275              1604.6050              1642.8384
 Red. masses --      1.0366                 1.3646                 1.0887
 Frc consts  --      1.3769                 2.0702                 1.7312
 IR Inten    --     21.8125               293.4096                46.4806

                     37                     38                     39
                      A                      A                      A
 Frequencies --   1670.5722              3064.9471              3142.0205
 Red. masses --      5.6941                 1.0349                 1.1033
 Frc consts  --      9.3628                 5.7280                 6.4176
 IR Inten    --    580.5643                55.6723                17.0360

                     40                     41                     42
                      A                      A                      A
 Frequencies --   3167.1163              3229.6339              3522.5643
 Red. masses --      1.1053                 1.0921                 1.0508
 Frc consts  --      6.5322                 6.7113                 7.6820
 IR Inten    --     13.5007                 1.1526                26.4464

                     43                     44                     45
                      A                      A                      A
 Frequencies --   3605.8539              3635.4687              3765.0078
 Red. masses --      1.0968                 1.0451                 1.1057
 Frc consts  --      8.4022                 8.1382                 9.2349
 IR Inten    --     50.3072               107.7202                94.1421

 - Thermochemistry -
 -------------------
 Temperature   298.150 Kelvin.  Pressure   1.00000 Atm.
 Atom     1 has atomic number  6 and mass  12.00000

 Molecular mass:   213.95085 amu.
 Principal axes and moments of inertia in atomic units:
                           1         2         3
     Eigenvalues --  1553.991882906.542133436.10824
           X            0.99374   0.10963   0.02130
           Y           -0.11025   0.99343   0.03056
           Z           -0.01781  -0.03272   0.99931
 This molecule is an asymmetric top.
 Rotational symmetry number  1.
 Warning -- assumption of classical behavior for rotation
           may cause significant error
 Rotational temperatures (Kelvin)      0.05574     0.02980     0.02521
 Rotational constants (GHZ):           1.16136     0.62092     0.52523
    1 imaginary frequencies ignored.
 Zero-point vibrational energy     334637.6 (Joules/Mol)
                                   79.98030 (Kcal/Mol)
 Warning -- explicit consideration of  16 degrees of freedom as
           vibrations may cause significant error
 Vibrational temperatures:     46.34    91.21   100.50   133.54   156.95
          (Kelvin)            191.59   215.63   262.45   328.61   409.74
                              419.18   591.70   652.30   768.75   798.67
                              871.57  1053.98  1093.95  1123.12  1425.23
                             1459.03  1480.16  1540.84  1572.09  1606.16
                             1745.04  1820.48  1930.04  2006.97  2074.34
                             2105.69  2145.40  2160.36  2308.67  2363.68
                             2403.58  4409.78  4520.67  4556.77  4646.72
                             5068.18  5188.02  5230.63  5417.01

 Zero-point correction=                           0.127457 (Hartree/Particle)
 Thermal correction to Energy=                    0.139159
 Thermal correction to Enthalpy=                  0.140104
 Thermal correction to Gibbs Free Energy=         0.087096
 Sum of electronic and zero-point Energies=          -3376.264979
 Sum of electronic and thermal Energies=             -3376.253276
 Sum of electronic and thermal Enthalpies=           -3376.252332
 Sum of electronic and thermal Free Energies=        -3376.305339

                     E (Thermal)             CV                S
                      KCal/Mol        Cal/Mol-Kelvin    Cal/Mol-Kelvin
 Total                   87.324             37.969            111.563
 Electronic               0.000              0.000              0.000
 Translational            0.889              2.981             41.985
 Rotational               0.889              2.981             31.118
 Vibrational             85.546             32.008             38.460
 Vibration     1          0.594              1.983              5.688
 Vibration     2          0.597              1.972              4.349
 Vibration     3          0.598              1.968              4.158
 Vibration     4          0.602              1.954              3.600
 Vibration     5          0.606              1.942              3.285
 Vibration     6          0.613              1.920              2.900
 Vibration     7          0.618              1.903              2.674
 Vibration     8          0.630              1.864              2.304
 Vibration     9          0.651              1.798              1.892
 Vibration    10          0.683              1.702              1.505
 Vibration    11          0.687              1.690              1.466
 Vibration    12          0.775              1.446              0.922
 Vibration    13          0.812              1.353              0.786
 Vibration    14          0.889              1.174              0.578
 Vibration    15          0.911              1.129              0.534
 Vibration    16          0.964              1.020              0.440

 Optimization completed.
    -- Stationary point found.
 Normal termination of Gaussian 16 at Fri Feb 12 12:58:52 2021.
