 Gaussian 16, Revision A.03,
 Gaussian 16:  ES64L-G16RevA.03 25-Dec-2016

 ----------------------------------------------------------------------
 # wB97XD def2tzvp, opt=(ts, noeigen, calcfc, maxcycles=70, maxstep=1),
  freq=noraman, scrf=(iefpcm, solvent=water)
 ----------------------------------------------------------------------

 -----------------------
 4_iteration/TS-34-4.out
 -----------------------
 Symbolic Z-matrix:
 Charge =  0 Multiplicity = 1

 SCF Done:  E(RwB97XD) =  -1248.81182823     A.U. after   15 cycles
 SCF Done:  E(RwB97XD) =  -1248.81182714     A.U. after    7 cycles
 Optimization completed.
    -- Stationary point found.
 Normal termination of Gaussian 16 at Mon Feb  1 04:59:47 2021.

 ---------------------------------------------------------------------
 #N Geom=AllCheck Guess=TCheck SCRF=Check GenChk RwB97XD/def2TZVP Freq
 ---------------------------------------------------------------------

 Structure from the checkpoint file:  "/beegfs/scratch/user/q/tla25/Gau-110080.chk"
 -----------------------
 4_iteration/TS-34-4.out
 -----------------------
 Charge =  0 Multiplicity = 1

                         Standard orientation:
 ---------------------------------------------------------------------
 Center     Atomic      Atomic             Coordinates (Angstroms)
 Number     Number       Type             X           Y           Z
 ---------------------------------------------------------------------
      1          6           0        0.625321   -1.345946   -0.283934
      2          6           0        1.999676   -1.464471   -0.658784
      3          8           0        2.815197   -0.542880   -0.535795
      4          6           0        0.007434   -0.203401    0.267560
      5          6           0        1.360103   -1.059544    2.602611
      6          1           0        1.289927   -1.416193    3.629433
      7          1           0        1.606743   -1.894334    1.949970
      8          1           0        2.145490   -0.312316    2.524219
      9          7           0        0.089407   -0.482546    2.167616
     10          1           0       -0.664129   -1.148363    2.303358
     11          1           0       -0.140842    0.336828    2.715919
     12          6           0       -1.492600   -0.019334    0.094323
     13          6           0       -2.095963   -0.456458   -1.083008
     14          6           0       -3.434375   -0.202500   -1.335160
     15          6           0       -4.199317    0.498731   -0.415436
     16          6           0       -3.605112    0.960149    0.748430
     17          6           0       -2.262785    0.713949    0.993005
     18          1           0       -1.508422   -0.994621   -1.813654
     19          1           0       -3.878659   -0.554557   -2.257486
     20          1           0       -5.246161    0.694038   -0.609296
     21          1           0       -4.182135    1.525829    1.468644
     22          1           0       -1.827923    1.129237    1.891463
     23          6           0        0.681230    1.134194    0.015698
     24          6           0        1.180285    1.978472    0.996020
     25          6           0        1.705242    3.221546    0.662344
     26          6           0        1.729839    3.644180   -0.654533
     27          6           0        1.217765    2.811202   -1.641649
     28          6           0        0.695881    1.575952   -1.307979
     29          1           0        1.195901    1.693653    2.037037
     30          1           0        2.096658    3.857467    1.446294
     31          1           0        2.139016    4.612626   -0.912052
     32          1           0        1.224153    3.126215   -2.677592
     33          1           0        0.301223    0.933237   -2.084505
     34         17           0       -0.297663   -2.858961   -0.168083
     35          6           0        2.478617   -2.777732   -1.247541
     36          1           0        2.534095   -3.543187   -0.470198
     37          1           0        1.807629   -3.152209   -2.020844
     38          1           0        3.472847   -2.624086   -1.662044
 ---------------------------------------------------------------------

 SCF Done:  E(RwB97XD) =  -1248.81182714     A.U. after    1 cycles

 The electronic state is 1-A.
 Alpha  occ. eigenvalues -- -101.68530 -19.20219 -14.49555 -10.37175 -10.35535
 Alpha  occ. eigenvalues --  -10.31869 -10.31307 -10.31289 -10.30642 -10.29838
 Alpha  occ. eigenvalues --  -10.29458 -10.29449 -10.29371 -10.29356 -10.29298
 Alpha  occ. eigenvalues --  -10.29128 -10.29060 -10.28964 -10.28864 -10.26985
 Alpha  occ. eigenvalues --   -9.57081  -7.31687  -7.30886  -7.30864  -1.11140
 Alpha  occ. eigenvalues --   -1.05113  -0.98698  -0.96706  -0.95652  -0.90302
 Alpha  occ. eigenvalues --   -0.85747  -0.85481  -0.85247  -0.83196  -0.81287
 Alpha  occ. eigenvalues --   -0.79447  -0.73990  -0.71495  -0.70524  -0.70192
 Alpha  occ. eigenvalues --   -0.67600  -0.65060  -0.62292  -0.61556  -0.58892
 Alpha  occ. eigenvalues --   -0.57740  -0.56418  -0.56179  -0.55013  -0.54292
 Alpha  occ. eigenvalues --   -0.53573  -0.53213  -0.52783  -0.51426  -0.51280
 Alpha  occ. eigenvalues --   -0.50905  -0.50028  -0.48822  -0.48002  -0.46878
 Alpha  occ. eigenvalues --   -0.46777  -0.45977  -0.45420  -0.44057  -0.43586
 Alpha  occ. eigenvalues --   -0.43014  -0.42729  -0.42024  -0.41042  -0.39605
 Alpha  occ. eigenvalues --   -0.35358  -0.34230  -0.33788  -0.33035  -0.30595
 Alpha  occ. eigenvalues --   -0.27380
 Alpha virt. eigenvalues --    0.02242   0.04135   0.05019   0.05762   0.06951
 Alpha virt. eigenvalues --    0.10103   0.11017   0.12074   0.13188   0.13786
 Alpha virt. eigenvalues --    0.14411   0.15446   0.15709   0.16120   0.16839

 Mulliken charges:
               1
     1  C   -0.271683
     2  C    0.271760
     3  O   -0.509191
     4  C    0.340283
     5  C   -0.286513
     6  H    0.165171
     7  H    0.156969
     8  H    0.157560
     9  N   -0.355086
    10  H    0.289797
    11  H    0.281647
    12  C    0.193099
    13  C   -0.277709
    14  C   -0.136149
    15  C   -0.145214
    16  C   -0.155607
    17  C   -0.247161
    18  H    0.174670
    19  H    0.144703
    20  H    0.146257
    21  H    0.145055
    22  H    0.135333
    23  C    0.275046
    24  C   -0.271291
    25  C   -0.163502
    26  C   -0.158915
    27  C   -0.126957
    28  C   -0.318464
    29  H    0.138629
    30  H    0.141749
    31  H    0.142472
    32  H    0.141177
    33  H    0.150131
    34  Cl  -0.180611
    35  C   -0.388736
    36  H    0.140336
    37  H    0.137663
    38  H    0.123281
 Sum of Mulliken charges =  -0.00000

 Dipole moment (field-independent basis, Debye):
    X=             -4.6539    Y=              1.4403    Z=              6.0768  Tot=              7.7885
 Quadrupole moment (field-independent basis, Debye-Ang):
   XX=           -132.5482   YY=           -124.0797   ZZ=           -101.0463
   XY=             -1.0199   XZ=              5.0582   YZ=             -0.0483

  Exact polarizability: 320.607   8.557 302.692  -2.335  24.262 301.512
 Approx polarizability: 251.883  11.130 244.130   1.193  19.589 260.725

 ******    1 imaginary frequencies (negative Signs) ******

                      1                      2                      3
                      A                      A                      A
 Frequencies --   -348.0381                26.1920                41.5972
 Red. masses --      4.9141                 3.8630                 3.5810
 Frc consts  --      0.3507                 0.0016                 0.0037
 IR Inten    --    572.4482                 1.5758                 0.5718

                      4                      5                      6
                      A                      A                      A
 Frequencies --     57.1796                60.8846                73.1163
 Red. masses --      5.5979                 4.5493                 3.8083
 Frc consts  --      0.0108                 0.0099                 0.0120
 IR Inten    --      0.1312                 0.3906                 2.9240

                      7                      8                      9
                      A                      A                      A
 Frequencies --     95.2491               115.3354               125.7390
 Red. masses --      5.0179                 1.3623                 3.1821
 Frc consts  --      0.0268                 0.0107                 0.0296
 IR Inten    --      4.2080                 3.9857                 3.6051

                     10                     11                     12
                      A                      A                      A
 Frequencies --    141.3236               157.3310               172.6118
 Red. masses --      3.2611                 3.3952                 1.1295
 Frc consts  --      0.0384                 0.0495                 0.0198
 IR Inten    --      6.0154                 6.8301                 0.9151

                     13                     14                     15
                      A                      A                      A
 Frequencies --    212.5135               219.4767               244.1508
 Red. masses --      5.8697                 2.7950                 4.9384
 Frc consts  --      0.1562                 0.0793                 0.1734
 IR Inten    --     11.6007                10.6879                 0.7001

                     16                     17                     18
                      A                      A                      A
 Frequencies --    264.8466               271.5717               304.0888
 Red. masses --      5.6596                 3.7312                 4.1053
 Frc consts  --      0.2339                 0.1621                 0.2237
 IR Inten    --      0.9619                 2.2044                 7.1376

                     19                     20                     21
                      A                      A                      A
 Frequencies --    310.8026               336.5183               383.7526
 Red. masses --      4.1084                 3.8837                 6.0575
 Frc consts  --      0.2338                 0.2591                 0.5256
 IR Inten    --      8.1089                 7.7317                34.3326

                     22                     23                     24
                      A                      A                      A
 Frequencies --    417.4707               420.3708               459.2366
 Red. masses --      2.8434                 2.8715                 9.1573
 Frc consts  --      0.2920                 0.2990                 1.1379
 IR Inten    --      0.2198                 0.1169                 7.0505

                     25                     26                     27
                      A                      A                      A
 Frequencies --    486.9335               525.6839               565.0010
 Red. masses --      3.5383                 3.4065                 3.6342
 Frc consts  --      0.4943                 0.5546                 0.6835
 IR Inten    --     17.2507                 1.8675               109.7290

                     28                     29                     30
                      A                      A                      A
 Frequencies --    590.1956               602.9573               637.4163
 Red. masses --      2.1260                 2.7220                 6.3130
 Frc consts  --      0.4363                 0.5831                 1.5112
 IR Inten    --     52.0590                11.0005                 0.8016

                     31                     32                     33
                      A                      A                      A
 Frequencies --    638.0347               659.2223               684.9590
 Red. masses --      5.8605                 4.3798                 2.8921
 Frc consts  --      1.4056                 1.1214                 0.7995
 IR Inten    --      3.4039                42.7124                57.4178

                     34                     35                     36
                      A                      A                      A
 Frequencies --    690.2849               717.4271               722.6986
 Red. masses --      5.4588                 1.6523                 1.4849
 Frc consts  --      1.5325                 0.5011                 0.4569
 IR Inten    --     99.3955                78.1429               118.1653

                     37                     38                     39
                      A                      A                      A
 Frequencies --    774.2390               789.2137               845.5189
 Red. masses --      2.0841                 2.6793                 3.3442
 Frc consts  --      0.7361                 0.9832                 1.4086
 IR Inten    --     42.8174                72.8071                20.0051

                     40                     41                     42
                      A                      A                      A
 Frequencies --    863.5160               867.3253               895.7069
 Red. masses --      1.2653                 1.2582                 4.7215
 Frc consts  --      0.5559                 0.5577                 2.2318
 IR Inten    --      0.9546                 0.7171                29.9802

                     43                     44                     45
                      A                      A                      A
 Frequencies --    940.4311               954.4794               984.3727
 Red. masses --      1.5145                 1.4992                 1.1857
 Frc consts  --      0.7892                 0.8047                 0.6769
 IR Inten    --      1.8534                 1.8621                89.8917

                     46                     47                     48
                      A                      A                      A
 Frequencies --    997.9321              1006.1846              1008.6891
 Red. masses --      1.9941                 1.4034                 1.3935
 Frc consts  --      1.1700                 0.8371                 0.8353
 IR Inten    --     35.8123                 5.1393                 0.7153

                     49                     50                     51
                      A                      A                      A
 Frequencies --   1023.7999              1024.7125              1025.8453
 Red. masses --      3.1346                 1.5903                 4.6748
 Frc consts  --      1.9358                 0.9839                 2.8985
 IR Inten    --      1.3626                 0.1569                 0.9336

                     52                     53                     54
                      A                      A                      A
 Frequencies --   1029.8994              1031.6401              1044.0570
 Red. masses --      1.4582                 2.1378                 1.8038
 Frc consts  --      0.9113                 1.3405                 1.1585
 IR Inten    --      3.9701                14.5977                12.2933

                     55                     56                     57
                      A                      A                      A
 Frequencies --   1059.6329              1065.9393              1073.5744
 Red. masses --      1.6413                 2.2453                 2.4017
 Frc consts  --      1.0858                 1.5031                 1.6309
 IR Inten    --     33.3959                17.9422                 9.7476

                     58                     59                     60
                      A                      A                      A
 Frequencies --   1078.2026              1122.4094              1126.0369
 Red. masses --      2.3019                 1.5831                 1.6063
 Frc consts  --      1.5766                 1.1751                 1.2000
 IR Inten    --     71.0059                 3.7139                20.8469

                     61                     62                     63
                      A                      A                      A
 Frequencies --   1165.7484              1184.8479              1186.1636
 Red. masses --      3.1571                 1.1330                 1.1259
 Frc consts  --      2.5278                 0.9372                 0.9333
 IR Inten    --     57.5558                 0.7743                 0.0901

                     64                     65                     66
                      A                      A                      A
 Frequencies --   1217.5248              1222.9371              1236.7982
 Red. masses --      1.1670                 1.1379                 1.3619
 Frc consts  --      1.0192                 1.0027                 1.2274
 IR Inten    --      7.1320                 0.7131                24.3033

                     67                     68                     69
                      A                      A                      A
 Frequencies --   1253.3770              1295.2785              1316.6056
 Red. masses --      4.3265                 4.3959                 4.5444
 Frc consts  --      4.0045                 4.3453                 4.6413
 IR Inten    --      2.7048                28.0865                16.2296

                     70                     71                     72
                      A                      A                      A
 Frequencies --   1333.6996              1347.1010              1364.3866
 Red. masses --      4.9524                 1.3581                 1.4032
 Frc consts  --      5.1902                 1.4520                 1.5391
 IR Inten    --      7.9105                 5.4547                 5.5570

                     73                     74                     75
                      A                      A                      A
 Frequencies --   1368.4859              1379.4361              1411.7253
 Red. masses --      1.4153                 1.5793                 3.1989
 Frc consts  --      1.5617                 1.7706                 3.7563
 IR Inten    --     31.2804               164.2297               976.0351

                     76                     77                     78
                      A                      A                      A
 Frequencies --   1457.8561              1460.8916              1473.3114
 Red. masses --      1.0958                 1.2062                 1.0614
 Frc consts  --      1.3722                 1.5167                 1.3574
 IR Inten    --     35.5859                27.9094                25.6103

                     79                     80                     81
                      A                      A                      A
 Frequencies --   1487.2863              1488.8875              1492.6277
 Red. masses --      2.1799                 1.0506                 2.1737
 Frc consts  --      2.8411                 1.3722                 2.8533
 IR Inten    --      4.4600                10.4258                64.9412

                     82                     83                     84
                      A                      A                      A
 Frequencies --   1503.8335              1541.1311              1545.5130
 Red. masses --      1.0583                 2.2221                 2.2731
 Frc consts  --      1.4101                 3.1096                 3.1990
 IR Inten    --     14.9437                30.6524                15.6845

                     85                     86                     87
                      A                      A                      A
 Frequencies --   1643.4649              1644.6135              1654.6264
 Red. masses --      1.3962                 7.3242                 2.8014
 Frc consts  --      2.2219                11.6718                 4.5188
 IR Inten    --     52.3911               411.0828                 8.7208

                     88                     89                     90
                      A                      A                      A
 Frequencies --   1657.4181              1672.6804              1676.4938
 Red. masses --      6.1592                 5.7741                 5.8725
 Frc consts  --      9.9687                 9.5184                 9.7248
 IR Inten    --    116.8712                 6.5333                10.2205

                     91                     92                     93
                      A                      A                      A
 Frequencies --   3059.9349              3082.5676              3131.3648
 Red. masses --      1.0371                 1.0340                 1.0988
 Frc consts  --      5.7214                 5.7890                 6.3480
 IR Inten    --     11.5586                32.9541                15.5072

                     94                     95                     96
                      A                      A                      A
 Frequencies --   3163.1565              3163.6851              3183.5061
 Red. masses --      1.1043                 1.1037                 1.1054
 Frc consts  --      6.5102                 6.5086                 6.6005
 IR Inten    --     21.1463                13.6757                11.0212

                     97                     98                     99
                      A                      A                      A
 Frequencies --   3195.8612              3198.7426              3203.2986
 Red. masses --      1.0858                 1.0861                 1.0890
 Frc consts  --      6.5341                 6.5473                 6.5839
 IR Inten    --      1.2892                 0.9138                 4.8648

                    100                    101                    102
                      A                      A                      A
 Frequencies --   3207.1069              3212.8193              3217.2342
 Red. masses --      1.0893                 1.0934                 1.0928
 Frc consts  --      6.6013                 6.6496                 6.6645
 IR Inten    --      6.1703                23.7907                29.9015

                    103                    104                    105
                      A                      A                      A
 Frequencies --   3222.1761              3225.5362              3229.4861
 Red. masses --      1.0977                 1.0940                 1.0973
 Frc consts  --      6.7148                 6.7064                 6.7426
 IR Inten    --     26.2968                27.0906                 3.8746

                    106                    107                    108
                      A                      A                      A
 Frequencies --   3241.2877              3522.2607              3601.5458
 Red. masses --      1.0923                 1.0522                 1.0942
 Frc consts  --      6.7612                 7.6912                 8.3624
 IR Inten    --     20.4575                39.7801                44.5927

 - Thermochemistry -
 -------------------
 Temperature   298.150 Kelvin.  Pressure   1.00000 Atm.
 Atom     1 has atomic number  6 and mass  12.00000

 Molecular mass:   287.10769 amu.
 Principal axes and moments of inertia in atomic units:
                           1         2         3
     Eigenvalues --  5067.224965509.281647817.01257
           X            0.99379  -0.11107   0.00691
           Y            0.11105   0.99381   0.00322
           Z           -0.00723  -0.00243   0.99997
 This molecule is an asymmetric top.
 Rotational symmetry number  1.
 Warning -- assumption of classical behavior for rotation
           may cause significant error
 Rotational temperatures (Kelvin)      0.01709     0.01572     0.01108
 Rotational constants (GHZ):           0.35616     0.32758     0.23087
    1 imaginary frequencies ignored.
 Zero-point vibrational energy     818316.6 (Joules/Mol)
                                  195.58236 (Kcal/Mol)
 Warning -- explicit consideration of  28 degrees of freedom as
           vibrations may cause significant error
 Vibrational temperatures:     37.68    59.85    82.27    87.60   105.20
          (Kelvin)            137.04   165.94   180.91   203.33   226.36
                              248.35   305.76   315.78   351.28   381.06
                              390.73   437.52   447.18   484.17   552.13
                              600.65   604.82   660.74   700.59   756.34
                              812.91   849.16   867.52   917.10   917.99
                              948.47   985.50   993.17  1032.22  1039.80
                             1113.96  1135.50  1216.51  1242.41  1247.89
                             1288.72  1353.07  1373.28  1416.29  1435.80
                             1447.68  1451.28  1473.02  1474.33  1475.96
                             1481.80  1484.30  1502.17  1524.58  1533.65
                             1544.63  1551.29  1614.90  1620.12  1677.25
                             1704.73  1706.62  1751.75  1759.53  1779.48
                             1803.33  1863.62  1894.30  1918.90  1938.18
                             1963.05  1968.95  1984.70  2031.16  2097.53
                             2101.90  2119.77  2139.87  2142.18  2147.56
                             2163.68  2217.34  2223.65  2364.58  2366.23
                             2380.64  2384.65  2406.61  2412.10  4402.56
                             4435.13  4505.34  4551.08  4551.84  4580.36
                             4598.13  4602.28  4608.83  4614.31  4622.53
                             4628.88  4635.99  4640.83  4646.51  4663.49
                             5067.75  5181.82

 Zero-point correction=                           0.311680 (Hartree/Particle)
 Thermal correction to Energy=                    0.330605
 Thermal correction to Enthalpy=                  0.331550
 Thermal correction to Gibbs Free Energy=         0.263498
 Sum of electronic and zero-point Energies=          -1248.500147
 Sum of electronic and thermal Energies=             -1248.481222
 Sum of electronic and thermal Enthalpies=           -1248.480277
 Sum of electronic and thermal Free Energies=        -1248.548329

                     E (Thermal)             CV                S
                      KCal/Mol        Cal/Mol-Kelvin    Cal/Mol-Kelvin
 Total                  207.458             71.698            143.227
 Electronic               0.000              0.000              0.000
 Translational            0.889              2.981             42.862
 Rotational               0.889              2.981             33.745
 Vibrational            205.681             65.737             66.621
 Vibration     1          0.593              1.985              6.099
 Vibration     2          0.594              1.981              5.182
 Vibration     3          0.596              1.975              4.552
 Vibration     4          0.597              1.973              4.428
 Vibration     5          0.599              1.967              4.068
 Vibration     6          0.603              1.953              3.549
 Vibration     7          0.608              1.937              3.177
 Vibration     8          0.611              1.927              3.010
 Vibration     9          0.615              1.912              2.786
 Vibration    10          0.621              1.894              2.582
 Vibration    11          0.626              1.876              2.407
 Vibration    12          0.644              1.822              2.022
 Vibration    13          0.647              1.811              1.963
 Vibration    14          0.659              1.772              1.772
 Vibration    15          0.671              1.737              1.630
 Vibration    16          0.675              1.726              1.586
 Vibration    17          0.695              1.666              1.394
 Vibration    18          0.700              1.653              1.358
 Vibration    19          0.717              1.603              1.229
 Vibration    20          0.753              1.505              1.024
 Vibration    21          0.781              1.432              0.901
 Vibration    22          0.783              1.426              0.891
 Vibration    23          0.817              1.340              0.768
 Vibration    24          0.843              1.279              0.692
 Vibration    25          0.881              1.193              0.597
 Vibration    26          0.921              1.107              0.514
 Vibration    27          0.948              1.053              0.467
 Vibration    28          0.961              1.026              0.445

 Optimization completed.
    -- Stationary point found.
 Normal termination of Gaussian 16 at Mon Feb  1 07:40:42 2021.
