 Gaussian 16, Revision A.03,
 Gaussian 16:  ES64L-G16RevA.03 25-Dec-2016

 ----------------------------------------------------------------------
 # wB97XD def2tzvp, opt=(ts, noeigen, calcfc, maxcycles=70, maxstep=8),
  freq=noraman, scrf=(iefpcm, solvent=water)
 ----------------------------------------------------------------------

 ------------------------
 0_iteration/TS-337-0.out
 ------------------------
 Symbolic Z-matrix:
 Charge =  0 Multiplicity = 1

 SCF Done:  E(RwB97XD) =  -2900.71168108     A.U. after   15 cycles
 SCF Done:  E(RwB97XD) =  -2900.71159850     A.U. after   12 cycles
 SCF Done:  E(RwB97XD) =  -2900.71161567     A.U. after   11 cycles
 SCF Done:  E(RwB97XD) =  -2900.71187631     A.U. after   12 cycles
 SCF Done:  E(RwB97XD) =  -2900.71250126     A.U. after   13 cycles
 SCF Done:  E(RwB97XD) =  -2900.71298863     A.U. after   14 cycles
 SCF Done:  E(RwB97XD) =  -2900.71311096     A.U. after   12 cycles
 SCF Done:  E(RwB97XD) =  -2900.71308935     A.U. after   12 cycles
 SCF Done:  E(RwB97XD) =  -2900.71314220     A.U. after   11 cycles
 SCF Done:  E(RwB97XD) =  -2900.71314252     A.U. after    9 cycles
 SCF Done:  E(RwB97XD) =  -2900.71314257     A.U. after    7 cycles
 Optimization completed.
    -- Stationary point found.
 Normal termination of Gaussian 16 at Fri Feb 12 12:37:07 2021.

 ---------------------------------------------------------------------
 #N Geom=AllCheck Guess=TCheck SCRF=Check GenChk RwB97XD/def2TZVP Freq
 ---------------------------------------------------------------------

 Structure from the checkpoint file:  "/beegfs/scratch/user/q/tla25/Gau-80419.chk"
 ------------------------
 0_iteration/TS-337-0.out
 ------------------------
 Charge =  0 Multiplicity = 1

                         Standard orientation:
 ---------------------------------------------------------------------
 Center     Atomic      Atomic             Coordinates (Angstroms)
 Number     Number       Type             X           Y           Z
 ---------------------------------------------------------------------
      1          6           0        1.360103    0.298495    0.326031
      2          6           0        1.983146   -0.585867   -0.583557
      3          8           0        3.190962   -0.608311   -0.848968
      4          6           0       -0.015663    0.341674    0.511724
      5          6           0       -2.181715    2.072098   -0.359082
      6          1           0       -2.511099    2.859085   -1.037963
      7          1           0       -2.868817    1.231303   -0.425800
      8          1           0       -2.188117    2.456884    0.659805
      9          7           0       -0.832104    1.613288   -0.683602
     10          1           0       -0.782648    1.187461   -1.602717
     11          1           0       -0.164272    2.375800   -0.661091
     12          1           0       -0.402553    0.846398    1.387825
     13         35           0       -1.126876   -1.194061    0.152394
     14          6           0        2.197939    1.349483    1.009928
     15          1           0        1.645662    1.838414    1.814427
     16          1           0        3.097739    0.904707    1.439905
     17          1           0        2.530130    2.128326    0.315681
     18          1           0        1.318828   -1.318069   -1.077166
 ---------------------------------------------------------------------

 SCF Done:  E(RwB97XD) =  -2900.71314257     A.U. after    1 cycles

 The electronic state is 1-A.
 Alpha  occ. eigenvalues -- -483.13518 -62.68379 -56.47490 -56.47142 -56.47127
 Alpha  occ. eigenvalues --  -19.20527 -14.48940 -10.38790 -10.33869 -10.32071
 Alpha  occ. eigenvalues --  -10.27276 -10.26414  -8.82500  -6.64645  -6.63534
 Alpha  occ. eigenvalues --   -6.63486  -2.75035  -2.74719  -2.74682  -2.73783
 Alpha  occ. eigenvalues --   -2.73782  -1.10523  -1.04283  -0.93537  -0.86852
 Alpha  occ. eigenvalues --   -0.79462  -0.76905  -0.73515  -0.63522  -0.61226
 Alpha  occ. eigenvalues --   -0.58297  -0.55307  -0.54502  -0.53291  -0.50128
 Alpha  occ. eigenvalues --   -0.48676  -0.48216  -0.45995  -0.45505  -0.44169
 Alpha  occ. eigenvalues --   -0.44064  -0.38298  -0.37485  -0.31808  -0.27478
 Alpha virt. eigenvalues --    0.03842   0.06139   0.10047   0.13217   0.13954
 Alpha virt. eigenvalues --    0.15660   0.15874   0.16684   0.18400   0.19352
 Alpha virt. eigenvalues --    0.19636   0.20517   0.21335   0.22193   0.23142

 Mulliken charges:
               1
     1  C   -0.094742
     2  C    0.082923
     3  O   -0.521575
     4  C   -0.063179
     5  C   -0.274277
     6  H    0.156388
     7  H    0.152321
     8  H    0.152560
     9  N   -0.326624
    10  H    0.286011
    11  H    0.287528
    12  H    0.189188
    13  Br  -0.092561
    14  C   -0.377926
    15  H    0.126942
    16  H    0.123375
    17  H    0.122648
    18  H    0.071000
 Sum of Mulliken charges =  -0.00000

 Dipole moment (field-independent basis, Debye):
    X=             -9.0749    Y=              6.7449    Z=              0.0082  Tot=             11.3070
 Quadrupole moment (field-independent basis, Debye-Ang):
   XX=            -83.7367   YY=            -52.8135   ZZ=            -60.0559
   XY=             -0.3713   XZ=              8.0245   YZ=             -2.6005

  Exact polarizability: 185.947 -13.655 134.552  -3.360   6.036 104.058
 Approx polarizability: 138.192  -7.614 108.898  -3.485   4.953  91.239

 ******    1 imaginary frequencies (negative Signs) ******

                      1                      2                      3
                      A                      A                      A
 Frequencies --   -370.6869                60.0993                77.8115
 Red. masses --      6.5703                 2.8906                 2.3766
 Frc consts  --      0.5319                 0.0062                 0.0085
 IR Inten    --   1154.7094                 3.9984                 5.5924

                      4                      5                      6
                      A                      A                      A
 Frequencies --    109.1017               125.5518               159.8218
 Red. masses --      2.1099                 1.2087                 1.8174
 Frc consts  --      0.0148                 0.0112                 0.0274
 IR Inten    --      3.4925                 0.5545                 6.4272

                      7                      8                      9
                      A                      A                      A
 Frequencies --    162.9839               201.7004               265.3902
 Red. masses --      2.7113                 4.1203                 2.6028
 Frc consts  --      0.0424                 0.0988                 0.1080
 IR Inten    --      8.2206                 7.1020                 6.0614

                     10                     11                     12
                      A                      A                      A
 Frequencies --    294.4126               317.2943               350.4799
 Red. masses --      3.4553                 3.1606                 3.8786
 Frc consts  --      0.1765                 0.1875                 0.2807
 IR Inten    --      4.6649                25.7428                21.3761

                     13                     14                     15
                      A                      A                      A
 Frequencies --    483.1472               615.4803               685.4265
 Red. masses --      3.9707                 1.6476                 4.6767
 Frc consts  --      0.5461                 0.3677                 1.2945
 IR Inten    --    220.9569                 3.9346                34.7139

                     16                     17                     18
                      A                      A                      A
 Frequencies --    754.0367               872.3659              1007.0339
 Red. masses --      2.3981                 3.6523                 1.1295
 Frc consts  --      0.8034                 1.6376                 0.6749
 IR Inten    --    113.2327                36.7873                48.5597

                     19                     20                     21
                      A                      A                      A
 Frequencies --   1018.4484              1024.9413              1042.6250
 Red. masses --      1.4346                 1.4088                 1.1756
 Frc consts  --      0.8767                 0.8719                 0.7530
 IR Inten    --      2.6385               143.1825               127.3303

                     22                     23                     24
                      A                      A                      A
 Frequencies --   1060.2324              1076.4099              1161.6846
 Red. masses --      1.8487                 2.8025                 1.1064
 Frc consts  --      1.2244                 1.9132                 0.8797
 IR Inten    --     22.6368               163.0296               110.3102

                     25                     26                     27
                      A                      A                      A
 Frequencies --   1215.3085              1226.8822              1343.3366
 Red. masses --      1.3612                 1.4077                 1.3166
 Frc consts  --      1.1845                 1.2484                 1.3998
 IR Inten    --     66.4603                21.9354                 0.7629

                     28                     29                     30
                      A                      A                      A
 Frequencies --   1376.4417              1410.7520              1413.3260
 Red. masses --      1.8351                 3.3046                 1.2892
 Frc consts  --      2.0484                 3.8750                 1.5173
 IR Inten    --    584.4379               194.9612                93.6422

                     31                     32                     33
                      A                      A                      A
 Frequencies --   1461.8778              1469.6569              1478.0907
 Red. masses --      1.1793                 1.0484                 1.2811
 Frc consts  --      1.4849                 1.3341                 1.6491
 IR Inten    --      2.8378                10.9539                23.2764

                     34                     35                     36
                      A                      A                      A
 Frequencies --   1490.9960              1503.6814              1520.6816
 Red. masses --      1.0402                 1.0302                 1.6507
 Frc consts  --      1.3624                 1.3724                 2.2491
 IR Inten    --     16.8956                17.2889               215.2604

                     37                     38                     39
                      A                      A                      A
 Frequencies --   1640.3345              1657.2946              2950.2949
 Red. masses --      1.1033                 5.5497                 1.0815
 Frc consts  --      1.7491                 8.9808                 5.5464
 IR Inten    --    133.2995              1073.2264               119.4260

                     40                     41                     42
                      A                      A                      A
 Frequencies --   3028.2749              3069.6352              3087.9561
 Red. masses --      1.0414                 1.0339                 1.0947
 Frc consts  --      5.6270                 5.7396                 6.1499
 IR Inten    --     73.2400                48.6842                41.1023

                     43                     44                     45
                      A                      A                      A
 Frequencies --   3122.3119              3146.9195              3171.0314
 Red. masses --      1.1020                 1.1051                 1.1052
 Frc consts  --      6.3297                 6.4481                 6.5476
 IR Inten    --     29.4762                15.5285                12.0257

                     46                     47                     48
                      A                      A                      A
 Frequencies --   3193.0075              3519.4380              3602.9496
 Red. masses --      1.0921                 1.0508                 1.0968
 Frc consts  --      6.5602                 7.6689                 8.3883
 IR Inten    --      9.5171                26.5457                49.1073

 - Thermochemistry -
 -------------------
 Temperature   298.150 Kelvin.  Pressure   1.00000 Atm.
 Atom     1 has atomic number  6 and mass  12.00000

 Molecular mass:   178.99458 amu.
 Principal axes and moments of inertia in atomic units:
                           1         2         3
     Eigenvalues --  1140.223971980.655002726.68781
           X            0.99638  -0.08119   0.02507
           Y            0.08078   0.99658   0.01719
           Z           -0.02638  -0.01510   0.99954
 This molecule is an asymmetric top.
 Rotational symmetry number  1.
 Warning -- assumption of classical behavior for rotation
           may cause significant error
 Rotational temperatures (Kelvin)      0.07596     0.04373     0.03177
 Rotational constants (GHZ):           1.58280     0.91118     0.66188
    1 imaginary frequencies ignored.
 Zero-point vibrational energy     388947.6 (Joules/Mol)
                                   92.96071 (Kcal/Mol)
 Warning -- explicit consideration of  13 degrees of freedom as
           vibrations may cause significant error
 Vibrational temperatures:     86.47   111.95   156.97   180.64   229.95
          (Kelvin)            234.50   290.20   381.84   423.59   456.52
                              504.26   695.14   885.54   986.18  1084.89
                             1255.14  1448.90  1465.32  1474.66  1500.10
                             1525.44  1548.71  1671.40  1748.56  1765.21
                             1932.76  1980.39  2029.76  2033.46  2103.32
                             2114.51  2126.64  2145.21  2163.46  2187.92
                             2360.08  2384.48  4244.82  4357.01  4416.52
                             4442.88  4492.31  4527.72  4562.41  4594.03
                             5063.69  5183.84

 Zero-point correction=                           0.148142 (Hartree/Particle)
 Thermal correction to Energy=                    0.158398
 Thermal correction to Enthalpy=                  0.159343
 Thermal correction to Gibbs Free Energy=         0.111011
 Sum of electronic and zero-point Energies=          -2900.565000
 Sum of electronic and thermal Energies=             -2900.554744
 Sum of electronic and thermal Enthalpies=           -2900.553800
 Sum of electronic and thermal Free Energies=        -2900.602131

                     E (Thermal)             CV                S
                      KCal/Mol        Cal/Mol-Kelvin    Cal/Mol-Kelvin
 Total                   99.396             34.080            101.722
 Electronic               0.000              0.000              0.000
 Translational            0.889              2.981             41.453
 Rotational               0.889              2.981             30.200
 Vibrational             97.619             28.119             30.069
 Vibration     1          0.597              1.973              4.454
 Vibration     2          0.599              1.964              3.945
 Vibration     3          0.606              1.942              3.285
 Vibration     4          0.610              1.928              3.013
 Vibration     5          0.622              1.892              2.552
 Vibration     6          0.623              1.888              2.515
 Vibration     7          0.639              1.837              2.118
 Vibration     8          0.671              1.736              1.626
 Vibration     9          0.689              1.684              1.448
 Vibration    10          0.704              1.641              1.324
 Vibration    11          0.727              1.574              1.164
 Vibration    12          0.839              1.287              0.702
 Vibration    13          0.975              0.999              0.424

 Optimization completed.
    -- Stationary point found.
 Normal termination of Gaussian 16 at Fri Feb 12 12:45:10 2021.
