 Gaussian 16, Revision A.03,
 Gaussian 16:  ES64L-G16RevA.03 25-Dec-2016

 ----------------------------------------------------------------------
 # wB97XD def2tzvp, opt=(ts, noeigen, calcfc, maxcycles=70, maxstep=1),
  freq=noraman, scrf=(iefpcm, solvent=water)
 ----------------------------------------------------------------------

 ------------------------
 0_iteration/TS-335-0.out
 ------------------------
 Symbolic Z-matrix:
 Charge =  0 Multiplicity = 1

 SCF Done:  E(RwB97XD) =  -3147.82791877     A.U. after   14 cycles
 SCF Done:  E(RwB97XD) =  -3147.82791878     A.U. after    6 cycles
 Optimization completed.
    -- Stationary point found.
 Normal termination of Gaussian 16 at Tue Mar  2 02:53:51 2021.

 ---------------------------------------------------------------------
 #N Geom=AllCheck Guess=TCheck SCRF=Check GenChk RwB97XD/def2TZVP Freq
 ---------------------------------------------------------------------

 Structure from the checkpoint file:  "/beegfs/scratch/user/q/tla25/Gau-12190.chk"
 ------------------------
 0_iteration/TS-335-0.out
 ------------------------
 Charge =  0 Multiplicity = 1

                         Standard orientation:
 ---------------------------------------------------------------------
 Center     Atomic      Atomic             Coordinates (Angstroms)
 Number     Number       Type             X           Y           Z
 ---------------------------------------------------------------------
      1          6           0        1.223609    1.719042   -0.545844
      2          6           0       -0.213825    1.626497   -0.441366
      3          8           0       -0.931922    2.612165   -0.630639
      4          6           0        2.224884    0.809259   -0.293981
      5          6           0        3.775904   -0.091534    1.992598
      6          1           0        3.900258   -0.064669    3.075367
      7          1           0        3.775302   -1.126753    1.658796
      8          1           0        4.607843    0.433401    1.525330
      9          7           0        2.524101    0.544437    1.583228
     10          1           0        1.715147    0.053345    1.948707
     11          1           0        2.469235    1.504209    1.904903
     12          1           0        3.237333    1.131757   -0.493075
     13         35           0        2.103861   -1.072411   -0.825087
     14          1           0        1.571817    2.731444   -0.710881
     15          7           0       -0.754763    0.402031   -0.103734
     16          6           0       -2.091981    0.031297    0.056835
     17          6           0       -3.162923    0.926699    0.074182
     18          6           0       -4.454325    0.452362    0.261218
     19          6           0       -4.709159   -0.898804    0.434703
     20          6           0       -3.643286   -1.789201    0.420442
     21          6           0       -2.351891   -1.332346    0.233879
     22          1           0       -0.109086   -0.369750   -0.070130
     23          1           0       -2.976687    1.979173   -0.060068
     24          1           0       -5.273362    1.161329    0.271769
     25          1           0       -5.720805   -1.254647    0.579874
     26          1           0       -3.816402   -2.849705    0.554852
     27          1           0       -1.527771   -2.036965    0.225282
 ---------------------------------------------------------------------

 SCF Done:  E(RwB97XD) =  -3147.82791878     A.U. after    1 cycles

 The electronic state is 1-A.
 Alpha  occ. eigenvalues -- -483.13670 -62.68527 -56.47628 -56.47295 -56.47283
 Alpha  occ. eigenvalues --  -19.20258 -14.49080 -14.46083 -10.39005 -10.38470
 Alpha  occ. eigenvalues --  -10.33726 -10.32110 -10.28988 -10.28824 -10.28756
 Alpha  occ. eigenvalues --  -10.28173 -10.28078 -10.25901  -8.82638  -6.64746
 Alpha  occ. eigenvalues --   -6.63686  -6.63648  -2.75137  -2.74840  -2.74809
 Alpha  occ. eigenvalues --   -2.73954  -2.73952  -1.13165  -1.04439  -1.03715
 Alpha  occ. eigenvalues --   -0.95465  -0.92558  -0.85908  -0.85011  -0.83376
 Alpha  occ. eigenvalues --   -0.79230  -0.74470  -0.71663  -0.69385  -0.65330
 Alpha  occ. eigenvalues --   -0.63645  -0.62522  -0.58912  -0.58296  -0.55607
 Alpha  occ. eigenvalues --   -0.54802  -0.54112  -0.52984  -0.51924  -0.51875
 Alpha  occ. eigenvalues --   -0.50912  -0.49361  -0.48524  -0.46981  -0.45333
 Alpha  occ. eigenvalues --   -0.45058  -0.44311  -0.42776  -0.39535  -0.38139
 Alpha  occ. eigenvalues --   -0.37682  -0.33988  -0.33602  -0.30409  -0.27578
 Alpha virt. eigenvalues --    0.03723   0.04883   0.05439   0.08136   0.09900
 Alpha virt. eigenvalues --    0.12665   0.13973   0.14564   0.15005   0.16615
 Alpha virt. eigenvalues --    0.17185   0.17889   0.18100   0.18670   0.19051

 Mulliken charges:
               1
     1  C   -0.432141
     2  C    0.415839
     3  O   -0.541544
     4  C   -0.052456
     5  C   -0.274924
     6  H    0.157398
     7  H    0.153569
     8  H    0.153236
     9  N   -0.312201
    10  H    0.284256
    11  H    0.285007
    12  H    0.191073
    13  Br  -0.124467
    14  H    0.139564
    15  N   -0.250760
    16  C    0.288541
    17  C   -0.301732
    18  C   -0.105536
    19  C   -0.198369
    20  C   -0.105849
    21  C   -0.297850
    22  H    0.207555
    23  H    0.156709
    24  H    0.140551
    25  H    0.139784
    26  H    0.142519
    27  H    0.142227
 Sum of Mulliken charges =  -0.00000

 Dipole moment (field-independent basis, Debye):
    X=              8.3728    Y=             -4.1680    Z=              6.6765  Tot=             11.4914
 Quadrupole moment (field-independent basis, Debye-Ang):
   XX=            -75.9068   YY=           -104.6039   ZZ=            -93.2776
   XY=             11.4091   XZ=             11.1231   YZ=              5.3326

  Exact polarizability: 294.958  -8.136 242.281   8.868 -12.003 164.403
 Approx polarizability: 213.160  -7.389 203.512   3.605  -8.992 139.575

 ******    1 imaginary frequencies (negative Signs) ******

                      1                      2                      3
                      A                      A                      A
 Frequencies --   -392.7448                21.0999                26.9096
 Red. masses --      6.0509                 3.8983                 4.4779
 Frc consts  --      0.5499                 0.0010                 0.0019
 IR Inten    --    983.4372                 0.7751                 5.7503

                      4                      5                      6
                      A                      A                      A
 Frequencies --     53.6098                72.9749                80.3666
 Red. masses --      4.0658                 4.4860                 3.3758
 Frc consts  --      0.0069                 0.0141                 0.0128
 IR Inten    --      1.3870                10.4369                 3.5797

                      7                      8                      9
                      A                      A                      A
 Frequencies --     92.6867               152.4044               166.5662
 Red. masses --      5.9517                 3.1369                 1.4720
 Frc consts  --      0.0301                 0.0429                 0.0241
 IR Inten    --     12.4237                15.3186                 4.8743

                     10                     11                     12
                      A                      A                      A
 Frequencies --    191.4479               245.8570               275.9826
 Red. masses --      3.3490                 4.5740                 4.3464
 Frc consts  --      0.0723                 0.1629                 0.1950
 IR Inten    --      7.2293                 5.1035                12.7416

                     13                     14                     15
                      A                      A                      A
 Frequencies --    292.9021               354.7718               408.7615
 Red. masses --      4.0887                 6.3487                 3.7810
 Frc consts  --      0.2067                 0.4708                 0.3722
 IR Inten    --      8.6181                 5.5593                74.1465

                     16                     17                     18
                      A                      A                      A
 Frequencies --    423.1582               454.6183               528.4017
 Red. masses --      2.9939                 5.5504                 2.7686
 Frc consts  --      0.3159                 0.6759                 0.4555
 IR Inten    --      0.1216                33.0075                37.2322

                     19                     20                     21
                      A                      A                      A
 Frequencies --    549.4465               570.3705               629.7693
 Red. masses --      3.0167                 1.2604                 3.5831
 Frc consts  --      0.5366                 0.2416                 0.8373
 IR Inten    --     94.4914               137.1023                 7.9320

                     22                     23                     24
                      A                      A                      A
 Frequencies --    640.3382               669.9207               681.8392
 Red. masses --      2.8024                 2.2696                 1.8237
 Frc consts  --      0.6770                 0.6001                 0.4995
 IR Inten    --     13.7642                55.3127                39.4434

                     25                     26                     27
                      A                      A                      A
 Frequencies --    719.0649               754.6085               782.6022
 Red. masses --      1.8821                 3.2448                 1.8519
 Frc consts  --      0.5734                 1.0886                 0.6683
 IR Inten    --     64.7121                45.6524                50.5731

                     28                     29                     30
                      A                      A                      A
 Frequencies --    792.0803               862.2245               887.7688
 Red. masses --      5.2953                 1.2640                 5.4970
 Frc consts  --      1.9574                 0.5536                 2.5526
 IR Inten    --    132.8737                 0.1332                 1.7465

                     31                     32                     33
                      A                      A                      A
 Frequencies --    932.2795               975.2391              1001.3580
 Red. masses --      1.4653                 4.8234                 1.3440
 Frc consts  --      0.7504                 2.7029                 0.7940
 IR Inten    --     13.0593                16.1105                 0.0609

                     34                     35                     36
                      A                      A                      A
 Frequencies --   1003.4267              1017.0829              1020.5347
 Red. masses --      1.0811                 1.2832                 5.8176
 Frc consts  --      0.6413                 0.7821                 3.5698
 IR Inten    --     26.5941                 0.8421                 6.9073

                     37                     38                     39
                      A                      A                      A
 Frequencies --   1040.1813              1063.8844              1071.5903
 Red. masses --      1.2084                 2.0503                 3.9345
 Frc consts  --      0.7703                 1.3673                 2.6619
 IR Inten    --     36.9522                21.0703               204.0985

                     40                     41                     42
                      A                      A                      A
 Frequencies --   1121.6520              1141.0859              1181.3835
 Red. masses --      1.5153                 1.0981                 1.1513
 Frc consts  --      1.1232                 0.8424                 0.9467
 IR Inten    --      9.7440                85.5976                11.5904

                     43                     44                     45
                      A                      A                      A
 Frequencies --   1186.2779              1210.1440              1229.5203
 Red. masses --      1.3159                 1.1351                 1.4004
 Frc consts  --      1.0910                 0.9794                 1.2473
 IR Inten    --    115.5360                17.4550                28.3747

                     46                     47                     48
                      A                      A                      A
 Frequencies --   1264.9271              1286.2299              1322.8246
 Red. masses --      1.7588                 2.4858                 1.9285
 Frc consts  --      1.6580                 2.4230                 1.9882
 IR Inten    --    751.2352                61.4762                51.9270

                     49                     50                     51
                      A                      A                      A
 Frequencies --   1340.9287              1357.7498              1361.9930
 Red. masses --      1.4504                 2.6966                 1.5830
 Frc consts  --      1.5366                 2.9290                 1.7301
 IR Inten    --     44.4003               484.5180                13.2836

                     52                     53                     54
                      A                      A                      A
 Frequencies --   1454.1849              1478.0860              1479.9408
 Red. masses --      1.2516                 3.3062                 2.1715
 Frc consts  --      1.5593                 4.2558                 2.8022
 IR Inten    --     71.6872               603.6485               213.7101

                     55                     56                     57
                      A                      A                      A
 Frequencies --   1492.4215              1500.8426              1546.3710
 Red. masses --      1.0479                 1.0395                 2.4479
 Frc consts  --      1.3751                 1.3795                 3.4488
 IR Inten    --     23.1121                20.3141               213.2450

                     58                     59                     60
                      A                      A                      A
 Frequencies --   1575.0831              1643.0363              1657.8947
 Red. masses --      2.1151                 1.0902                 6.8833
 Frc consts  --      3.0917                 1.7340                11.1471
 IR Inten    --    513.9574                85.2639               317.6623

                     61                     62                     63
                      A                      A                      A
 Frequencies --   1672.6245              1681.9078              3070.5941
 Red. masses --      3.9950                 4.8745                 1.0341
 Frc consts  --      6.5852                 8.1243                 5.7446
 IR Inten    --     99.4261               813.6827                47.2368

                     64                     65                     66
                      A                      A                      A
 Frequencies --   3148.2879              3173.0041              3184.0001
 Red. masses --      1.1048                 1.1051                 1.0885
 Frc consts  --      6.4519                 6.5552                 6.5014
 IR Inten    --     14.7816                11.5695                14.6622

                     67                     68                     69
                      A                      A                      A
 Frequencies --   3192.5245              3194.9482              3205.3587
 Red. masses --      1.0858                 1.0881                 1.0929
 Frc consts  --      6.5203                 6.5440                 6.6156
 IR Inten    --      1.5011                 3.7699                29.7105

                     70                     71                     72
                      A                      A                      A
 Frequencies --   3219.4897              3220.4475              3281.2379
 Red. masses --      1.0935                 1.0980                 1.0914
 Frc consts  --      6.6783                 6.7094                 6.9234
 IR Inten    --      5.7201                22.2158                 4.2954

                     73                     74                     75
                      A                      A                      A
 Frequencies --   3516.7037              3599.7592              3619.2573
 Red. masses --      1.0510                 1.0967                 1.0766
 Frc consts  --      7.6581                 8.3730                 8.3093
 IR Inten    --     26.2220                46.2609               167.1123

 - Thermochemistry -
 -------------------
 Temperature   298.150 Kelvin.  Pressure   1.00000 Atm.
 Atom     1 has atomic number  6 and mass  12.00000

 Molecular mass:   256.02112 amu.
 Principal axes and moments of inertia in atomic units:
                           1         2         3
     Eigenvalues --  2041.150926963.264237740.09274
           X            0.99934   0.02855   0.02262
           Y           -0.02752   0.99863  -0.04462
           Z           -0.02386   0.04396   0.99875
 This molecule is an asymmetric top.
 Rotational symmetry number  1.
 Warning -- assumption of classical behavior for rotation
           may cause significant error
 Rotational temperatures (Kelvin)      0.04243     0.01244     0.01119
 Rotational constants (GHZ):           0.88418     0.25918     0.23317
    1 imaginary frequencies ignored.
 Zero-point vibrational energy     576126.6 (Joules/Mol)
                                  137.69757 (Kcal/Mol)
 Warning -- explicit consideration of  19 degrees of freedom as
           vibrations may cause significant error
 Vibrational temperatures:     30.36    38.72    77.13   104.99   115.63
          (Kelvin)            133.36   219.28   239.65   275.45   353.73
                              397.08   421.42   510.44   588.12   608.83
                              654.09   760.25   790.53   820.64   906.10
                              921.30   963.87   981.01  1034.57  1085.71
                             1125.99  1139.63  1240.55  1277.30  1341.34
                             1403.15  1440.73  1443.71  1463.36  1468.32
                             1496.59  1530.69  1541.78  1613.81  1641.77
                             1699.75  1706.79  1741.13  1769.01  1819.95
                             1850.60  1903.25  1929.30  1953.50  1959.60
                             2092.25  2126.64  2129.30  2147.26  2159.38
                             2224.88  2266.19  2363.96  2385.34  2406.53
                             2419.89  4417.90  4529.68  4565.25  4581.07
                             4593.33  4596.82  4611.80  4632.13  4633.51
                             4720.97  5059.75  5179.25  5207.30

 Zero-point correction=                           0.219435 (Hartree/Particle)
 Thermal correction to Energy=                    0.233706
 Thermal correction to Enthalpy=                  0.234650
 Thermal correction to Gibbs Free Energy=         0.174808
 Sum of electronic and zero-point Energies=          -3147.608484
 Sum of electronic and thermal Energies=             -3147.594213
 Sum of electronic and thermal Enthalpies=           -3147.593268
 Sum of electronic and thermal Free Energies=        -3147.653111

                     E (Thermal)             CV                S
                      KCal/Mol        Cal/Mol-Kelvin    Cal/Mol-Kelvin
 Total                  146.653             51.540            125.949
 Electronic               0.000              0.000              0.000
 Translational            0.889              2.981             42.520
 Rotational               0.889              2.981             33.064
 Vibrational            144.875             45.579             50.365
 Vibration     1          0.593              1.985              6.528
 Vibration     2          0.593              1.984              6.045
 Vibration     3          0.596              1.976              4.680
 Vibration     4          0.599              1.967              4.071
 Vibration     5          0.600              1.962              3.882
 Vibration     6          0.602              1.954              3.603
 Vibration     7          0.619              1.900              2.642
 Vibration     8          0.624              1.884              2.474
 Vibration     9          0.634              1.852              2.214
 Vibration    10          0.660              1.770              1.760
 Vibration    11          0.678              1.718              1.558
 Vibration    12          0.688              1.687              1.457
 Vibration    13          0.731              1.565              1.145
 Vibration    14          0.773              1.451              0.931
 Vibration    15          0.785              1.420              0.881
 Vibration    16          0.813              1.351              0.782
 Vibration    17          0.883              1.187              0.591
 Vibration    18          0.905              1.141              0.545
 Vibration    19          0.926              1.095              0.504

 Optimization completed.
    -- Stationary point found.
 Normal termination of Gaussian 16 at Tue Mar  2 03:35:28 2021.
