 Gaussian 16, Revision A.03,
 Gaussian 16:  ES64L-G16RevA.03 25-Dec-2016

 ----------------------------------------------------------------------
 # wB97XD def2tzvp, opt=(ts, noeigen, calcfc, maxcycles=70, maxstep=8),
  freq=noraman, scrf=(iefpcm, solvent=water)
 ----------------------------------------------------------------------

 ------------------------
 0_iteration/TS-346-0.out
 ------------------------
 Symbolic Z-matrix:
 Charge =  0 Multiplicity = 1

 SCF Done:  E(RwB97XD) =  -5474.31091026     A.U. after   16 cycles
 SCF Done:  E(RwB97XD) =  -5474.31015557     A.U. after   14 cycles
 SCF Done:  E(RwB97XD) =  -5474.30993378     A.U. after   14 cycles
 SCF Done:  E(RwB97XD) =  -5474.31180109     A.U. after   14 cycles
 SCF Done:  E(RwB97XD) =  -5474.31360501     A.U. after   14 cycles
 SCF Done:  E(RwB97XD) =  -5474.31569412     A.U. after   14 cycles
 SCF Done:  E(RwB97XD) =  -5474.31775711     A.U. after   13 cycles
 SCF Done:  E(RwB97XD) =  -5474.31993776     A.U. after   12 cycles
 SCF Done:  E(RwB97XD) =  -5474.32238022     A.U. after   12 cycles
 SCF Done:  E(RwB97XD) =  -5474.32502677     A.U. after   12 cycles
 SCF Done:  E(RwB97XD) =  -5474.33170957     A.U. after   11 cycles
 SCF Done:  E(RwB97XD) =  -5474.33148667     A.U. after   12 cycles
 SCF Done:  E(RwB97XD) =  -5474.33168307     A.U. after   12 cycles
 SCF Done:  E(RwB97XD) =  -5474.33170411     A.U. after   11 cycles
 SCF Done:  E(RwB97XD) =  -5474.33170458     A.U. after   12 cycles
 SCF Done:  E(RwB97XD) =  -5474.33170861     A.U. after   10 cycles
 SCF Done:  E(RwB97XD) =  -5474.33170806     A.U. after   10 cycles
 SCF Done:  E(RwB97XD) =  -5474.33170980     A.U. after   10 cycles
 SCF Done:  E(RwB97XD) =  -5474.33170984     A.U. after    6 cycles
 Optimization completed.
    -- Stationary point found.
 Normal termination of Gaussian 16 at Fri Feb 12 15:14:27 2021.

 ---------------------------------------------------------------------
 #N Geom=AllCheck Guess=TCheck SCRF=Check GenChk RwB97XD/def2TZVP Freq
 ---------------------------------------------------------------------

 Structure from the checkpoint file:  "/beegfs/scratch/user/q/tla25/Gau-96363.chk"
 ------------------------
 0_iteration/TS-346-0.out
 ------------------------
 Charge =  0 Multiplicity = 1

                         Standard orientation:
 ---------------------------------------------------------------------
 Center     Atomic      Atomic             Coordinates (Angstroms)
 Number     Number       Type             X           Y           Z
 ---------------------------------------------------------------------
      1          6           0       -0.531823   -0.314069   -0.072778
      2          6           0       -0.595209   -1.535684    0.690351
      3          8           0       -1.634871   -2.176053    0.813669
      4          6           0        0.522637    0.527752   -0.351030
      5          6           0       -0.238474    2.007126    1.973501
      6          1           0        0.009710    2.491322    2.918010
      7          1           0       -0.925320    2.636802    1.412536
      8          1           0       -0.729086    1.054880    2.180311
      9          7           0        0.949588    1.754332    1.169716
     10          1           0        1.334753    2.603819    0.773974
     11          1           0        1.679707    1.308913    1.712788
     12          1           0        0.325419    1.350607   -1.019591
     13         35           0        2.308963   -0.099279   -0.693250
     14         35           0       -2.223717    0.339718   -0.707312
     15          6           0        0.654571   -2.045173    1.378122
     16          1           0        1.270231   -1.251133    1.796710
     17          1           0        0.344489   -2.721829    2.171778
     18          1           0        1.268133   -2.600364    0.666802
 ---------------------------------------------------------------------

 SCF Done:  E(RwB97XD) =  -5474.33170984     A.U. after    1 cycles

 The electronic state is 1-A.
 Alpha  occ. eigenvalues -- -483.14140-483.12314 -62.68993 -62.67150 -56.48116
 Alpha  occ. eigenvalues --  -56.47753 -56.47735 -56.46260 -56.45912 -56.45909
 Alpha  occ. eigenvalues --  -19.21964 -14.48514 -10.39541 -10.37164 -10.32049
 Alpha  occ. eigenvalues --  -10.31766 -10.28009  -8.83109  -8.81262  -6.65288
 Alpha  occ. eigenvalues --   -6.64129  -6.64071  -6.63396  -6.62282  -6.62274
 Alpha  occ. eigenvalues --   -2.75671  -2.75345  -2.75300  -2.74363  -2.74362
 Alpha  occ. eigenvalues --   -2.73787  -2.73460  -2.73454  -2.72552  -2.72552
 Alpha  occ. eigenvalues --   -1.13037  -1.03884  -0.95144  -0.89719  -0.84693
 Alpha  occ. eigenvalues --   -0.80479  -0.78934  -0.72778  -0.63578  -0.60088
 Alpha  occ. eigenvalues --   -0.57327  -0.56503  -0.55358  -0.54248  -0.52155
 Alpha  occ. eigenvalues --   -0.50433  -0.48636  -0.48019  -0.46033  -0.44349
 Alpha  occ. eigenvalues --   -0.44233  -0.39245  -0.38136  -0.37577  -0.36773
 Alpha  occ. eigenvalues --   -0.33489  -0.28827
 Alpha virt. eigenvalues --    0.01643   0.04316   0.08615   0.10339   0.13408
 Alpha virt. eigenvalues --    0.13880   0.14726   0.15929   0.17594   0.18917
 Alpha virt. eigenvalues --    0.19122   0.19748   0.21322   0.22566   0.23192

 Mulliken charges:
               1
     1  C   -0.175969
     2  C    0.227194
     3  O   -0.465840
     4  C   -0.032993
     5  C   -0.281890
     6  H    0.158884
     7  H    0.159615
     8  H    0.149953
     9  N   -0.361784
    10  H    0.291802
    11  H    0.282906
    12  H    0.205828
    13  Br  -0.064842
    14  Br  -0.143975
    15  C   -0.367410
    16  H    0.126345
    17  H    0.136722
    18  H    0.155454
 Sum of Mulliken charges =   0.00000

 Dipole moment (field-independent basis, Debye):
    X=              7.1974    Y=              7.7212    Z=              3.2299  Tot=             11.0387
 Quadrupole moment (field-independent basis, Debye-Ang):
   XX=            -87.9723   YY=            -75.9401   ZZ=            -74.6528
   XY=             -5.0443   XZ=              5.2253   YZ=              6.9938

  Exact polarizability: 195.648  14.398 169.737   1.610   0.257 133.028
 Approx polarizability: 155.566  10.651 137.638   0.698  -1.056 112.762

 ******    1 imaginary frequencies (negative Signs) ******

                      1                      2                      3
                      A                      A                      A
 Frequencies --   -347.6077                44.6781                66.5836
 Red. masses --      6.0110                 2.9427                 5.2113
 Frc consts  --      0.4279                 0.0035                 0.0136
 IR Inten    --    804.8950                 0.5336                 9.4053

                      4                      5                      6
                      A                      A                      A
 Frequencies --     79.3797               116.7089               154.1676
 Red. masses --      3.4647                 3.7407                 5.9618
 Frc consts  --      0.0129                 0.0300                 0.0835
 IR Inten    --     11.7286                 3.8869                 3.9830

                      7                      8                      9
                      A                      A                      A
 Frequencies --    164.0595               174.3728               198.8288
 Red. masses --      2.2338                 1.6180                 1.4574
 Frc consts  --      0.0354                 0.0290                 0.0339
 IR Inten    --      0.8379                 0.5703                 1.8978

                     10                     11                     12
                      A                      A                      A
 Frequencies --    215.9122               254.9448               266.5544
 Red. masses --      2.5658                 7.7136                 3.9725
 Frc consts  --      0.0705                 0.2954                 0.1663
 IR Inten    --      3.9656                22.4819                10.8429

                     13                     14                     15
                      A                      A                      A
 Frequencies --    355.1793               436.9001               547.0891
 Red. masses --      3.5296                 3.7384                 4.1141
 Frc consts  --      0.2623                 0.4204                 0.7255
 IR Inten    --      4.4401                69.5831                24.5066

                     16                     17                     18
                      A                      A                      A
 Frequencies --    607.1485               635.7856               694.0670
 Red. masses --      1.7922                 2.8681                 4.4256
 Frc consts  --      0.3892                 0.6831                 1.2561
 IR Inten    --     28.0119                40.9552               144.6760

                     19                     20                     21
                      A                      A                      A
 Frequencies --    733.5627               889.3189               996.5449
 Red. masses --      3.5151                 4.5139                 1.0808
 Frc consts  --      1.1145                 2.1034                 0.6324
 IR Inten    --     56.6367                26.3274                22.0405

                     22                     23                     24
                      A                      A                      A
 Frequencies --   1001.7552              1023.8039              1041.8446
 Red. masses --      1.1839                 1.4698                 1.7286
 Frc consts  --      0.7000                 0.9077                 1.1055
 IR Inten    --     82.4146                84.9160                37.5569

                     25                     26                     27
                      A                      A                      A
 Frequencies --   1077.0376              1109.9779              1205.1711
 Red. masses --      3.4396                 1.2227                 1.4268
 Frc consts  --      2.3508                 0.8876                 1.2210
 IR Inten    --     49.8632                39.6438                18.3266

                     28                     29                     30
                      A                      A                      A
 Frequencies --   1219.2241              1337.2378              1350.6632
 Red. masses --      1.6875                 1.3627                 1.7675
 Frc consts  --      1.4780                 1.4357                 1.8998
 IR Inten    --     39.6588                14.4015                85.5381

                     31                     32                     33
                      A                      A                      A
 Frequencies --   1393.7641              1427.7662              1460.9356
 Red. masses --      1.3570                 3.2794                 1.0848
 Frc consts  --      1.5531                 3.9388                 1.3641
 IR Inten    --     60.7466               962.8565                31.6649

                     34                     35                     36
                      A                      A                      A
 Frequencies --   1465.8823              1484.4167              1491.7525
 Red. masses --      1.4060                 1.0863                 1.0398
 Frc consts  --      1.7800                 1.4104                 1.3633
 IR Inten    --    123.1820                25.9140                14.8874

                     37                     38                     39
                      A                      A                      A
 Frequencies --   1498.8317              1649.3441              1676.0052
 Red. masses --      1.0359                 1.0891                10.4756
 Frc consts  --      1.3711                 1.7456                17.3372
 IR Inten    --     21.1702                67.9848               670.9684

                     40                     41                     42
                      A                      A                      A
 Frequencies --   3064.7290              3072.1435              3137.5737
 Red. masses --      1.0339                 1.0362                 1.1045
 Frc consts  --      5.7217                 5.7619                 6.4064
 IR Inten    --     28.0758                 6.9893                14.2880

                     43                     44                     45
                      A                      A                      A
 Frequencies --   3149.0559              3169.4674              3169.6650
 Red. masses --      1.0995                 1.1047                 1.1046
 Frc consts  --      6.4242                 6.5382                 6.5387
 IR Inten    --     11.6033                11.3196                27.7753

                     46                     47                     48
                      A                      A                      A
 Frequencies --   3243.5073              3528.2097              3611.5571
 Red. masses --      1.0921                 1.0506                 1.0965
 Frc consts  --      6.7692                 7.7056                 8.4264
 IR Inten    --      2.8658                56.4179                47.9918

 - Thermochemistry -
 -------------------
 Temperature   298.150 Kelvin.  Pressure   1.00000 Atm.
 Atom     1 has atomic number  6 and mass  12.00000

 Molecular mass:   256.90509 amu.
 Principal axes and moments of inertia in atomic units:
                           1         2         3
     Eigenvalues --  1823.235173934.859764263.87697
           X            0.99992   0.00928   0.00828
           Y           -0.00997   0.99610   0.08771
           Z           -0.00743  -0.08779   0.99611
 This molecule is an asymmetric top.
 Rotational symmetry number  1.
 Warning -- assumption of classical behavior for rotation
           may cause significant error
 Rotational temperatures (Kelvin)      0.04751     0.02201     0.02031
 Rotational constants (GHZ):           0.98986     0.45865     0.42326
    1 imaginary frequencies ignored.
 Zero-point vibrational energy     363025.4 (Joules/Mol)
                                   86.76516 (Kcal/Mol)
 Warning -- explicit consideration of  15 degrees of freedom as
           vibrations may cause significant error
 Vibrational temperatures:     64.28    95.80   114.21   167.92   221.81
          (Kelvin)            236.05   250.88   286.07   310.65   366.81
                              383.51   511.02   628.60   787.14   873.55
                              914.75   998.61  1055.43  1279.53  1433.81
                             1441.30  1473.03  1498.98  1549.62  1597.01
                             1733.97  1754.19  1923.99  1943.30  2005.32
                             2054.24  2101.96  2109.08  2135.74  2146.30
                             2156.48  2373.04  2411.40  4409.46  4420.13
                             4514.27  4530.79  4560.16  4560.44  4666.68
                             5076.31  5196.23

 Zero-point correction=                           0.138269 (Hartree/Particle)
 Thermal correction to Energy=                    0.149803
 Thermal correction to Enthalpy=                  0.150747
 Thermal correction to Gibbs Free Energy=         0.098274
 Sum of electronic and zero-point Energies=          -5474.193441
 Sum of electronic and thermal Energies=             -5474.181907
 Sum of electronic and thermal Enthalpies=           -5474.180962
 Sum of electronic and thermal Free Energies=        -5474.233435

                     E (Thermal)             CV                S
                      KCal/Mol        Cal/Mol-Kelvin    Cal/Mol-Kelvin
 Total                   94.003             38.166            110.439
 Electronic               0.000              0.000              0.000
 Translational            0.889              2.981             42.531
 Rotational               0.889              2.981             31.792
 Vibrational             92.225             32.204             36.116
 Vibration     1          0.595              1.980              5.040
 Vibration     2          0.598              1.970              4.252
 Vibration     3          0.600              1.963              3.906
 Vibration     4          0.608              1.935              3.154
 Vibration     5          0.620              1.898              2.620
 Vibration     6          0.623              1.887              2.502
 Vibration     7          0.627              1.874              2.388
 Vibration     8          0.637              1.842              2.144
 Vibration     9          0.645              1.817              1.993
 Vibration    10          0.665              1.754              1.696
 Vibration    11          0.672              1.734              1.618
 Vibration    12          0.731              1.565              1.143
 Vibration    13          0.797              1.390              0.836
 Vibration    14          0.902              1.146              0.550
 Vibration    15          0.966              1.017              0.438

 Optimization completed.
    -- Stationary point found.
 Normal termination of Gaussian 16 at Fri Feb 12 15:26:04 2021.
