 Gaussian 16, Revision A.03,
 Gaussian 16:  ES64L-G16RevA.03 25-Dec-2016

 ----------------------------------------------------------------------
 # wB97XD def2tzvp, opt=(ts, noeigen, calcfc, maxcycles=70, maxstep=1),
  freq=noraman, scrf=(iefpcm, solvent=water)
 ----------------------------------------------------------------------

 ------------------------
 0_iteration/TS-352-0.out
 ------------------------
 Symbolic Z-matrix:
 Charge =  0 Multiplicity = 1

 SCF Done:  E(RwB97XD) =  -5666.06570771     A.U. after   15 cycles
 SCF Done:  E(RwB97XD) =  -5666.06570770     A.U. after    7 cycles
 Optimization completed.
    -- Stationary point found.
 Normal termination of Gaussian 16 at Tue Mar  2 03:07:06 2021.

 ---------------------------------------------------------------------
 #N Geom=AllCheck Guess=TCheck SCRF=Check GenChk RwB97XD/def2TZVP Freq
 ---------------------------------------------------------------------

 Structure from the checkpoint file:  "/beegfs/scratch/user/q/tla25/Gau-31689.chk"
 ------------------------
 0_iteration/TS-352-0.out
 ------------------------
 Charge =  0 Multiplicity = 1

                         Standard orientation:
 ---------------------------------------------------------------------
 Center     Atomic      Atomic             Coordinates (Angstroms)
 Number     Number       Type             X           Y           Z
 ---------------------------------------------------------------------
      1          6           0       -1.046122   -0.327038   -0.203890
      2          6           0       -0.130991   -1.438204   -0.158101
      3          8           0       -0.480724   -2.601105   -0.329903
      4          6           0       -0.817884    1.027745   -0.300858
      5          6           0       -1.429788    1.276207    2.509522
      6          1           0       -1.163281    1.586645    3.520241
      7          1           0       -2.476937    1.506174    2.325132
      8          1           0       -1.294924    0.196378    2.423350
      9          7           0       -0.608609    1.933540    1.502934
     10          1           0       -0.849290    2.911093    1.389556
     11          1           0        0.378848    1.880859    1.724517
     12          1           0       -1.667545    1.651319   -0.528745
     13         35           0        0.732640    1.776040   -1.140849
     14         35           0       -2.904423   -0.806504   -0.205534
     15          6           0        1.317344   -1.167976    0.132583
     16          6           0        1.709810   -0.611931    1.343651
     17          6           0        3.054720   -0.414997    1.619911
     18          6           0        4.012967   -0.764010    0.679941
     19          6           0        3.624644   -1.335580   -0.525175
     20          6           0        2.282602   -1.549935   -0.792482
     21          1           0        0.964864   -0.355348    2.086434
     22          1           0        3.352580    0.011180    2.569323
     23          1           0        5.062387   -0.599674    0.888671
     24          1           0        4.371151   -1.616349   -1.257200
     25          1           0        1.976789   -1.997667   -1.729788
 ---------------------------------------------------------------------

 SCF Done:  E(RwB97XD) =  -5666.06570770     A.U. after    1 cycles

 The electronic state is 1-A.
 Alpha  occ. eigenvalues -- -483.14195-483.12628 -62.69032 -62.67457 -56.48161
 Alpha  occ. eigenvalues --  -56.47793 -56.47773 -56.46572 -56.46218 -56.46217
 Alpha  occ. eigenvalues --  -19.22869 -14.48111 -10.39670 -10.37816 -10.32702
 Alpha  occ. eigenvalues --  -10.31797 -10.30500 -10.29902 -10.29656 -10.29591
 Alpha  occ. eigenvalues --  -10.29527 -10.29473  -8.83138  -8.81565  -6.65330
 Alpha  occ. eigenvalues --   -6.64154  -6.64090  -6.63710  -6.62577  -6.62574
 Alpha  occ. eigenvalues --   -2.75713  -2.75381  -2.75331  -2.74380  -2.74380
 Alpha  occ. eigenvalues --   -2.74098  -2.73766  -2.73762  -2.72847  -2.72846
 Alpha  occ. eigenvalues --   -1.13881  -1.03596  -0.97418  -0.95329  -0.89967
 Alpha  occ. eigenvalues --   -0.87179  -0.85794  -0.81670  -0.78893  -0.75815
 Alpha  occ. eigenvalues --   -0.71305  -0.70256  -0.63966  -0.63482  -0.59479
 Alpha  occ. eigenvalues --   -0.57557  -0.57111  -0.55888  -0.54865  -0.53854
 Alpha  occ. eigenvalues --   -0.53476  -0.51615  -0.51246  -0.48919  -0.48002
 Alpha  occ. eigenvalues --   -0.47387  -0.45809  -0.44971  -0.44224  -0.43230
 Alpha  occ. eigenvalues --   -0.39668  -0.38712  -0.37758  -0.36863  -0.34892
 Alpha  occ. eigenvalues --   -0.34287  -0.32919  -0.29250
 Alpha virt. eigenvalues --    0.00483   0.03747   0.04578   0.05145   0.08836
 Alpha virt. eigenvalues --    0.11179   0.13082   0.13581   0.14330   0.14905
 Alpha virt. eigenvalues --    0.16109   0.17030   0.17719   0.18168   0.19186

 Mulliken charges:
               1
     1  C   -0.228456
     2  C    0.235313
     3  O   -0.441914
     4  C    0.012774
     5  C   -0.293791
     6  H    0.160774
     7  H    0.163179
     8  H    0.150604
     9  N   -0.386200
    10  H    0.290186
    11  H    0.280411
    12  H    0.207451
    13  Br  -0.055466
    14  Br  -0.130542
    15  C    0.169484
    16  C   -0.264822
    17  C   -0.139167
    18  C   -0.142894
    19  C   -0.135606
    20  C   -0.214654
    21  H    0.180510
    22  H    0.144533
    23  H    0.147568
    24  H    0.146824
    25  H    0.143902
 Sum of Mulliken charges =  -0.00000

 Dipole moment (field-independent basis, Debye):
    X=              2.4545    Y=              9.5230    Z=              5.1047  Tot=             11.0801
 Quadrupole moment (field-independent basis, Debye-Ang):
   XX=           -101.3881   YY=           -113.8203   ZZ=            -96.2354
   XY=            -10.1462   XZ=             -3.6261   YZ=              8.8261

  Exact polarizability: 277.370  14.101 237.100  -8.061  31.060 215.168
 Approx polarizability: 217.152  13.212 196.897  -6.022  23.793 183.636

 ******    1 imaginary frequencies (negative Signs) ******

                      1                      2                      3
                      A                      A                      A
 Frequencies --   -344.0905                28.8765                50.5357
 Red. masses --      5.9514                 6.9495                 4.8023
 Frc consts  --      0.4152                 0.0034                 0.0072
 IR Inten    --    789.7141                 5.1043                 2.8921

                      4                      5                      6
                      A                      A                      A
 Frequencies --     65.7858                79.3198                94.1833
 Red. masses --      5.4673                 3.7726                 4.0561
 Frc consts  --      0.0139                 0.0140                 0.0212
 IR Inten    --      1.5640                 3.4455                 5.9013

                      7                      8                      9
                      A                      A                      A
 Frequencies --    121.0585               138.0054               168.1110
 Red. masses --      3.6419                 7.6408                 5.8341
 Frc consts  --      0.0314                 0.0857                 0.0971
 IR Inten    --      6.7260                 3.5469                 4.0213

                     10                     11                     12
                      A                      A                      A
 Frequencies --    184.1384               209.9808               216.6317
 Red. masses --      6.1966                 3.6298                 1.2994
 Frc consts  --      0.1238                 0.0943                 0.0359
 IR Inten    --      2.8166                10.9660                 0.8304

                     13                     14                     15
                      A                      A                      A
 Frequencies --    252.0729               269.2159               280.6399
 Red. masses --      4.6343                 7.1110                 5.1984
 Frc consts  --      0.1735                 0.3037                 0.2412
 IR Inten    --     25.7012                 4.2620                 2.3061

                     16                     17                     18
                      A                      A                      A
 Frequencies --    372.5663               420.4861               442.3547
 Red. masses --      5.7735                 2.9328                 3.8880
 Frc consts  --      0.4722                 0.3055                 0.4482
 IR Inten    --     22.5569                 1.2155                89.3214

                     19                     20                     21
                      A                      A                      A
 Frequencies --    536.6713               579.2370               634.7291
 Red. masses --      3.3708                 2.5519                 6.4212
 Frc consts  --      0.5720                 0.5045                 1.5242
 IR Inten    --      8.3494                12.0753                 0.2916

                     22                     23                     24
                      A                      A                      A
 Frequencies --    641.9328               697.7617               726.5599
 Red. masses --      2.9158                 5.8791                 2.5893
 Frc consts  --      0.7079                 1.6864                 0.8053
 IR Inten    --    106.3148                95.1492                79.9922

                     25                     26                     27
                      A                      A                      A
 Frequencies --    738.0799               765.4429               805.1862
 Red. masses --      1.8963                 6.6543                 4.0132
 Frc consts  --      0.6086                 2.2971                 1.5330
 IR Inten    --     41.2862                66.9047                67.5552

                     28                     29                     30
                      A                      A                      A
 Frequencies --    840.0191               883.4425               966.0116
 Red. masses --      3.6880                 1.2540                 1.4378
 Frc consts  --      1.5333                 0.5767                 0.7905
 IR Inten    --     40.6165                 1.4709                15.4896

                     31                     32                     33
                      A                      A                      A
 Frequencies --    992.0242              1000.2905              1015.5375
 Red. masses --      1.1266                 1.0780                 1.4612
 Frc consts  --      0.6532                 0.6355                 0.8879
 IR Inten    --    101.1647                22.8864                 2.8338

                     34                     35                     36
                      A                      A                      A
 Frequencies --   1027.4258              1034.3702              1056.6745
 Red. masses --      3.9886                 1.3616                 2.4882
 Frc consts  --      2.4807                 0.8583                 1.6369
 IR Inten    --      1.6393                 0.7604                16.0317

                     37                     38                     39
                      A                      A                      A
 Frequencies --   1072.8413              1097.2620              1105.8471
 Red. masses --      2.1155                 1.5271                 2.0845
 Frc consts  --      1.4346                 1.0833                 1.5019
 IR Inten    --    121.0515                36.0687                25.8951

                     40                     41                     42
                      A                      A                      A
 Frequencies --   1116.2338              1185.0646              1201.3095
 Red. masses --      1.7738                 1.1387                 1.4111
 Frc consts  --      1.3022                 0.9422                 1.1998
 IR Inten    --      7.1626                 0.3253                13.7262

                     43                     44                     45
                      A                      A                      A
 Frequencies --   1205.5728              1257.8452              1323.4248
 Red. masses --      1.1196                 1.8577                 3.9091
 Frc consts  --      0.9587                 1.7317                 4.0339
 IR Inten    --      2.6765                40.8596                12.6114

                     46                     47                     48
                      A                      A                      A
 Frequencies --   1338.8878              1355.5589              1363.7201
 Red. masses --      1.3435                 1.7323                 1.9820
 Frc consts  --      1.4190                 1.8754                 2.1717
 IR Inten    --      8.4396                38.9583               112.1289

                     49                     50                     51
                      A                      A                      A
 Frequencies --   1428.1507              1467.6274              1490.5531
 Red. masses --      4.3625                 1.3657                 2.2298
 Frc consts  --      5.2425                 1.7332                 2.9188
 IR Inten    --   1036.3417               111.1526                26.4029

                     52                     53                     54
                      A                      A                      A
 Frequencies --   1496.5635              1503.7536              1541.1033
 Red. masses --      1.0418                 1.0352                 2.3187
 Frc consts  --      1.3748                 1.3792                 3.2445
 IR Inten    --     12.9291                18.2806                 5.9308

                     55                     56                     57
                      A                      A                      A
 Frequencies --   1647.8610              1650.4395              1672.1751
 Red. masses --      1.1035                 5.6056                11.9301
 Frc consts  --      1.7654                 8.9965                19.6542
 IR Inten    --     46.2678                51.4042               644.1937

                     58                     59                     60
                      A                      A                      A
 Frequencies --   1674.4036              3059.3401              3130.5711
 Red. masses --      5.9340                 1.0342                 1.1042
 Frc consts  --      9.8021                 5.7032                 6.3760
 IR Inten    --     13.8321                30.1952                19.3270

                     61                     62                     63
                      A                      A                      A
 Frequencies --   3163.8116              3196.9961              3202.6401
 Red. masses --      1.1045                 1.0859                 1.0878
 Frc consts  --      6.5140                 6.5389                 6.5736
 IR Inten    --     14.9396                 1.1145                 0.1215

                     64                     65                     66
                      A                      A                      A
 Frequencies --   3209.6312              3216.8483              3225.3019
 Red. masses --      1.0916                 1.0954                 1.0989
 Frc consts  --      6.6257                 6.6785                 6.7351
 IR Inten    --     10.9175                35.1377                14.1985

                     67                     68                     69
                      A                      A                      A
 Frequencies --   3243.6128              3524.5928              3609.0719
 Red. masses --      1.0923                 1.0509                 1.0963
 Frc consts  --      6.7710                 7.6918                 8.4131
 IR Inten    --      2.4536                50.0079                54.4629

 - Thermochemistry -
 -------------------
 Temperature   298.150 Kelvin.  Pressure   1.00000 Atm.
 Atom     1 has atomic number  6 and mass  12.00000

 Molecular mass:   318.92074 amu.
 Principal axes and moments of inertia in atomic units:
                           1         2         3
     Eigenvalues --  3400.249836234.156057308.37686
           X            0.99740  -0.07153  -0.00833
           Y            0.07201   0.98995   0.12171
           Z           -0.00046  -0.12199   0.99253
 This molecule is an asymmetric top.
 Rotational symmetry number  1.
 Warning -- assumption of classical behavior for rotation
           may cause significant error
 Rotational temperatures (Kelvin)      0.02547     0.01389     0.01185
 Rotational constants (GHZ):           0.53077     0.28949     0.24694
    1 imaginary frequencies ignored.
 Zero-point vibrational energy     504309.6 (Joules/Mol)
                                  120.53288 (Kcal/Mol)
 Warning -- explicit consideration of  19 degrees of freedom as
           vibrations may cause significant error
 Vibrational temperatures:     41.55    72.71    94.65   114.12   135.51
          (Kelvin)            174.18   198.56   241.87   264.93   302.12
                              311.68   362.68   387.34   403.78   536.04
                              604.99   636.45   772.15   833.39   913.23
                              923.60  1003.92  1045.36  1061.93  1101.30
                             1158.48  1208.60  1271.08  1389.88  1427.30
                             1439.19  1461.13  1478.24  1488.23  1520.32
                             1543.58  1578.72  1591.07  1606.01  1705.04
                             1728.42  1734.55  1809.76  1904.11  1926.36
                             1950.35  1962.09  2054.79  2111.59  2144.57
                             2153.22  2163.57  2217.30  2370.90  2374.61
                             2405.89  2409.09  4401.71  4504.19  4552.02
                             4599.76  4607.88  4617.94  4628.33  4640.49
                             4666.84  5071.10  5192.65

 Zero-point correction=                           0.192081 (Hartree/Particle)
 Thermal correction to Energy=                    0.206620
 Thermal correction to Enthalpy=                  0.207564
 Thermal correction to Gibbs Free Energy=         0.147686
 Sum of electronic and zero-point Energies=          -5665.873626
 Sum of electronic and thermal Energies=             -5665.859087
 Sum of electronic and thermal Enthalpies=           -5665.858143
 Sum of electronic and thermal Free Energies=        -5665.918022

                     E (Thermal)             CV                S
                      KCal/Mol        Cal/Mol-Kelvin    Cal/Mol-Kelvin
 Total                  129.656             51.170            126.025
 Electronic               0.000              0.000              0.000
 Translational            0.889              2.981             43.175
 Rotational               0.889              2.981             33.404
 Vibrational            127.879             45.208             49.445
 Vibration     1          0.593              1.984              5.905
 Vibration     2          0.595              1.977              4.796
 Vibration     3          0.597              1.971              4.276
 Vibration     4          0.600              1.963              3.908
 Vibration     5          0.603              1.953              3.571
 Vibration     6          0.609              1.932              3.083
 Vibration     7          0.614              1.915              2.831
 Vibration     8          0.625              1.882              2.456
 Vibration     9          0.631              1.861              2.286
 Vibration    10          0.642              1.826              2.044
 Vibration    11          0.645              1.816              1.987
 Vibration    12          0.664              1.759              1.716
 Vibration    13          0.674              1.730              1.601
 Vibration    14          0.680              1.709              1.530
 Vibration    15          0.744              1.528              1.069
 Vibration    16          0.783              1.426              0.890
 Vibration    17          0.802              1.378              0.819
 Vibration    18          0.892              1.169              0.572
 Vibration    19          0.936              1.076              0.487

 Optimization completed.
    -- Stationary point found.
 Normal termination of Gaussian 16 at Tue Mar  2 03:56:44 2021.
