 Gaussian 16, Revision A.03,
 Gaussian 16:  ES64L-G16RevA.03 25-Dec-2016

 ----------------------------------------------------------------------
 # wB97XD def2tzvp, opt=(ts, noeigen, calcfc, maxcycles=70, maxstep=1),
  freq=noraman, scrf=(iefpcm, solvent=water)
 ----------------------------------------------------------------------

 ------------------------
 0_iteration/TS-378-0.out
 ------------------------
 Symbolic Z-matrix:
 Charge =  0 Multiplicity = 1

 SCF Done:  E(RwB97XD) =  -826.027160739     A.U. after   15 cycles
 SCF Done:  E(RwB97XD) =  -826.027160775     A.U. after    7 cycles
 Optimization completed.
    -- Stationary point found.
 Normal termination of Gaussian 16 at Tue Mar  2 02:19:39 2021.

 ---------------------------------------------------------------------
 #N Geom=AllCheck Guess=TCheck SCRF=Check GenChk RwB97XD/def2TZVP Freq
 ---------------------------------------------------------------------

 Structure from the checkpoint file:  "/beegfs/scratch/user/q/tla25/Gau-23597.chk"
 ------------------------
 0_iteration/TS-378-0.out
 ------------------------
 Charge =  0 Multiplicity = 1

                         Standard orientation:
 ---------------------------------------------------------------------
 Center     Atomic      Atomic             Coordinates (Angstroms)
 Number     Number       Type             X           Y           Z
 ---------------------------------------------------------------------
      1          6           0       -0.831621    0.582823   -0.375573
      2          6           0       -1.806424   -0.209584    0.302285
      3          8           0       -2.971094    0.200482    0.437578
      4          6           0        0.511466    0.275525   -0.577851
      5          6           0        3.019776    0.763450    0.731408
      6          1           0        3.528559    1.104755    1.632972
      7          1           0        3.395114   -0.219743    0.457401
      8          1           0        3.222701    1.462475   -0.078631
      9          7           0        1.573028    0.681703    0.934159
     10          1           0        1.329283   -0.000324    1.643991
     11          1           0        1.184517    1.573136    1.221371
     12          1           0        1.060416    0.943509   -1.229300
     13         17           0        1.092883   -1.374145   -0.891889
     14          6           0       -1.267743    1.971090   -0.789743
     15          1           0       -0.470085    2.499037   -1.315498
     16          1           0       -2.134457    1.931000   -1.453984
     17          1           0       -1.560650    2.582843    0.069132
     18          6           0       -1.480922   -1.571387    0.889624
     19          1           0       -0.508679   -1.611917    1.378919
     20          1           0       -2.256803   -1.822187    1.610935
     21          1           0       -1.478556   -2.329390    0.104168
 ---------------------------------------------------------------------

 SCF Done:  E(RwB97XD) =  -826.027160775     A.U. after    1 cycles

 The electronic state is 1-A.
 Alpha  occ. eigenvalues -- -101.69867 -19.19699 -14.49305 -10.38988 -10.34502
 Alpha  occ. eigenvalues --  -10.32152 -10.26842 -10.26749 -10.25783  -9.58467
 Alpha  occ. eigenvalues --   -7.33096  -7.32264  -7.32213  -1.10278  -1.04823
 Alpha  occ. eigenvalues --   -0.96787  -0.87879  -0.82323  -0.79637  -0.76118
 Alpha  occ. eigenvalues --   -0.71040  -0.63827  -0.60247  -0.56583  -0.55614
 Alpha  occ. eigenvalues --   -0.54660  -0.54159  -0.51521  -0.49652  -0.48802
 Alpha  occ. eigenvalues --   -0.48290  -0.47619  -0.46273  -0.44947  -0.43481
 Alpha  occ. eigenvalues --   -0.41882  -0.39496  -0.38880  -0.31629  -0.26864
 Alpha virt. eigenvalues --    0.04788   0.08616   0.10133   0.13015   0.13692
 Alpha virt. eigenvalues --    0.15180   0.15815   0.16810   0.17469   0.19276
 Alpha virt. eigenvalues --    0.19681   0.20018   0.21069   0.21221   0.22216

 Mulliken charges:
               1
     1  C   -0.137954
     2  C    0.204321
     3  O   -0.531927
     4  C   -0.065411
     5  C   -0.277668
     6  H    0.157453
     7  H    0.151504
     8  H    0.153695
     9  N   -0.299383
    10  H    0.283208
    11  H    0.288490
    12  H    0.186119
    13  Cl  -0.119212
    14  C   -0.347350
    15  H    0.114772
    16  H    0.114049
    17  H    0.111563
    18  C   -0.357470
    19  H    0.111907
    20  H    0.119605
    21  H    0.139689
 Sum of Mulliken charges =  -0.00000

 Dipole moment (field-independent basis, Debye):
    X=             10.7850    Y=              1.9501    Z=              2.6257  Tot=             11.2700
 Quadrupole moment (field-independent basis, Debye-Ang):
   XX=            -75.6289   YY=            -59.6512   ZZ=            -59.3865
   XY=              8.2548   XZ=              7.2888   YZ=             -0.1519

  Exact polarizability: 191.850  -1.537 131.843  -1.509  -0.561 112.002
 Approx polarizability: 143.164  -2.850 108.397  -1.654   0.953  96.806

 ******    1 imaginary frequencies (negative Signs) ******

                      1                      2                      3
                      A                      A                      A
 Frequencies --   -381.3692                52.4530                79.1282
 Red. masses --      6.6545                 2.3219                 3.9722
 Frc consts  --      0.5702                 0.0038                 0.0147
 IR Inten    --   1153.8688                 1.7832                10.0189

                      4                      5                      6
                      A                      A                      A
 Frequencies --     87.6080               135.7895               151.3318
 Red. masses --      2.1748                 1.3502                 1.1303
 Frc consts  --      0.0098                 0.0147                 0.0153
 IR Inten    --      5.9434                 2.1174                 0.5598

                      7                      8                      9
                      A                      A                      A
 Frequencies --    152.4252               177.1373               205.3026
 Red. masses --      1.9038                 1.3814                 4.3216
 Frc consts  --      0.0261                 0.0255                 0.1073
 IR Inten    --      4.4486                 4.2414                 7.0985

                     10                     11                     12
                      A                      A                      A
 Frequencies --    219.9722               292.2681               319.1047
 Red. masses --      3.3059                 2.7897                 4.3231
 Frc consts  --      0.0942                 0.1404                 0.2594
 IR Inten    --      9.5782                 3.9251                 7.6450

                     13                     14                     15
                      A                      A                      A
 Frequencies --    363.7875               449.0226               487.1753
 Red. masses --      3.6703                 4.4357                 4.3061
 Frc consts  --      0.2862                 0.5269                 0.6022
 IR Inten    --      1.9103               198.2563                65.0175

                     16                     17                     18
                      A                      A                      A
 Frequencies --    611.5773               644.4673               651.2690
 Red. masses --      3.7575                 2.6582                 1.7119
 Frc consts  --      0.8280                 0.6505                 0.4278
 IR Inten    --     13.4686                51.8976                 2.6539

                     19                     20                     21
                      A                      A                      A
 Frequencies --    747.3255               826.1134               970.0286
 Red. masses --      2.8668                 3.2737                 1.9422
 Frc consts  --      0.9433                 1.3163                 1.0768
 IR Inten    --      9.0982               176.5104                45.1879

                     22                     23                     24
                      A                      A                      A
 Frequencies --   1008.8108              1023.8798              1032.3834
 Red. masses --      1.2517                 1.2854                 1.5234
 Frc consts  --      0.7505                 0.7939                 0.9566
 IR Inten    --    135.8457                86.6012                13.6302

                     25                     26                     27
                      A                      A                      A
 Frequencies --   1049.2726              1064.6597              1078.0930
 Red. masses --      1.3480                 1.8280                 2.3779
 Frc consts  --      0.8744                 1.2208                 1.6284
 IR Inten    --     88.7799                33.2625               181.9933

                     28                     29                     30
                      A                      A                      A
 Frequencies --   1113.3996              1179.9648              1237.0840
 Red. masses --      2.4906                 1.0982                 1.3910
 Frc consts  --      1.8191                 0.9009                 1.2542
 IR Inten    --     20.0345                92.8314                31.5555

                     31                     32                     33
                      A                      A                      A
 Frequencies --   1269.5779              1342.5677              1386.3858
 Red. masses --      1.4255                 1.3129                 1.2916
 Frc consts  --      1.3538                 1.3943                 1.4627
 IR Inten    --     37.0909                 1.3769                46.4387

                     34                     35                     36
                      A                      A                      A
 Frequencies --   1411.8260              1432.6967              1434.6567
 Red. masses --      1.5375                 2.4605                 1.9873
 Frc consts  --      1.8056                 2.9757                 2.4100
 IR Inten    --     57.7940               674.7499               349.8675

                     37                     38                     39
                      A                      A                      A
 Frequencies --   1458.9359              1462.3567              1468.2251
 Red. masses --      1.0992                 1.2094                 1.0458
 Frc consts  --      1.3785                 1.5238                 1.3282
 IR Inten    --     25.9770                26.0445                12.2906

                     40                     41                     42
                      A                      A                      A
 Frequencies --   1481.4407              1491.0280              1504.2521
 Red. masses --      1.1187                 1.0396                 1.0448
 Frc consts  --      1.4465                 1.3617                 1.3929
 IR Inten    --     15.3897                17.9398                37.9707

                     43                     44                     45
                      A                      A                      A
 Frequencies --   1506.3214              1619.1283              1642.3657
 Red. masses --      1.2184                 7.9887                 1.0932
 Frc consts  --      1.6288                12.3393                 1.7373
 IR Inten    --    249.3099               777.7500                34.8260

                     46                     47                     48
                      A                      A                      A
 Frequencies --   3028.9998              3065.6593              3072.7022
 Red. masses --      1.0380                 1.0364                 1.0339
 Frc consts  --      5.6108                 5.7389                 5.7511
 IR Inten    --     88.5718                11.6701                45.8148

                     49                     50                     51
                      A                      A                      A
 Frequencies --   3081.3572              3115.0259              3138.5866
 Red. masses --      1.0994                 1.1011                 1.0998
 Frc consts  --      6.1501                 6.2948                 6.3833
 IR Inten    --     51.2006                38.6027                19.2612

                     52                     53                     54
                      A                      A                      A
 Frequencies --   3150.9536              3158.2704              3175.6299
 Red. masses --      1.1052                 1.1038                 1.1052
 Frc consts  --      6.4651                 6.4867                 6.5666
 IR Inten    --     14.2940                37.2724                11.1301

                     55                     56                     57
                      A                      A                      A
 Frequencies --   3192.5533              3521.4766              3603.1396
 Red. masses --      1.0913                 1.0509                 1.0964
 Frc consts  --      6.5532                 7.6781                 8.3869
 IR Inten    --     11.5637                25.3578                47.9205

 - Thermochemistry -
 -------------------
 Temperature   298.150 Kelvin.  Pressure   1.00000 Atm.
 Atom     1 has atomic number  6 and mass  12.00000

 Molecular mass:   149.06074 amu.
 Principal axes and moments of inertia in atomic units:
                           1         2         3
     Eigenvalues --  1021.724622024.027262409.19838
           X            0.99882   0.04336   0.02180
           Y           -0.04126   0.99518  -0.08892
           Z           -0.02555   0.08791   0.99580
 This molecule is an asymmetric top.
 Rotational symmetry number  1.
 Warning -- assumption of classical behavior for rotation
           may cause significant error
 Rotational temperatures (Kelvin)      0.08477     0.04279     0.03595
 Rotational constants (GHZ):           1.76637     0.89166     0.74910
    1 imaginary frequencies ignored.
 Zero-point vibrational energy     464312.3 (Joules/Mol)
                                  110.97330 (Kcal/Mol)
 Warning -- explicit consideration of  15 degrees of freedom as
           vibrations may cause significant error
 Vibrational temperatures:     75.47   113.85   126.05   195.37   217.73
          (Kelvin)            219.31   254.86   295.38   316.49   420.51
                              459.12   523.41   646.04   700.94   879.92
                              927.24   937.03  1075.23  1188.59  1395.65
                             1451.45  1473.13  1485.37  1509.67  1531.81
                             1551.14  1601.93  1697.71  1779.89  1826.64
                             1931.66  1994.70  2031.30  2061.33  2064.15
                             2099.08  2104.01  2112.45  2131.46  2145.26
                             2164.28  2167.26  2329.56  2363.00  4358.06
                             4410.80  4420.93  4433.39  4481.83  4515.73
                             4533.52  4544.05  4569.02  4593.37  5066.62
                             5184.11

 Zero-point correction=                           0.176847 (Hartree/Particle)
 Thermal correction to Energy=                    0.188313
 Thermal correction to Enthalpy=                  0.189257
 Thermal correction to Gibbs Free Energy=         0.139016
 Sum of electronic and zero-point Energies=           -825.850314
 Sum of electronic and thermal Energies=              -825.838848
 Sum of electronic and thermal Enthalpies=            -825.837904
 Sum of electronic and thermal Free Energies=         -825.888145

                     E (Thermal)             CV                S
                      KCal/Mol        Cal/Mol-Kelvin    Cal/Mol-Kelvin
 Total                  118.168             39.255            105.742
 Electronic               0.000              0.000              0.000
 Translational            0.889              2.981             40.908
 Rotational               0.889              2.981             29.989
 Vibrational            116.391             33.294             34.845
 Vibration     1          0.596              1.977              4.723
 Vibration     2          0.600              1.963              3.912
 Vibration     3          0.601              1.958              3.713
 Vibration     4          0.614              1.918              2.862
 Vibration     5          0.619              1.901              2.655
 Vibration     6          0.619              1.900              2.642
 Vibration     7          0.628              1.870              2.358
 Vibration     8          0.640              1.832              2.085
 Vibration     9          0.647              1.811              1.959
 Vibration    10          0.688              1.688              1.461
 Vibration    11          0.705              1.637              1.315
 Vibration    12          0.737              1.547              1.106
 Vibration    13          0.808              1.363              0.799
 Vibration    14          0.843              1.278              0.691
 Vibration    15          0.971              1.007              0.430

 Optimization completed.
    -- Stationary point found.
 Normal termination of Gaussian 16 at Tue Mar  2 02:30:41 2021.
