 Gaussian 16, Revision A.03,
 Gaussian 16:  ES64L-G16RevA.03 25-Dec-2016

 ----------------------------------------------------------------------
 # wB97XD def2tzvp, opt=(ts, noeigen, calcfc, maxcycles=70, maxstep=8),
  freq=noraman, scrf=(iefpcm, solvent=water)
 ----------------------------------------------------------------------

 ------------------------
 1_iteration/TS-328-1.out
 ------------------------
 Symbolic Z-matrix:
 Charge =  0 Multiplicity = 1

 SCF Done:  E(RwB97XD) =  -3323.50196472     A.U. after   15 cycles
 Optimization completed.
    -- Stationary point found.
 Normal termination of Gaussian 16 at Tue Mar  2 10:33:22 2021.

 ---------------------------------------------------------------------
 #N Geom=AllCheck Guess=TCheck SCRF=Check GenChk RwB97XD/def2TZVP Freq
 ---------------------------------------------------------------------

 Structure from the checkpoint file:  "/beegfs/scratch/user/q/tla25/Gau-34753.chk"
 ------------------------
 1_iteration/TS-328-1.out
 ------------------------
 Charge =  0 Multiplicity = 1

                         Standard orientation:
 ---------------------------------------------------------------------
 Center     Atomic      Atomic             Coordinates (Angstroms)
 Number     Number       Type             X           Y           Z
 ---------------------------------------------------------------------
      1          6           0        0.785468    0.182760   -0.055132
      2          6           0       -0.042942    1.333040    0.232088
      3          8           0        0.414888    2.459080    0.425148
      4          6           0        0.333898   -1.083470   -0.390692
      5          6           0        0.377628   -1.800700    2.440438
      6          1           0       -0.265752   -1.947010    3.307858
      7          1           0        1.280148   -2.392869    2.569958
      8          1           0        0.657868   -0.744300    2.381128
      9          7           0       -0.288332   -2.175290    1.201928
     10          1           0       -0.171942   -3.155140    0.975228
     11          1           0       -1.281142   -1.977800    1.233218
     12          1           0        1.091008   -1.805450   -0.655752
     13         35           0       -1.206452   -1.450920   -1.490652
     14          6           0        2.270118    0.343031   -0.030952
     15          6           0        3.102538   -0.597809    0.576558
     16          6           0        4.484348   -0.471139    0.544718
     17          6           0        5.071888    0.609261   -0.093362
     18          6           0        4.259418    1.552791   -0.708332
     19          6           0        2.880648    1.420191   -0.681342
     20          1           0        2.672708   -1.448549    1.087778
     21          1           0        5.099908   -1.219629    1.028358
     22          1           0        6.149188    0.714481   -0.115722
     23          1           0        4.703178    2.396881   -1.222282
     24          1           0        2.264898    2.158541   -1.174122
     25          6           0       -1.538272    1.195060    0.351518
     26          6           0       -2.118292    0.573420    1.449808
     27          6           0       -3.499552    0.512120    1.574048
     28          6           0       -4.309632    1.073650    0.598868
     29          6           0       -3.733362    1.718650   -0.488192
     30          6           0       -2.355062    1.788590   -0.605162
     31          1           0       -1.492542    0.156040    2.228718
     32          1           0       -3.940642    0.027830    2.436018
     33          1           0       -5.386962    1.019190    0.689738
     34          1           0       -4.361472    2.168220   -1.246962
     35          1           0       -1.906472    2.289450   -1.454362
 ---------------------------------------------------------------------

 SCF Done:  E(RwB97XD) =  -3323.50196472     A.U. after    1 cycles

 The electronic state is 1-A.
 Alpha  occ. eigenvalues -- -483.13574 -62.68412 -56.47532 -56.47178 -56.47158
 Alpha  occ. eigenvalues --  -19.22099 -14.48047 -10.38818 -10.36898 -10.31864
 Alpha  occ. eigenvalues --  -10.30198 -10.30106 -10.29584 -10.29414 -10.29360
 Alpha  occ. eigenvalues --  -10.29297 -10.29223 -10.28658 -10.28552 -10.28521
 Alpha  occ. eigenvalues --  -10.28445 -10.28385 -10.28199  -8.82517  -6.64677
 Alpha  occ. eigenvalues --   -6.63552  -6.63484  -2.75064  -2.74750  -2.74696
 Alpha  occ. eigenvalues --   -2.73787  -2.73786  -1.13017  -1.03549  -0.97094
 Alpha  occ. eigenvalues --   -0.96676  -0.93386  -0.88003  -0.86586  -0.85543
 Alpha  occ. eigenvalues --   -0.84650  -0.81909  -0.79008  -0.74839  -0.71764
 Alpha  occ. eigenvalues --   -0.70908  -0.69608  -0.68411  -0.64095  -0.63322
 Alpha  occ. eigenvalues --   -0.61219  -0.58716  -0.57196  -0.56882  -0.55954
 Alpha  occ. eigenvalues --   -0.55483  -0.54319  -0.53464  -0.52745  -0.52169
 Alpha  occ. eigenvalues --   -0.51398  -0.50529  -0.50218  -0.48468  -0.47943
 Alpha  occ. eigenvalues --   -0.47286  -0.46587  -0.45711  -0.44526  -0.44485
 Alpha  occ. eigenvalues --   -0.43044  -0.42452  -0.42195  -0.38241  -0.37165
 Alpha  occ. eigenvalues --   -0.34702  -0.34266  -0.34125  -0.33440  -0.32060
 Alpha  occ. eigenvalues --   -0.28087
 Alpha virt. eigenvalues --    0.01764   0.04374   0.04801   0.05230   0.05531
 Alpha virt. eigenvalues --    0.06501   0.10322   0.12750   0.13140   0.14136
 Alpha virt. eigenvalues --    0.14460   0.15079   0.15721   0.16633   0.17063

 Mulliken charges:
               1
     1  C   -0.275894
     2  C    0.276924
     3  O   -0.465902
     4  C   -0.000884
     5  C   -0.355159
     6  H    0.173731
     7  H    0.168458
     8  H    0.167819
     9  N   -0.353917
    10  H    0.288613
    11  H    0.279952
    12  H    0.213278
    13  Br  -0.084287
    14  C    0.263619
    15  C   -0.242452
    16  C   -0.181910
    17  C   -0.156703
    18  C   -0.135484
    19  C   -0.267689
    20  H    0.151502
    21  H    0.136886
    22  H    0.139799
    23  H    0.137999
    24  H    0.137080
    25  C    0.218666
    26  C   -0.333047
    27  C   -0.131737
    28  C   -0.151994
    29  C   -0.127264
    30  C   -0.261459
    31  H    0.197193
    32  H    0.143355
    33  H    0.145667
    34  H    0.144618
    35  H    0.140622
 Sum of Mulliken charges =  -0.00000

 Dipole moment (field-independent basis, Debye):
    X=             -2.3785    Y=             -9.2531    Z=              2.9225  Tot=              9.9909
 Quadrupole moment (field-independent basis, Debye-Ang):
   XX=           -113.5157   YY=           -123.1019   ZZ=           -117.6332
   XY=             -4.5021   XZ=             -1.8471   YZ=            -17.5638

  Exact polarizability: 372.274  16.364 301.883   7.863 -42.631 257.627
 Approx polarizability: 281.476  12.308 254.021   6.976 -34.693 220.941

 ******    1 imaginary frequencies (negative Signs) ******

                      1                      2                      3
                      A                      A                      A
 Frequencies --   -346.7527                22.2920                38.3934
 Red. masses --      6.2158                 4.8722                 4.5141
 Frc consts  --      0.4403                 0.0014                 0.0039
 IR Inten    --    712.8875                 1.7706                 1.6375

                      4                      5                      6
                      A                      A                      A
 Frequencies --     58.6758                60.9384                76.5987
 Red. masses --      4.9374                 5.7494                 7.2729
 Frc consts  --      0.0100                 0.0126                 0.0251
 IR Inten    --      2.1957                 4.3404                 0.6353

                      7                      8                      9
                      A                      A                      A
 Frequencies --     94.7606               129.0658               134.1646
 Red. masses --      3.3696                 4.6346                 6.0034
 Frc consts  --      0.0178                 0.0455                 0.0637
 IR Inten    --      0.9316                12.7541                 2.4931

                     10                     11                     12
                      A                      A                      A
 Frequencies --    173.3281               185.1098               197.1921
 Red. masses --      2.8514                 4.4701                 5.0135
 Frc consts  --      0.0505                 0.0902                 0.1149
 IR Inten    --      5.1745                 2.2982                 2.4533

                     13                     14                     15
                      A                      A                      A
 Frequencies --    215.7242               247.8917               258.6381
 Red. masses --      4.6081                 3.9373                 2.3070
 Frc consts  --      0.1263                 0.1426                 0.0909
 IR Inten    --     14.4837                14.3802                 9.5092

                     16                     17                     18
                      A                      A                      A
 Frequencies --    281.3950               296.9227               340.3607
 Red. masses --      1.6438                 4.5115                 3.7110
 Frc consts  --      0.0767                 0.2343                 0.2533
 IR Inten    --      9.1126                 9.7296                22.4012

                     19                     20                     21
                      A                      A                      A
 Frequencies --    372.3588               419.5121               420.9856
 Red. masses --      5.8094                 2.9395                 2.8795
 Frc consts  --      0.4746                 0.3048                 0.3007
 IR Inten    --     18.7832                 0.9332                 1.3010

                     22                     23                     24
                      A                      A                      A
 Frequencies --    465.4266               535.6520               547.3079
 Red. masses --      4.0330                 2.9160                 3.4270
 Frc consts  --      0.5147                 0.4929                 0.6048
 IR Inten    --     25.3674                 7.5619                32.4867

                     25                     26                     27
                      A                      A                      A
 Frequencies --    578.9943               611.2142               635.8638
 Red. masses --      3.7945                 2.5538                 6.3786
 Frc consts  --      0.7495                 0.5621                 1.5195
 IR Inten    --     21.7663                54.2988                 1.4252

                     28                     29                     30
                      A                      A                      A
 Frequencies --    639.6997               682.7012               711.1616
 Red. masses --      6.2809                 5.5704                 3.8026
 Frc consts  --      1.5144                 1.5297                 1.1331
 IR Inten    --      1.7483                74.1611                19.2794

                     31                     32                     33
                      A                      A                      A
 Frequencies --    721.6866               732.0421               749.9345
 Red. masses --      1.6330                 1.5789                 2.9588
 Frc consts  --      0.5011                 0.4985                 0.9804
 IR Inten    --     76.9877               117.2316                28.8659

                     34                     35                     36
                      A                      A                      A
 Frequencies --    793.5367               803.5387               823.9945
 Red. masses --      2.5237                 6.0879                 3.3753
 Frc consts  --      0.9363                 2.3160                 1.3502
 IR Inten    --     87.9221                80.8704                48.2747

                     37                     38                     39
                      A                      A                      A
 Frequencies --    866.9022               875.9072               884.4650
 Red. masses --      1.3485                 3.1851                 1.2947
 Frc consts  --      0.5971                 1.4398                 0.5967
 IR Inten    --      0.5128                15.6761                 3.4452

                     40                     41                     42
                      A                      A                      A
 Frequencies --    946.1427               964.6233              1003.5831
 Red. masses --      1.4980                 1.4743                 1.2696
 Frc consts  --      0.7901                 0.8082                 0.7534
 IR Inten    --      9.3710                15.6024                34.6585

                     43                     44                     45
                      A                      A                      A
 Frequencies --   1005.5189              1014.4133              1019.5347
 Red. masses --      1.2355                 1.3140                 1.3020
 Frc consts  --      0.7360                 0.7967                 0.7974
 IR Inten    --     46.9678                37.3878                 0.3679

                     46                     47                     48
                      A                      A                      A
 Frequencies --   1021.4930              1024.6616              1028.0893
 Red. masses --      1.4292                 5.7536                 2.5191
 Frc consts  --      0.8787                 3.5592                 1.5688
 IR Inten    --     18.8707                 0.4579                 2.2529

                     49                     50                     51
                      A                      A                      A
 Frequencies --   1033.9761              1055.8047              1062.6680
 Red. masses --      1.3978                 2.7883                 2.1651
 Frc consts  --      0.8805                 1.8313                 1.4405
 IR Inten    --      1.1498                16.5398                17.0849

                     52                     53                     54
                      A                      A                      A
 Frequencies --   1068.8851              1100.0334              1105.1920
 Red. masses --      1.7155                 1.9440                 2.0508
 Frc consts  --      1.1548                 1.3860                 1.4759
 IR Inten    --     79.1406                 6.5478                19.3808

                     55                     56                     57
                      A                      A                      A
 Frequencies --   1114.5631              1116.4721              1181.7921
 Red. masses --      1.5940                 1.5660                 1.1236
 Frc consts  --      1.1667                 1.1501                 0.9246
 IR Inten    --     18.6477                20.8906                 1.4424

                     58                     59                     60
                      A                      A                      A
 Frequencies --   1184.0479              1190.4748              1208.3491
 Red. masses --      1.1376                 1.4032                 1.1223
 Frc consts  --      0.9397                 1.1717                 0.9655
 IR Inten    --      0.1851                12.9455                 1.6615

                     61                     62                     63
                      A                      A                      A
 Frequencies --   1212.4083              1241.7088              1272.8089
 Red. masses --      1.1264                 3.5705                 1.5125
 Frc consts  --      0.9756                 3.2435                 1.4437
 IR Inten    --      0.3310                23.8396                54.1788

                     64                     65                     66
                      A                      A                      A
 Frequencies --   1311.5982              1320.8883              1334.3315
 Red. masses --      4.2330                 4.3667                 1.3222
 Frc consts  --      4.2904                 4.4889                 1.3869
 IR Inten    --     92.9939                 0.3904                 9.0635

                     67                     68                     69
                      A                      A                      A
 Frequencies --   1354.9229              1359.9300              1395.7192
 Red. masses --      1.7275                 1.4579                 3.0028
 Frc consts  --      1.8685                 1.5886                 3.4465
 IR Inten    --    126.3990                 1.0736               551.0498

                     70                     71                     72
                      A                      A                      A
 Frequencies --   1426.6092              1461.0696              1488.4025
 Red. masses --      2.9347                 1.3188                 2.2094
 Frc consts  --      3.5191                 1.6588                 2.8839
 IR Inten    --    537.0842                58.2341                13.9674

                     73                     74                     75
                      A                      A                      A
 Frequencies --   1493.6423              1505.9836              1509.5067
 Red. masses --      2.4596                 1.0449                 1.0482
 Frc consts  --      3.2330                 1.3963                 1.4072
 IR Inten    --     39.0339                13.4485                30.8129

                     76                     77                     78
                      A                      A                      A
 Frequencies --   1541.4507              1542.3043              1643.4771
 Red. masses --      2.3044                 2.3086                 6.0136
 Frc consts  --      3.2260                 3.2355                 9.5700
 IR Inten    --     89.2367                 4.7670                66.8742

                     79                     80                     81
                      A                      A                      A
 Frequencies --   1647.0108              1652.8892              1653.9372
 Red. masses --      7.1332                 6.7714                 1.1070
 Frc consts  --     11.4007                10.8998                 1.7841
 IR Inten    --    281.9038               311.1133                24.8398

                     82                     83                     84
                      A                      A                      A
 Frequencies --   1672.5929              1675.5443              3039.6887
 Red. masses --      6.2938                 5.8763                 1.0432
 Frc consts  --     10.3740                 9.7200                 5.6791
 IR Inten    --    158.1960                 0.7925                24.0374

                     85                     86                     87
                      A                      A                      A
 Frequencies --   3120.1166              3169.7745              3191.1256
 Red. masses --      1.0949                 1.1033                 1.0858
 Frc consts  --      6.2801                 6.5316                 6.5149
 IR Inten    --     18.8422                18.8586                 2.4974

                     88                     89                     90
                      A                      A                      A
 Frequencies --   3194.6162              3199.4707              3200.7391
 Red. masses --      1.0861                 1.0900                 1.0879
 Frc consts  --      6.5307                 6.5738                 6.5665
 IR Inten    --      1.6887                17.1259                 0.2513

                     91                     92                     93
                      A                      A                      A
 Frequencies --   3208.8816              3214.4090              3216.2520
 Red. masses --      1.0918                 1.0948                 1.0943
 Frc consts  --      6.6240                 6.6650                 6.6694
 IR Inten    --     15.2448                37.2839                33.6480

                     94                     95                     96
                      A                      A                      A
 Frequencies --   3224.3761              3228.2656              3230.4483
 Red. masses --      1.0985                 1.0921                 1.0946
 Frc consts  --      6.7288                 6.7055                 6.7301
 IR Inten    --     14.4629                22.7327                 2.0396

                     97                     98                     99
                      A                      A                      A
 Frequencies --   3235.3749              3534.6990              3619.1855
 Red. masses --      1.0912                 1.0508                 1.0965
 Frc consts  --      6.7301                 7.7349                 8.4621
 IR Inten    --      3.3989                49.3023                64.9547

 - Thermochemistry -
 -------------------
 Temperature   298.150 Kelvin.  Pressure   1.00000 Atm.
 Atom     1 has atomic number  6 and mass  12.00000

 Molecular mass:   317.04153 amu.
 Principal axes and moments of inertia in atomic units:
                           1         2         3
     Eigenvalues --  3707.016438668.817369564.09036
           X            0.99971  -0.02176  -0.01025
           Y            0.01922   0.97894  -0.20325
           Z            0.01446   0.20300   0.97907
 This molecule is an asymmetric top.
 Rotational symmetry number  1.
 Warning -- assumption of classical behavior for rotation
           may cause significant error
 Rotational temperatures (Kelvin)      0.02336     0.00999     0.00906
 Rotational constants (GHZ):           0.48684     0.20819     0.18870
    1 imaginary frequencies ignored.
 Zero-point vibrational energy     745756.9 (Joules/Mol)
                                  178.24017 (Kcal/Mol)
 Warning -- explicit consideration of  25 degrees of freedom as
           vibrations may cause significant error
 Vibrational temperatures:     32.07    55.24    84.42    87.68   110.21
          (Kelvin)            136.34   185.70   193.03   249.38   266.33
                              283.72   310.38   356.66   372.12   404.86
                              427.21   489.70   535.74   603.58   605.70
                              669.65   770.68   787.45   833.04   879.40
                              914.87   920.39   982.25  1023.20  1038.35
                             1053.25  1078.99  1141.72  1156.11  1185.54
                             1247.28  1260.24  1272.55  1361.29  1387.88
                             1443.93  1446.72  1459.51  1466.88  1469.70
                             1474.26  1479.19  1487.66  1519.07  1528.94
                             1537.89  1582.70  1590.12  1603.61  1606.35
                             1700.34  1703.58  1712.83  1738.54  1744.39
                             1786.54  1831.29  1887.10  1900.46  1919.81
                             1949.43  1956.64  2008.13  2052.57  2102.15
                             2141.48  2149.02  2166.77  2171.84  2217.80
                             2219.03  2364.60  2369.68  2378.14  2379.65
                             2406.49  2410.73  4373.43  4489.15  4560.60
                             4591.32  4596.34  4603.32  4605.15  4616.86
                             4624.82  4627.47  4639.16  4644.75  4647.89
                             4654.98  5085.64  5207.20

 Zero-point correction=                           0.284044 (Hartree/Particle)
 Thermal correction to Energy=                    0.301497
 Thermal correction to Enthalpy=                  0.302441
 Thermal correction to Gibbs Free Energy=         0.236606
 Sum of electronic and zero-point Energies=          -3323.217921
 Sum of electronic and thermal Energies=             -3323.200467
 Sum of electronic and thermal Enthalpies=           -3323.199523
 Sum of electronic and thermal Free Energies=        -3323.265359

                     E (Thermal)             CV                S
                      KCal/Mol        Cal/Mol-Kelvin    Cal/Mol-Kelvin
 Total                  189.192             65.791            138.562
 Electronic               0.000              0.000              0.000
 Translational            0.889              2.981             43.157
 Rotational               0.889              2.981             34.085
 Vibrational            187.415             59.829             61.320
 Vibration     1          0.593              1.985              6.419
 Vibration     2          0.594              1.982              5.340
 Vibration     3          0.596              1.974              4.501
 Vibration     4          0.597              1.973              4.427
 Vibration     5          0.599              1.965              3.976
 Vibration     6          0.603              1.953              3.559
 Vibration     7          0.612              1.924              2.960
 Vibration     8          0.613              1.919              2.885
 Vibration     9          0.627              1.875              2.399
 Vibration    10          0.631              1.860              2.276
 Vibration    11          0.637              1.844              2.159
 Vibration    12          0.645              1.817              1.995
 Vibration    13          0.662              1.766              1.746
 Vibration    14          0.667              1.748              1.671
 Vibration    15          0.681              1.708              1.525
 Vibration    16          0.691              1.679              1.434
 Vibration    17          0.720              1.595              1.210
 Vibration    18          0.744              1.529              1.070
 Vibration    19          0.782              1.428              0.894
 Vibration    20          0.783              1.425              0.889
 Vibration    21          0.823              1.327              0.750
 Vibration    22          0.891              1.171              0.575
 Vibration    23          0.903              1.146              0.550
 Vibration    24          0.936              1.077              0.487
 Vibration    25          0.970              1.008              0.431

 Optimization completed.
    -- Stationary point found.
 Normal termination of Gaussian 16 at Tue Mar  2 12:38:45 2021.
