 Gaussian 16, Revision A.03,
 Gaussian 16:  ES64L-G16RevA.03 25-Dec-2016

 ----------------------------------------------------------------------
 # wB97XD def2tzvp, opt=(ts, noeigen, calcfc, maxcycles=70, maxstep=5),
  freq=noraman, scrf=(iefpcm, solvent=water)
 ----------------------------------------------------------------------

 ------------------------
 2_iteration/TS-367-2.out
 ------------------------
 Symbolic Z-matrix:
 Charge =  0 Multiplicity = 1

 SCF Done:  E(RwB97XD) =  -1264.87751767     A.U. after   15 cycles
 SCF Done:  E(RwB97XD) =  -1264.87751767     A.U. after    6 cycles
 Optimization completed.
    -- Stationary point found.
 Normal termination of Gaussian 16 at Tue Mar  2 16:45:46 2021.

 ---------------------------------------------------------------------
 #N Geom=AllCheck Guess=TCheck SCRF=Check GenChk RwB97XD/def2TZVP Freq
 ---------------------------------------------------------------------

 Structure from the checkpoint file:  "/beegfs/scratch/user/q/tla25/Gau-13084.chk"
 ------------------------
 2_iteration/TS-367-2.out
 ------------------------
 Charge =  0 Multiplicity = 1

                         Standard orientation:
 ---------------------------------------------------------------------
 Center     Atomic      Atomic             Coordinates (Angstroms)
 Number     Number       Type             X           Y           Z
 ---------------------------------------------------------------------
      1          6           0       -1.048033    0.239831   -0.289934
      2          6           0        0.173194   -0.551806   -0.128303
      3          8           0        0.150094   -1.744696    0.166091
      4          6           0       -1.117905    1.615892   -0.389229
      5          6           0       -0.962498    1.767438    2.449595
      6          1           0       -0.328710    2.007638    3.302241
      7          1           0       -1.997207    1.984813    2.702768
      8          1           0       -0.868823    0.702640    2.223088
      9          7           0       -0.576525    2.523132    1.265918
     10          1           0       -0.961255    3.460242    1.257028
     11          1           0        0.430715    2.601634    1.192417
     12          1           0       -2.106800    2.045858   -0.445147
     13         17           0       -0.061146    2.599823   -1.455319
     14          6           0       -2.349247   -0.475464   -0.197627
     15          6           0       -2.567232   -1.645979   -0.933406
     16          6           0       -3.787680   -2.298692   -0.902610
     17          6           0       -4.837423   -1.797749   -0.142301
     18          6           0       -4.643408   -0.636283    0.587146
     19          6           0       -3.414036    0.008893    0.564435
     20          1           0       -1.766000   -2.043853   -1.540928
     21          1           0       -3.924075   -3.201513   -1.485745
     22          1           0       -5.792497   -2.307191   -0.121297
     23          1           0       -5.447043   -0.230402    1.189408
     24          1           0       -3.289117    0.903885    1.160072
     25          7           0        1.372880    0.117660   -0.260166
     26          6           0        2.668039   -0.381267   -0.079100
     27          6           0        2.968369   -1.505708    0.690391
     28          6           0        4.289234   -1.901811    0.845567
     29          6           0        5.325960   -1.196769    0.253572
     30          6           0        5.027501   -0.072853   -0.504897
     31          6           0        3.714751    0.330264   -0.671984
     32          1           0        1.334981    1.017338   -0.709814
     33          1           0        2.171813   -2.062241    1.156206
     34          1           0        4.505377   -2.777513    1.445337
     35          1           0        6.352001   -1.515995    0.382001
     36          1           0        5.820949    0.494758   -0.974832
     37          1           0        3.492415    1.207318   -1.269250
 ---------------------------------------------------------------------

 SCF Done:  E(RwB97XD) =  -1264.87751767     A.U. after    1 cycles

 The electronic state is 1-A.
 Alpha  occ. eigenvalues -- -101.70797 -19.20782 -14.48794 -14.46162 -10.39322
 Alpha  occ. eigenvalues --  -10.38991 -10.33722 -10.31849 -10.30093 -10.29044
 Alpha  occ. eigenvalues --  -10.28904 -10.28853 -10.28538 -10.28441 -10.28332
 Alpha  occ. eigenvalues --  -10.28305 -10.28300 -10.28201 -10.28044 -10.27794
 Alpha  occ. eigenvalues --   -9.59396  -7.34008  -7.33189  -7.33162  -1.13911
 Alpha  occ. eigenvalues --   -1.04562  -1.03805  -0.97744  -0.95983  -0.95323
 Alpha  occ. eigenvalues --   -0.89254  -0.85162  -0.84932  -0.84505  -0.81865
 Alpha  occ. eigenvalues --   -0.79187  -0.74887  -0.72175  -0.70964  -0.69494
 Alpha  occ. eigenvalues --   -0.67897  -0.65424  -0.63775  -0.62740  -0.60733
 Alpha  occ. eigenvalues --   -0.58574  -0.57841  -0.57608  -0.55494  -0.55032
 Alpha  occ. eigenvalues --   -0.54075  -0.53047  -0.52786  -0.52241  -0.51661
 Alpha  occ. eigenvalues --   -0.50959  -0.50315  -0.49897  -0.48724  -0.47846
 Alpha  occ. eigenvalues --   -0.46982  -0.46141  -0.45968  -0.44736  -0.43079
 Alpha  occ. eigenvalues --   -0.42747  -0.42179  -0.40665  -0.39543  -0.39036
 Alpha  occ. eigenvalues --   -0.34983  -0.34483  -0.33609  -0.32885  -0.30344
 Alpha  occ. eigenvalues --   -0.26919
 Alpha virt. eigenvalues --    0.03310   0.05340   0.05421   0.05723   0.06476
 Alpha virt. eigenvalues --    0.08707   0.10339   0.12872   0.13263   0.14178
 Alpha virt. eigenvalues --    0.14600   0.15659   0.16031   0.16885   0.17271

 Mulliken charges:
               1
     1  C   -0.191926
     2  C    0.326895
     3  O   -0.507854
     4  C   -0.089472
     5  C   -0.304205
     6  H    0.163282
     7  H    0.160393
     8  H    0.158021
     9  N   -0.322373
    10  H    0.293901
    11  H    0.282399
    12  H    0.212326
    13  Cl  -0.121359
    14  C    0.279385
    15  C   -0.259360
    16  C   -0.137650
    17  C   -0.163215
    18  C   -0.177461
    19  C   -0.268607
    20  H    0.132878
    21  H    0.136812
    22  H    0.138807
    23  H    0.136581
    24  H    0.149406
    25  N   -0.252450
    26  C    0.282460
    27  C   -0.294468
    28  C   -0.103466
    29  C   -0.193268
    30  C   -0.102889
    31  C   -0.295783
    32  H    0.211762
    33  H    0.152725
    34  H    0.141440
    35  H    0.140742
    36  H    0.143062
    37  H    0.142530
 Sum of Mulliken charges =  -0.00000

 Dipole moment (field-independent basis, Debye):
    X=             -0.5546    Y=              9.7409    Z=              3.6386  Tot=             10.4131
 Quadrupole moment (field-independent basis, Debye-Ang):
   XX=           -117.2121   YY=           -112.4601   ZZ=           -120.2666
   XY=             -3.3845   XZ=             -5.8191   YZ=             10.4476

  Exact polarizability: 385.231  14.531 324.851 -16.190  -2.119 239.907
 Approx polarizability: 285.265   9.255 268.566 -13.858  -4.188 206.903

 ******    1 imaginary frequencies (negative Signs) ******

                      1                      2                      3
                      A                      A                      A
 Frequencies --   -370.4569                17.4604                30.7836
 Red. masses --      6.0367                 3.9410                 4.3859
 Frc consts  --      0.4881                 0.0007                 0.0024
 IR Inten    --    723.6464                 0.3082                 2.0519

                      4                      5                      6
                      A                      A                      A
 Frequencies --     50.1513                54.0101                64.7228
 Red. masses --      4.5048                 2.7532                 4.4286
 Frc consts  --      0.0067                 0.0047                 0.0109
 IR Inten    --      1.4071                 6.8762                 2.5432

                      7                      8                      9
                      A                      A                      A
 Frequencies --     76.8520                98.1942               106.8556
 Red. masses --      5.9687                 3.9121                 5.7338
 Frc consts  --      0.0208                 0.0222                 0.0386
 IR Inten    --      3.2185                22.5493                 2.2435

                     10                     11                     12
                      A                      A                      A
 Frequencies --    133.1591               180.2315               193.8350
 Red. masses --      4.3396                 3.1435                 3.9329
 Frc consts  --      0.0453                 0.0602                 0.0871
 IR Inten    --      9.1633                 2.2159                12.8936

                     13                     14                     15
                      A                      A                      A
 Frequencies --    211.8620               235.6860               245.5177
 Red. masses --      1.4797                 5.5977                 4.6116
 Frc consts  --      0.0391                 0.1832                 0.1638
 IR Inten    --      1.7198                 0.4356                11.9037

                     16                     17                     18
                      A                      A                      A
 Frequencies --    257.9016               313.5040               329.1967
 Red. masses --      4.9917                 5.1020                 6.5284
 Frc consts  --      0.1956                 0.2954                 0.4168
 IR Inten    --      3.4097                18.7475                24.1740

                     19                     20                     21
                      A                      A                      A
 Frequencies --    353.1134               371.0984               423.2254
 Red. masses --      3.9875                 6.6539                 2.9632
 Frc consts  --      0.2929                 0.5399                 0.3127
 IR Inten    --     35.2019                 7.3724                 0.5660

                     22                     23                     24
                      A                      A                      A
 Frequencies --    425.5371               477.2934               524.8077
 Red. masses --      2.9250                 4.1190                 2.9515
 Frc consts  --      0.3121                 0.5529                 0.4790
 IR Inten    --      2.0386                10.3401                26.1901

                     25                     26                     27
                      A                      A                      A
 Frequencies --    534.6684               560.6633               580.2844
 Red. masses --      3.3166                 4.1621                 1.3161
 Frc consts  --      0.5586                 0.7709                 0.2611
 IR Inten    --     30.9564                40.2384                52.4402

                     28                     29                     30
                      A                      A                      A
 Frequencies --    608.5444               636.5802               638.8162
 Red. masses --      2.4019                 5.7323                 6.2166
 Frc consts  --      0.5241                 1.3686                 1.4947
 IR Inten    --     60.5516                 7.8097                 4.2709

                     31                     32                     33
                      A                      A                      A
 Frequencies --    650.8162               707.8115               719.1595
 Red. masses --      5.2536                 2.6053                 1.8423
 Frc consts  --      1.3111                 0.7690                 0.5614
 IR Inten    --     65.3371                28.4792                64.0015

                     34                     35                     36
                      A                      A                      A
 Frequencies --    726.2481               745.1409               783.8618
 Red. masses --      1.5620                 4.6735                 1.8380
 Frc consts  --      0.4854                 1.5289                 0.6654
 IR Inten    --     91.2058               164.5017                80.5100

                     37                     38                     39
                      A                      A                      A
 Frequencies --    798.4127               802.6861               834.0814
 Red. masses --      5.9042                 2.9798                 5.4885
 Frc consts  --      2.2175                 1.1312                 2.2497
 IR Inten    --     63.1014                73.3924                13.4438

                     40                     41                     42
                      A                      A                      A
 Frequencies --    860.7064               870.8906               908.8355
 Red. masses --      1.2614                 1.2488                 4.7215
 Frc consts  --      0.5506                 0.5580                 2.2978
 IR Inten    --      1.6777                 1.9395                33.8317

                     43                     44                     45
                      A                      A                      A
 Frequencies --    936.4182               945.1275              1001.7187
 Red. masses --      1.5874                 1.4769                 1.3563
 Frc consts  --      0.8201                 0.7773                 0.8019
 IR Inten    --      7.8859                 7.5627                 0.0628

                     46                     47                     48
                      A                      A                      A
 Frequencies --   1004.9626              1007.0316              1011.5644
 Red. masses --      1.5582                 1.8884                 1.3312
 Frc consts  --      0.9272                 1.1283                 0.8026
 IR Inten    --      2.5002                 3.7872                31.2049

                     49                     50                     51
                      A                      A                      A
 Frequencies --   1018.2350              1018.6273              1021.7873
 Red. masses --      1.2927                 1.2988                 5.4055
 Frc consts  --      0.7896                 0.7940                 3.3251
 IR Inten    --      0.5508                 1.0848                 5.3385

                     52                     53                     54
                      A                      A                      A
 Frequencies --   1023.8134              1038.4015              1062.7603
 Red. masses --      5.7506                 1.2492                 2.1459
 Frc consts  --      3.5514                 0.7936                 1.4280
 IR Inten    --      1.2250                85.1439                20.4121

                     55                     56                     57
                      A                      A                      A
 Frequencies --   1067.9031              1079.7986              1105.9564
 Red. masses --      1.9813                 2.9471                 1.4207
 Frc consts  --      1.3313                 2.0246                 1.0239
 IR Inten    --      6.0031                61.7310                10.9405

                     58                     59                     60
                      A                      A                      A
 Frequencies --   1120.7906              1121.3062              1181.7114
 Red. masses --      1.4723                 1.4773                 1.1214
 Frc consts  --      1.0897                 1.0944                 0.9227
 IR Inten    --     17.3592                23.7283                 0.8103

                     61                     62                     63
                      A                      A                      A
 Frequencies --   1182.3948              1205.3814              1209.0925
 Red. masses --      1.1284                 1.6348                 1.1943
 Frc consts  --      0.9295                 1.3994                 1.0287
 IR Inten    --      4.5718               120.9988                15.5088

                     64                     65                     66
                      A                      A                      A
 Frequencies --   1214.7375              1217.7084              1268.1621
 Red. masses --      1.6158                 1.3552                 2.1534
 Frc consts  --      1.4047                 1.1839                 2.0404
 IR Inten    --     59.1673                18.2035               413.1094

                     67                     68                     69
                      A                      A                      A
 Frequencies --   1287.0699              1308.8566              1338.3283
 Red. masses --      2.1659                 3.8816                 1.3732
 Frc consts  --      2.1139                 3.9179                 1.4491
 IR Inten    --     14.8969                55.7655                26.1497

                     70                     71                     72
                      A                      A                      A
 Frequencies --   1342.9598              1355.2744              1363.4179
 Red. masses --      3.2198                 2.1505                 1.5625
 Frc consts  --      3.4214                 2.3272                 1.7113
 IR Inten    --    206.4110               187.3497                 9.4142

                     73                     74                     75
                      A                      A                      A
 Frequencies --   1375.8372              1438.2483              1464.5433
 Red. masses --      1.8201                 2.0710                 1.5163
 Frc consts  --      2.0299                 2.5240                 1.9162
 IR Inten    --    247.0473               374.8406               106.6914

                     76                     77                     78
                      A                      A                      A
 Frequencies --   1481.4145              1495.0081              1499.2901
 Red. masses --      2.1493                 2.5289                 1.0495
 Frc consts  --      2.7790                 3.3301                 1.3900
 IR Inten    --    232.8150                60.3137                31.6009

                     79                     80                     81
                      A                      A                      A
 Frequencies --   1501.7783              1542.7363              1546.9977
 Red. masses --      1.0400                 2.2942                 2.4161
 Frc consts  --      1.3820                 3.2171                 3.4067
 IR Inten    --     10.2345               200.1407               163.8297

                     82                     83                     84
                      A                      A                      A
 Frequencies --   1574.9650              1642.5282              1643.2698
 Red. masses --      2.0023                 2.2036                 1.5619
 Frc consts  --      2.9263                 3.5028                 2.4850
 IR Inten    --    612.3279                38.1880                37.4208

                     85                     86                     87
                      A                      A                      A
 Frequencies --   1661.4884              1667.3536              1673.4856
 Red. masses --      6.3286                 5.2157                 4.8616
 Frc consts  --     10.2933                 8.5431                 8.0219
 IR Inten    --    147.9103                88.8884                70.0860

                     88                     89                     90
                      A                      A                      A
 Frequencies --   1690.3690              3057.0609              3133.9715
 Red. masses --      6.0551                 1.0374                 1.1003
 Frc consts  --     10.1938                 5.7124                 6.3673
 IR Inten    --    673.5493                26.8298                11.2199

                     91                     92                     93
                      A                      A                      A
 Frequencies --   3171.0221              3185.7721              3189.3995
 Red. masses --      1.1051                 1.0885                 1.0856
 Frc consts  --      6.5470                 6.5090                 6.5062
 IR Inten    --     15.9761                13.6476                 4.6394

                     94                     95                     96
                      A                      A                      A
 Frequencies --   3196.4367              3196.7416              3206.4054
 Red. masses --      1.0881                 1.0892                 1.0930
 Frc consts  --      6.5503                 6.5582                 6.6207
 IR Inten    --      2.4777                12.1917                29.1923

                     97                     98                     99
                      A                      A                      A
 Frequencies --   3211.6153              3219.6722              3221.3696
 Red. masses --      1.0926                 1.0936                 1.0979
 Frc consts  --      6.6398                 6.6792                 6.7129
 IR Inten    --     38.8726                34.3233                23.1301

                    100                    101                    102
                      A                      A                      A
 Frequencies --   3224.5329              3234.3031              3270.3687
 Red. masses --      1.0958                 1.0915                 1.0923
 Frc consts  --      6.7131                 6.7272                 6.8828
 IR Inten    --      5.0946                 1.3979                 1.5499

                    103                    104                    105
                      A                      A                      A
 Frequencies --   3532.6357              3615.0665              3619.7512
 Red. masses --      1.0507                 1.0964                 1.0767
 Frc consts  --      7.7257                 8.4424                 8.3122
 IR Inten    --     58.4600                55.5431               197.2453

 - Thermochemistry -
 -------------------
 Temperature   298.150 Kelvin.  Pressure   1.00000 Atm.
 Atom     1 has atomic number  6 and mass  12.00000

 Molecular mass:   288.10294 amu.
 Principal axes and moments of inertia in atomic units:
                           1         2         3
     Eigenvalues --  3628.052059898.21313**********
           X            0.99999  -0.00085  -0.00402
           Y            0.00104   0.99889   0.04707
           Z            0.00398  -0.04708   0.99888
 This molecule is an asymmetric top.
 Rotational symmetry number  1.
 Warning -- assumption of classical behavior for rotation
           may cause significant error
 Rotational temperatures (Kelvin)      0.02387     0.00875     0.00744
 Rotational constants (GHZ):           0.49744     0.18233     0.15509
    1 imaginary frequencies ignored.
 Zero-point vibrational energy     793064.0 (Joules/Mol)
                                  189.54684 (Kcal/Mol)
 Warning -- explicit consideration of  27 degrees of freedom as
           vibrations may cause significant error
 Vibrational temperatures:     25.12    44.29    72.16    77.71    93.12
          (Kelvin)            110.57   141.28   153.74   191.59   259.31
                              278.89   304.82   339.10   353.25   371.06
                              451.06   473.64   508.05   533.93   608.93
                              612.25   686.72   755.08   769.27   806.67
                              834.90   875.56   915.90   919.11   936.38
                             1018.38  1034.71  1044.91  1072.09  1127.80
                             1148.74  1154.89  1200.06  1238.36  1253.02
                             1307.61  1347.30  1359.83  1441.25  1445.92
                             1448.89  1455.42  1465.01  1465.58  1470.12
                             1473.04  1494.03  1529.07  1536.47  1553.59
                             1591.22  1612.57  1613.31  1700.22  1701.20
                             1734.27  1739.61  1747.74  1752.01  1824.60
                             1851.81  1883.15  1925.56  1932.22  1949.94
                             1961.65  1979.52  2069.32  2107.15  2131.43
                             2150.98  2157.14  2160.72  2219.65  2225.78
                             2266.02  2363.23  2364.30  2390.51  2398.95
                             2407.77  2432.06  4398.43  4509.09  4562.39
                             4583.62  4588.83  4598.96  4599.40  4613.30
                             4620.80  4632.39  4634.83  4639.38  4653.44
                             4705.33  5082.67  5201.27  5208.01

 Zero-point correction=                           0.302062 (Hartree/Particle)
 Thermal correction to Energy=                    0.320558
 Thermal correction to Enthalpy=                  0.321502
 Thermal correction to Gibbs Free Energy=         0.252757
 Sum of electronic and zero-point Energies=          -1264.575456
 Sum of electronic and thermal Energies=             -1264.556960
 Sum of electronic and thermal Enthalpies=           -1264.556016
 Sum of electronic and thermal Free Energies=        -1264.624761

                     E (Thermal)             CV                S
                      KCal/Mol        Cal/Mol-Kelvin    Cal/Mol-Kelvin
 Total                  201.153             69.751            144.686
 Electronic               0.000              0.000              0.000
 Translational            0.889              2.981             42.872
 Rotational               0.889              2.981             34.390
 Vibrational            199.376             63.789             67.423
 Vibration     1          0.593              1.986              6.904
 Vibration     2          0.594              1.984              5.778
 Vibration     3          0.595              1.978              4.811
 Vibration     4          0.596              1.976              4.665
 Vibration     5          0.597              1.971              4.308
 Vibration     6          0.599              1.965              3.970
 Vibration     7          0.604              1.950              3.490
 Vibration     8          0.606              1.944              3.325
 Vibration     9          0.613              1.920              2.900
 Vibration    10          0.629              1.867              2.326
 Vibration    11          0.635              1.848              2.191
 Vibration    12          0.643              1.823              2.028
 Vibration    13          0.655              1.786              1.835
 Vibration    14          0.660              1.770              1.763
 Vibration    15          0.667              1.749              1.676
 Vibration    16          0.701              1.648              1.344
 Vibration    17          0.712              1.617              1.264
 Vibration    18          0.729              1.569              1.152
 Vibration    19          0.743              1.532              1.075
 Vibration    20          0.785              1.420              0.881
 Vibration    21          0.787              1.415              0.873
 Vibration    22          0.834              1.300              0.717
 Vibration    23          0.880              1.195              0.599
 Vibration    24          0.890              1.173              0.577
 Vibration    25          0.916              1.116              0.523
 Vibration    26          0.937              1.074              0.485
 Vibration    27          0.967              1.014              0.435

 Optimization completed.
    -- Stationary point found.
 Normal termination of Gaussian 16 at Tue Mar  2 18:35:44 2021.
