 Gaussian 16, Revision A.03,
 Gaussian 16:  ES64L-G16RevA.03 25-Dec-2016

 ----------------------------------------------------------------------
 # wB97XD def2tzvp, opt=(ts, noeigen, calcfc, maxcycles=70, maxstep=8),
  freq=noraman, scrf=(iefpcm, solvent=water)
 ----------------------------------------------------------------------

 ------------------------
 0_iteration/TS-376-0.out
 ------------------------
 Symbolic Z-matrix:
 Charge =  0 Multiplicity = 1

 SCF Done:  E(RwB97XD) =  -978.450560062     A.U. after   15 cycles
 SCF Done:  E(RwB97XD) =  -978.449645688     A.U. after   13 cycles
 SCF Done:  E(RwB97XD) =  -978.449058266     A.U. after   13 cycles
 SCF Done:  E(RwB97XD) =  -978.448781137     A.U. after   12 cycles
 SCF Done:  E(RwB97XD) =  -978.448867067     A.U. after   12 cycles
 SCF Done:  E(RwB97XD) =  -978.449453539     A.U. after   14 cycles
 SCF Done:  E(RwB97XD) =  -978.450033225     A.U. after   14 cycles
 SCF Done:  E(RwB97XD) =  -978.450313192     A.U. after   14 cycles
 SCF Done:  E(RwB97XD) =  -978.450384571     A.U. after   12 cycles
 SCF Done:  E(RwB97XD) =  -978.450372061     A.U. after   12 cycles
 SCF Done:  E(RwB97XD) =  -978.450403200     A.U. after   11 cycles
 SCF Done:  E(RwB97XD) =  -978.450405254     A.U. after    9 cycles
 SCF Done:  E(RwB97XD) =  -978.450406016     A.U. after    9 cycles
 SCF Done:  E(RwB97XD) =  -978.450406106     A.U. after    7 cycles
 SCF Done:  E(RwB97XD) =  -978.450406046     A.U. after    6 cycles
 Optimization completed.
    -- Stationary point found.
 Normal termination of Gaussian 16 at Fri Feb 12 15:51:44 2021.

 ---------------------------------------------------------------------
 #N Geom=AllCheck Guess=TCheck SCRF=Check GenChk RwB97XD/def2TZVP Freq
 ---------------------------------------------------------------------

 Structure from the checkpoint file:  "/beegfs/scratch/user/q/tla25/Gau-68925.chk"
 ------------------------
 0_iteration/TS-376-0.out
 ------------------------
 Charge =  0 Multiplicity = 1

                         Standard orientation:
 ---------------------------------------------------------------------
 Center     Atomic      Atomic             Coordinates (Angstroms)
 Number     Number       Type             X           Y           Z
 ---------------------------------------------------------------------
      1          6           0       -0.607868    0.617000   -0.587165
      2          6           0        0.233791   -0.093558    0.324558
      3          8           0       -0.190007   -0.760215    1.274137
      4          6           0       -1.967239    0.773601   -0.450128
      5          6           0       -4.326893   -1.060159   -0.956302
      6          1           0       -4.675609   -2.050954   -1.254602
      7          1           0       -4.707240   -0.838015    0.039074
      8          1           0       -4.720922   -0.322408   -1.654264
      9          7           0       -2.871516   -0.971453   -0.939711
     10          1           0       -2.452561   -1.604108   -0.268225
     11          1           0       -2.466358   -1.162560   -1.847617
     12          1           0       -2.502386    1.332179   -1.204321
     13         17           0       -2.732521    0.997927    1.115103
     14          1           0       -0.200775    0.931582   -1.538507
     15          6           0        1.719803   -0.051955    0.078238
     16          6           0        2.505747   -1.097306    0.557263
     17          6           0        3.877327   -1.096594    0.363637
     18          6           0        4.484498   -0.039036   -0.301016
     19          6           0        3.712355    1.013353   -0.771434
     20          6           0        2.337441    1.004004   -0.587683
     21          1           0        2.024636   -1.912381    1.082314
     22          1           0        4.475558   -1.920534    0.732007
     23          1           0        5.557096   -0.034105   -0.449072
     24          1           0        4.181563    1.845721   -1.280593
     25          1           0        1.746772    1.836630   -0.947870
 ---------------------------------------------------------------------

 SCF Done:  E(RwB97XD) =  -978.450406046     A.U. after    1 cycles

 The electronic state is 1-A.
 Alpha  occ. eigenvalues -- -101.69824 -19.21232 -14.47006 -10.38766 -10.35976
 Alpha  occ. eigenvalues --  -10.31354 -10.29572 -10.29362 -10.29314 -10.29143
 Alpha  occ. eigenvalues --  -10.29123 -10.29049 -10.26109  -9.58404  -7.33044
 Alpha  occ. eigenvalues --   -7.32209  -7.32136  -1.11983  -1.02744  -0.96843
 Alpha  occ. eigenvalues --   -0.96701  -0.87439  -0.85312  -0.84645  -0.78306
 Alpha  occ. eigenvalues --   -0.74842  -0.70787  -0.69010  -0.63612  -0.62232
 Alpha  occ. eigenvalues --   -0.60040  -0.57370  -0.56247  -0.55020  -0.53991
 Alpha  occ. eigenvalues --   -0.53593  -0.51766  -0.51255  -0.51032  -0.48582
 Alpha  occ. eigenvalues --   -0.47557  -0.46906  -0.46193  -0.44539  -0.43923
 Alpha  occ. eigenvalues --   -0.42599  -0.39981  -0.38137  -0.34004  -0.33820
 Alpha  occ. eigenvalues --   -0.32484  -0.28901
 Alpha virt. eigenvalues --    0.00689   0.05173   0.06413   0.09961   0.11001
 Alpha virt. eigenvalues --    0.13412   0.14590   0.14838   0.15958   0.16734
 Alpha virt. eigenvalues --    0.16954   0.17902   0.19379   0.19463   0.19847

 Mulliken charges:
               1
     1  C   -0.393381
     2  C    0.285594
     3  O   -0.500356
     4  C    0.024692
     5  C   -0.261537
     6  H    0.144893
     7  H    0.142168
     8  H    0.146301
     9  N   -0.387727
    10  H    0.277628
    11  H    0.275366
    12  H    0.186790
    13  Cl  -0.103363
    14  H    0.162773
    15  C    0.149370
    16  C   -0.225832
    17  C   -0.128099
    18  C   -0.138875
    19  C   -0.142942
    20  C   -0.240877
    21  H    0.140168
    22  H    0.143689
    23  H    0.146320
    24  H    0.143982
    25  H    0.153256
 Sum of Mulliken charges =   0.00000

 Dipole moment (field-independent basis, Debye):
    X=             -3.5956    Y=             -1.2084    Z=             -6.5113  Tot=              7.5356
 Quadrupole moment (field-independent basis, Debye-Ang):
   XX=            -58.6202   YY=            -79.3347   ZZ=            -84.9011
   XY=              6.9626   XZ=              9.5553   YZ=             -0.6048

  Exact polarizability: 291.247   3.349 177.499   2.427 -20.098 159.501
 Approx polarizability: 201.271   1.605 154.078  -2.824 -20.121 142.761

 ******    1 imaginary frequencies (negative Signs) ******

                      1                      2                      3
                      A                      A                      A
 Frequencies --   -362.3880                34.6583                36.4063
 Red. masses --      6.3730                 4.3365                 5.0557
 Frc consts  --      0.4931                 0.0031                 0.0039
 IR Inten    --   1031.3744                 3.5129                 3.7989

                      4                      5                      6
                      A                      A                      A
 Frequencies --     56.1020                93.7174               111.5073
 Red. masses --      3.8531                 1.9925                 5.8616
 Frc consts  --      0.0071                 0.0103                 0.0429
 IR Inten    --      9.1481                11.5446                 7.3695

                      7                      8                      9
                      A                      A                      A
 Frequencies --    150.9289               156.8362               163.7915
 Red. masses --      6.7946                 4.2861                 1.3288
 Frc consts  --      0.0912                 0.0621                 0.0210
 IR Inten    --      6.1785                 4.2604                 8.0715

                     10                     11                     12
                      A                      A                      A
 Frequencies --    206.0003               287.2367               317.6721
 Red. masses --      4.1349                 3.8673                 4.8569
 Frc consts  --      0.1034                 0.1880                 0.2888
 IR Inten    --     27.0558                12.6180                 5.9759

                     13                     14                     15
                      A                      A                      A
 Frequencies --    387.8000               420.9273               437.2861
 Red. masses --      4.8679                 2.8793                 4.7618
 Frc consts  --      0.4313                 0.3006                 0.5365
 IR Inten    --     58.3142                 0.3909                65.7708

                     16                     17                     18
                      A                      A                      A
 Frequencies --    478.3158               532.7055               603.4457
 Red. masses --      5.1829                 4.0035                 1.4991
 Frc consts  --      0.6986                 0.6694                 0.3216
 IR Inten    --     23.0986                 1.4519                 2.4800

                     19                     20                     21
                      A                      A                      A
 Frequencies --    635.2749               681.9912               708.8998
 Red. masses --      6.3905                 2.1008                 2.5250
 Frc consts  --      1.5195                 0.5757                 0.7476
 IR Inten    --      0.4327                40.4291                53.8125

                     22                     23                     24
                      A                      A                      A
 Frequencies --    720.9779               723.9742               748.3393
 Red. masses --      1.7309                 3.5799                 2.2186
 Frc consts  --      0.5301                 1.1055                 0.7320
 IR Inten    --     46.8593                33.7669               230.1442

                     25                     26                     27
                      A                      A                      A
 Frequencies --    832.6115               881.0202               910.2805
 Red. masses --      3.0441                 1.2494                 4.7110
 Frc consts  --      1.2433                 0.5714                 2.2999
 IR Inten    --     23.8198                 0.5499                97.1182

                     28                     29                     30
                      A                      A                      A
 Frequencies --    971.6465               998.5726              1003.4903
 Red. masses --      1.4799                 1.1135                 1.1083
 Frc consts  --      0.8232                 0.6542                 0.6576
 IR Inten    --      3.9016               154.0601                24.6041

                     31                     32                     33
                      A                      A                      A
 Frequencies --   1017.8256              1025.5155              1033.7735
 Red. masses --      1.3874                 5.9207                 1.3184
 Frc consts  --      0.8468                 3.6686                 0.8301
 IR Inten    --      1.5264                 2.1028                 0.6445

                     34                     35                     36
                      A                      A                      A
 Frequencies --   1051.8730              1067.5579              1080.9577
 Red. masses --      2.8301                 2.1458                 2.8745
 Frc consts  --      1.8449                 1.4408                 1.9789
 IR Inten    --     64.0628               144.1652                42.2149

                     37                     38                     39
                      A                      A                      A
 Frequencies --   1101.8908              1112.1822              1183.5595
 Red. masses --      1.3417                 1.5561                 1.1356
 Frc consts  --      0.9598                 1.1341                 0.9373
 IR Inten    --     25.2788                15.7720                 1.7508

                     40                     41                     42
                      A                      A                      A
 Frequencies --   1196.0910              1200.8214              1215.2006
 Red. masses --      1.3848                 1.1395                 1.1869
 Frc consts  --      1.1673                 0.9681                 1.0327
 IR Inten    --     40.7339                15.6078               224.3550

                     43                     44                     45
                      A                      A                      A
 Frequencies --   1257.1887              1330.5161              1341.5168
 Red. masses --      3.0460                 3.3820                 1.3352
 Frc consts  --      2.8365                 3.5275                 1.4158
 IR Inten    --    144.6226                19.9184                 3.0494

                     46                     47                     48
                      A                      A                      A
 Frequencies --   1352.0510              1366.5082              1457.1059
 Red. masses --      1.6294                 1.7866                 1.2304
 Frc consts  --      1.7550                 1.9656                 1.5392
 IR Inten    --      3.1845               168.8971               127.8201

                     49                     50                     51
                      A                      A                      A
 Frequencies --   1483.6794              1490.4163              1502.5365
 Red. masses --      2.4119                 1.0415                 1.6210
 Frc consts  --      3.1281                 1.3631                 2.1562
 IR Inten    --    415.1496                14.8820               530.9933

                     52                     53                     54
                      A                      A                      A
 Frequencies --   1504.1115              1539.2424              1640.4567
 Red. masses --      1.4522                 2.3391                 5.1891
 Frc consts  --      1.9357                 3.2652                 8.2276
 IR Inten    --    476.0584                39.4290               175.2262

                     55                     56                     57
                      A                      A                      A
 Frequencies --   1645.1120              1668.8433              1676.1295
 Red. masses --      1.1458                 6.6410                 7.1795
 Frc consts  --      1.8270                10.8972                11.8839
 IR Inten    --     55.2603               132.2412               139.8332

                     58                     59                     60
                      A                      A                      A
 Frequencies --   3057.6941              3133.1269              3162.2724
 Red. masses --      1.0367                 1.1010                 1.1050
 Frc consts  --      5.7110                 6.3676                 6.5104
 IR Inten    --     70.5526                21.0250                17.5988

                     61                     62                     63
                      A                      A                      A
 Frequencies --   3194.3317              3201.4043              3208.0288
 Red. masses --      1.0858                 1.0885                 1.0893
 Frc consts  --      6.5279                 6.5730                 6.6049
 IR Inten    --      0.9025                 4.4565                 9.7772

                     64                     65                     66
                      A                      A                      A
 Frequencies --   3211.9354              3217.8035              3223.4042
 Red. masses --      1.0896                 1.0940                 1.0981
 Frc consts  --      6.6231                 6.6739                 6.7224
 IR Inten    --      8.0799                25.4621                19.5035

                     67                     68                     69
                      A                      A                      A
 Frequencies --   3230.5560              3532.2615              3617.9662
 Red. masses --      1.0948                 1.0505                 1.0966
 Frc consts  --      6.7317                 7.7222                 8.4570
 IR Inten    --      8.5996                18.5956                41.5209

 - Thermochemistry -
 -------------------
 Temperature   298.150 Kelvin.  Pressure   1.00000 Atm.
 Atom     1 has atomic number  6 and mass  12.00000

 Molecular mass:   197.06074 amu.
 Principal axes and moments of inertia in atomic units:
                           1         2         3
     Eigenvalues --  1054.546506112.478376218.87549
           X            0.99980   0.01603   0.01168
           Y           -0.01356   0.98219  -0.18740
           Z           -0.01448   0.18720   0.98221
 This molecule is an asymmetric top.
 Rotational symmetry number  1.
 Warning -- assumption of classical behavior for rotation
           may cause significant error
 Rotational temperatures (Kelvin)      0.08213     0.01417     0.01393
 Rotational constants (GHZ):           1.71139     0.29526     0.29020
    1 imaginary frequencies ignored.
 Zero-point vibrational energy     531296.7 (Joules/Mol)
                                  126.98295 (Kcal/Mol)
 Warning -- explicit consideration of  17 degrees of freedom as
           vibrations may cause significant error
 Vibrational temperatures:     49.87    52.38    80.72   134.84   160.43
          (Kelvin)            217.15   225.65   235.66   296.39   413.27
                              457.06   557.96   605.62   629.16   688.19
                              766.44   868.22   914.02   981.23  1019.95
                             1037.33  1041.64  1076.69  1197.94  1267.59
                             1309.69  1397.98  1436.72  1443.80  1464.42
                             1475.49  1487.37  1513.41  1535.98  1555.26
                             1585.38  1600.18  1702.88  1720.91  1727.71
                             1748.40  1808.81  1914.32  1930.14  1945.30
                             1966.10  2096.45  2134.68  2144.38  2161.81
                             2164.08  2214.63  2360.25  2366.95  2401.09
                             2411.58  4399.34  4507.87  4549.80  4595.93
                             4606.11  4615.64  4621.26  4629.70  4637.76
                             4648.05  5082.14  5205.45

 Zero-point correction=                           0.202360 (Hartree/Particle)
 Thermal correction to Energy=                    0.215329
 Thermal correction to Enthalpy=                  0.216274
 Thermal correction to Gibbs Free Energy=         0.160739
 Sum of electronic and zero-point Energies=           -978.248046
 Sum of electronic and thermal Energies=              -978.235077
 Sum of electronic and thermal Enthalpies=            -978.234132
 Sum of electronic and thermal Free Energies=         -978.289667

                     E (Thermal)             CV                S
                      KCal/Mol        Cal/Mol-Kelvin    Cal/Mol-Kelvin
 Total                  135.121             46.833            116.883
 Electronic               0.000              0.000              0.000
 Translational            0.889              2.981             41.740
 Rotational               0.889              2.981             32.061
 Vibrational            133.344             40.871             43.082
 Vibration     1          0.594              1.983              5.543
 Vibration     2          0.594              1.982              5.446
 Vibration     3          0.596              1.975              4.590
 Vibration     4          0.603              1.954              3.581
 Vibration     5          0.607              1.940              3.243
 Vibration     6          0.618              1.902              2.660
 Vibration     7          0.621              1.895              2.588
 Vibration     8          0.623              1.887              2.506
 Vibration     9          0.640              1.831              2.079
 Vibration    10          0.684              1.697              1.490
 Vibration    11          0.704              1.640              1.322
 Vibration    12          0.756              1.496              1.009
 Vibration    13          0.783              1.425              0.889
 Vibration    14          0.798              1.389              0.835
 Vibration    15          0.835              1.298              0.715
 Vibration    16          0.888              1.178              0.581
 Vibration    17          0.962              1.024              0.444

 Optimization completed.
    -- Stationary point found.
 Normal termination of Gaussian 16 at Fri Feb 12 16:22:11 2021.
