 Gaussian 16, Revision A.03,
 Gaussian 16:  ES64L-G16RevA.03 25-Dec-2016

 ----------------------------------------------------------------------
 # wB97XD def2tzvp, opt=(ts, noeigen, calcfc, maxcycles=70, maxstep=1),
  freq=noraman, scrf=(iefpcm, solvent=water)
 ----------------------------------------------------------------------

 ------------------------
 0_iteration/TS-365-0.out
 ------------------------
 Symbolic Z-matrix:
 Charge =  0 Multiplicity = 1

 SCF Done:  E(RwB97XD) =  -1073.14481365     A.U. after   15 cycles
 SCF Done:  E(RwB97XD) =  -1073.14481371     A.U. after    7 cycles
 Optimization completed.
    -- Stationary point found.
 Normal termination of Gaussian 16 at Tue Mar  2 03:24:17 2021.

 ---------------------------------------------------------------------
 #N Geom=AllCheck Guess=TCheck SCRF=Check GenChk RwB97XD/def2TZVP Freq
 ---------------------------------------------------------------------

 Structure from the checkpoint file:  "/beegfs/scratch/user/q/tla25/Gau-55100.chk"
 ------------------------
 0_iteration/TS-365-0.out
 ------------------------
 Charge =  0 Multiplicity = 1

                         Standard orientation:
 ---------------------------------------------------------------------
 Center     Atomic      Atomic             Coordinates (Angstroms)
 Number     Number       Type             X           Y           Z
 ---------------------------------------------------------------------
      1          6           0       -0.282652   -0.010475   -0.285449
      2          6           0       -0.956858    1.265485   -0.037062
      3          8           0       -2.101566    1.331750    0.435782
      4          6           0       -1.039393   -1.153298   -0.408565
      5          6           0       -0.915770   -1.662585    2.375255
      6          1           0       -1.365825   -1.610977    3.367670
      7          1           0       -0.371645   -2.600756    2.276913
      8          1           0       -0.213087   -0.835855    2.263991
      9          7           0       -1.905996   -1.562773    1.316805
     10          1           0       -2.521366   -2.364732    1.267487
     11          1           0       -2.451798   -0.708626    1.384079
     12          1           0       -0.524689   -2.096982   -0.518158
     13         17           0       -2.541288   -1.200391   -1.363591
     14          6           0        1.189306   -0.151400   -0.222436
     15          6           0        1.957493    0.530940    0.729913
     16          6           0        3.332249    0.373891    0.794504
     17          6           0        3.984318   -0.484635   -0.080720
     18          6           0        3.241847   -1.172820   -1.028858
     19          6           0        1.868387   -0.997323   -1.106353
     20          1           0        1.465990    1.185990    1.439145
     21          1           0        3.896412    0.914615    1.544639
     22          1           0        5.057967   -0.611841   -0.026087
     23          1           0        3.735327   -1.838597   -1.726410
     24          1           0        1.310404   -1.515471   -1.877302
     25          7           0       -0.280229    2.397735   -0.338404
     26          6           0       -0.801398    3.710701   -0.045242
     27          1           0        0.630209    2.319869   -0.753350
     28          1           0       -0.043711    4.449866   -0.296288
     29          1           0       -1.702746    3.923229   -0.624044
     30          1           0       -1.048604    3.807289    1.013779
 ---------------------------------------------------------------------

 SCF Done:  E(RwB97XD) =  -1073.14481371     A.U. after    1 cycles

 The electronic state is 1-A.
 Alpha  occ. eigenvalues -- -101.69139 -19.20372 -14.46874 -14.44771 -10.37967
 Alpha  occ. eigenvalues --  -10.37718 -10.31124 -10.30743 -10.30279 -10.28749
 Alpha  occ. eigenvalues --  -10.28734 -10.28425 -10.28411 -10.28403 -10.26653
 Alpha  occ. eigenvalues --   -9.57726  -7.32351  -7.31522  -7.31482  -1.12950
 Alpha  occ. eigenvalues --   -1.02799  -1.01467  -0.96899  -0.95500  -0.88755
 Alpha  occ. eigenvalues --   -0.84757  -0.82266  -0.80087  -0.78093  -0.71756
 Alpha  occ. eigenvalues --   -0.69840  -0.68810  -0.66232  -0.62557  -0.61685
 Alpha  occ. eigenvalues --   -0.58397  -0.56464  -0.55974  -0.54973  -0.53758
 Alpha  occ. eigenvalues --   -0.53044  -0.52819  -0.52324  -0.50464  -0.50226
 Alpha  occ. eigenvalues --   -0.48113  -0.47415  -0.47239  -0.46451  -0.46024
 Alpha  occ. eigenvalues --   -0.45009  -0.43077  -0.42296  -0.39467  -0.37638
 Alpha  occ. eigenvalues --   -0.35633  -0.33958  -0.33413  -0.33137  -0.26197
 Alpha virt. eigenvalues --    0.03821   0.05400   0.06337   0.09766   0.11319
 Alpha virt. eigenvalues --    0.12658   0.13803   0.14204   0.14802   0.15527
 Alpha virt. eigenvalues --    0.16875   0.17179   0.17627   0.18641   0.18870

 Mulliken charges:
               1
     1  C   -0.187194
     2  C    0.356165
     3  O   -0.554300
     4  C    0.004183
     5  C   -0.275195
     6  H    0.147931
     7  H    0.146913
     8  H    0.141522
     9  N   -0.338806
    10  H    0.275897
    11  H    0.269058
    12  H    0.188697
    13  Cl  -0.142000
    14  C    0.127163
    15  C   -0.284668
    16  C   -0.128737
    17  C   -0.165306
    18  C   -0.136018
    19  C   -0.275797
    20  H    0.158251
    21  H    0.139667
    22  H    0.141154
    23  H    0.139348
    24  H    0.153646
    25  N   -0.310520
    26  C   -0.252977
    27  H    0.266566
    28  H    0.141279
    29  H    0.126415
    30  H    0.127666
 Sum of Mulliken charges =  -0.00000

 Dipole moment (field-independent basis, Debye):
    X=              2.6081    Y=             -2.4531    Z=              3.0624  Tot=              4.7115
 Quadrupole moment (field-independent basis, Debye-Ang):
   XX=           -100.1975   YY=            -81.7193   ZZ=            -92.1130
   XY=             10.2803   XZ=             -6.1693   YZ=             -5.0156

  Exact polarizability: 282.472  12.852 222.240  -2.503  12.987 199.144
 Approx polarizability: 216.995   7.560 178.199  -1.389  13.541 168.711

 ******    1 imaginary frequencies (negative Signs) ******

                      1                      2                      3
                      A                      A                      A
 Frequencies --   -390.0697                39.1630                57.3073
 Red. masses --      5.7669                 3.4841                 2.6317
 Frc consts  --      0.5170                 0.0031                 0.0051
 IR Inten    --    856.6397                 4.9521                 2.3959

                      4                      5                      6
                      A                      A                      A
 Frequencies --     59.7090                66.3521                81.6618
 Red. masses --      3.8971                 1.9227                 2.9893
 Frc consts  --      0.0082                 0.0050                 0.0117
 IR Inten    --     11.2205                 5.0028                11.5377

                      7                      8                      9
                      A                      A                      A
 Frequencies --     96.5407                99.9528               132.2263
 Red. masses --      2.1709                 2.3130                 3.8100
 Frc consts  --      0.0119                 0.0136                 0.0392
 IR Inten    --     21.0934                 8.6656                 3.5351

                     10                     11                     12
                      A                      A                      A
 Frequencies --    162.5968               176.9667               185.0864
 Red. masses --      3.6106                 5.1076                 1.3409
 Frc consts  --      0.0562                 0.0942                 0.0271
 IR Inten    --     16.5574                 5.2076                10.9396

                     13                     14                     15
                      A                      A                      A
 Frequencies --    234.2518               261.7403               287.6152
 Red. masses --      4.2616                 4.5682                 3.4729
 Frc consts  --      0.1378                 0.1844                 0.1693
 IR Inten    --      0.6683                31.4201                19.7902

                     16                     17                     18
                      A                      A                      A
 Frequencies --    326.2062               332.0061               404.0945
 Red. masses --      4.9376                 5.5766                 4.1532
 Frc consts  --      0.3096                 0.3622                 0.3996
 IR Inten    --     37.4598                19.4981                39.4059

                     19                     20                     21
                      A                      A                      A
 Frequencies --    405.5568               429.3205               484.7689
 Red. masses --      1.6067                 2.5309                 2.8930
 Frc consts  --      0.1557                 0.2748                 0.4006
 IR Inten    --     64.1466                 7.1115                84.3663

                     22                     23                     24
                      A                      A                      A
 Frequencies --    537.8302               569.2192               634.5340
 Red. masses --      4.1444                 2.5603                 5.3389
 Frc consts  --      0.7063                 0.4888                 1.2665
 IR Inten    --     22.1611                10.2857                13.8455

                     25                     26                     27
                      A                      A                      A
 Frequencies --    645.5666               694.4452               727.8010
 Red. masses --      4.3512                 2.2757                 1.6692
 Frc consts  --      1.0684                 0.6466                 0.5209
 IR Inten    --     17.9165                97.8797                66.0241

                     28                     29                     30
                      A                      A                      A
 Frequencies --    755.2256               793.0654               813.7063
 Red. masses --      3.4670                 4.7584                 3.3523
 Frc consts  --      1.1651                 1.7633                 1.3078
 IR Inten    --    173.3761                34.9772                89.4682

                     31                     32                     33
                      A                      A                      A
 Frequencies --    844.4993               876.0376               946.8876
 Red. masses --      3.8981                 1.2460                 1.4558
 Frc consts  --      1.6379                 0.5634                 0.7690
 IR Inten    --     18.6099                 2.7834                 2.1487

                     34                     35                     36
                      A                      A                      A
 Frequencies --    968.2864               998.3946              1010.6421
 Red. masses --      1.1087                 2.5860                 1.3864
 Frc consts  --      0.6124                 1.5187                 0.8343
 IR Inten    --    114.7996                 4.3672                 0.3663

                     37                     38                     39
                      A                      A                      A
 Frequencies --   1020.9858              1022.6602              1035.3333
 Red. masses --      2.5617                 1.7578                 1.3176
 Frc consts  --      1.5733                 1.0831                 0.8321
 IR Inten    --      2.6799                 0.5415                48.8086

                     40                     41                     42
                      A                      A                      A
 Frequencies --   1065.4678              1081.6160              1094.8320
 Red. masses --      1.9592                 1.3321                 3.6366
 Frc consts  --      1.3104                 0.9182                 2.5683
 IR Inten    --     11.7432                87.4405                 9.9891

                     43                     44                     45
                      A                      A                      A
 Frequencies --   1108.7517              1118.3851              1156.8651
 Red. masses --      2.6957                 1.5926                 1.2903
 Frc consts  --      1.9525                 1.1737                 1.0175
 IR Inten    --     11.9859                16.6574                 0.3547

                     46                     47                     48
                      A                      A                      A
 Frequencies --   1181.7352              1190.4407              1191.6974
 Red. masses --      1.1251                 1.7484                 1.4223
 Frc consts  --      0.9258                 1.4599                 1.1901
 IR Inten    --      0.9052                14.1356                22.0734

                     49                     50                     51
                      A                      A                      A
 Frequencies --   1214.6270              1266.8380              1275.6941
 Red. masses --      1.1281                 1.4512                 2.5641
 Frc consts  --      0.9806                 1.3722                 2.4585
 IR Inten    --      4.5467                56.6566                38.6765

                     52                     53                     54
                      A                      A                      A
 Frequencies --   1304.5931              1346.1913              1350.4342
 Red. masses --      3.8560                 1.4633                 2.0095
 Frc consts  --      3.8666                 1.5625                 2.1592
 IR Inten    --     83.8522                42.6420               101.5888

                     55                     56                     57
                      A                      A                      A
 Frequencies --   1368.7491              1440.3865              1457.2476
 Red. masses --      1.5406                 1.9968                 1.2223
 Frc consts  --      1.7006                 2.4409                 1.5293
 IR Inten    --     42.4739               440.3585                35.3571

                     58                     59                     60
                      A                      A                      A
 Frequencies --   1464.8595              1475.3876              1489.3085
 Red. masses --      1.7099                 1.0527                 1.0408
 Frc consts  --      2.1618                 1.3500                 1.3601
 IR Inten    --    136.0718                11.6885                14.5104

                     61                     62                     63
                      A                      A                      A
 Frequencies --   1495.6042              1504.3646              1507.2853
 Red. masses --      2.3503                 1.0509                 1.1265
 Frc consts  --      3.0975                 1.4013                 1.5078
 IR Inten    --     52.7511                11.3602                22.3517

                     64                     65                     66
                      A                      A                      A
 Frequencies --   1540.2825              1553.1714              1632.9390
 Red. masses --      2.2999                 2.1081                 1.6042
 Frc consts  --      3.2148                 2.9963                 2.5203
 IR Inten    --    113.7520               648.6284               369.7153

                     67                     68                     69
                      A                      A                      A
 Frequencies --   1639.4887              1659.3139              1671.2871
 Red. masses --      3.1285                 3.6202                 5.6518
 Frc consts  --      4.9545                 5.8726                 9.3011
 IR Inten    --     33.6793               431.0495                28.8558

                     70                     71                     72
                      A                      A                      A
 Frequencies --   3048.9945              3059.2103              3105.1597
 Red. masses --      1.0358                 1.0332                 1.1044
 Frc consts  --      5.6735                 5.6972                 6.2739
 IR Inten    --     81.6488                50.5816                44.2803

                     73                     74                     75
                      A                      A                      A
 Frequencies --   3133.0607              3153.3623              3159.8692
 Red. masses --      1.1039                 1.1052                 1.1013
 Frc consts  --      6.3846                 6.4747                 6.4790
 IR Inten    --     14.1465                21.2113                22.4448

                     76                     77                     78
                      A                      A                      A
 Frequencies --   3186.5666              3189.9464              3200.5102
 Red. masses --      1.0858                 1.0878                 1.0911
 Frc consts  --      6.4962                 6.5215                 6.5851
 IR Inten    --     13.0292                 0.7819                10.1763

                     79                     80                     81
                      A                      A                      A
 Frequencies --   3206.0381              3218.7979              3226.3983
 Red. masses --      1.0950                 1.0986                 1.0920
 Frc consts  --      6.6311                 6.7062                 6.6977
 IR Inten    --     47.5429                21.9149                 3.6718

                     82                     83                     84
                      A                      A                      A
 Frequencies --   3498.2043              3608.8306              3680.3758
 Red. masses --      1.0534                 1.0947                 1.0783
 Frc consts  --      7.5951                 8.4001                 8.6054
 IR Inten    --     56.9737                83.6004                79.9370

 - Thermochemistry -
 -------------------
 Temperature   298.150 Kelvin.  Pressure   1.00000 Atm.
 Atom     1 has atomic number  6 and mass  12.00000

 Molecular mass:   226.08729 amu.
 Principal axes and moments of inertia in atomic units:
                           1         2         3
     Eigenvalues --  2830.913424530.344855615.98060
           X            0.99967  -0.01525  -0.02086
           Y            0.01456   0.99937  -0.03250
           Z            0.02135   0.03218   0.99925
 This molecule is an asymmetric top.
 Rotational symmetry number  1.
 Warning -- assumption of classical behavior for rotation
           may cause significant error
 Rotational temperatures (Kelvin)      0.03060     0.01912     0.01542
 Rotational constants (GHZ):           0.63751     0.39837     0.32136
    1 imaginary frequencies ignored.
 Zero-point vibrational energy     650418.1 (Joules/Mol)
                                  155.45365 (Kcal/Mol)
 Warning -- explicit consideration of  22 degrees of freedom as
           vibrations may cause significant error
 Vibrational temperatures:     56.35    82.45    85.91    95.47   117.49
          (Kelvin)            138.90   143.81   190.24   233.94   254.62
                              266.30   337.04   376.59   413.81   469.34
                              477.68   581.40   583.51   617.70   697.47
                              773.82   818.98   912.95   928.83   999.15
                             1047.14  1086.60  1141.04  1170.74  1215.05
                             1260.42  1362.36  1393.15  1436.47  1454.09
                             1468.97  1471.38  1489.61  1532.97  1556.20
                             1575.22  1595.25  1609.11  1664.47  1700.25
                             1712.78  1714.59  1747.58  1822.70  1835.44
                             1877.02  1936.87  1942.97  1969.32  2072.39
                             2096.65  2107.61  2122.75  2142.78  2151.84
                             2164.45  2168.65  2216.12  2234.67  2349.43
                             2358.86  2387.38  2404.61  4386.82  4401.52
                             4467.63  4507.78  4536.99  4546.35  4584.76
                             4589.62  4604.82  4612.77  4631.13  4642.07
                             5033.14  5192.30  5295.24

 Zero-point correction=                           0.247731 (Hartree/Particle)
 Thermal correction to Energy=                    0.263738
 Thermal correction to Enthalpy=                  0.264682
 Thermal correction to Gibbs Free Energy=         0.202846
 Sum of electronic and zero-point Energies=          -1072.897083
 Sum of electronic and thermal Energies=             -1072.881076
 Sum of electronic and thermal Enthalpies=           -1072.880132
 Sum of electronic and thermal Free Energies=        -1072.941968

                     E (Thermal)             CV                S
                      KCal/Mol        Cal/Mol-Kelvin    Cal/Mol-Kelvin
 Total                  165.498             57.179            130.144
 Electronic               0.000              0.000              0.000
 Translational            0.889              2.981             42.150
 Rotational               0.889              2.981             32.643
 Vibrational            163.720             51.217             55.351
 Vibration     1          0.594              1.981              5.301
 Vibration     2          0.596              1.975              4.548
 Vibration     3          0.597              1.974              4.467
 Vibration     4          0.598              1.970              4.259
 Vibration     5          0.600              1.962              3.851
 Vibration     6          0.603              1.952              3.523
 Vibration     7          0.604              1.949              3.455
 Vibration     8          0.612              1.921              2.913
 Vibration     9          0.623              1.888              2.519
 Vibration    10          0.628              1.871              2.360
 Vibration    11          0.631              1.860              2.276
 Vibration    12          0.654              1.788              1.846
 Vibration    13          0.669              1.743              1.650
 Vibration    14          0.685              1.697              1.488
 Vibration    15          0.710              1.623              1.279
 Vibration    16          0.714              1.612              1.250
 Vibration    17          0.769              1.461              0.948
 Vibration    18          0.771              1.458              0.942
 Vibration    19          0.791              1.406              0.861
 Vibration    20          0.841              1.284              0.697
 Vibration    21          0.893              1.166              0.570
 Vibration    22          0.925              1.098              0.506

 Optimization completed.
    -- Stationary point found.
 Normal termination of Gaussian 16 at Tue Mar  2 04:23:24 2021.
