 Gaussian 16, Revision A.03,
 Gaussian 16:  ES64L-G16RevA.03 25-Dec-2016

 ----------------------------------------------------------------------
 # wB97XD def2tzvp, opt=(ts, noeigen, calcfc, maxcycles=70, maxstep=1),
  freq=noraman, scrf=(iefpcm, solvent=water)
 ----------------------------------------------------------------------

 ------------------------
 0_iteration/TS-393-0.out
 ------------------------
 Symbolic Z-matrix:
 Charge =  0 Multiplicity = 1

 SCF Done:  E(RwB97XD) =  -1207.00304786     A.U. after   15 cycles
 SCF Done:  E(RwB97XD) =  -1207.00304776     A.U. after    7 cycles
 Optimization completed.
    -- Stationary point found.
 Normal termination of Gaussian 16 at Tue Mar  2 02:12:07 2021.

 ---------------------------------------------------------------------
 #N Geom=AllCheck Guess=TCheck SCRF=Check GenChk RwB97XD/def2TZVP Freq
 ---------------------------------------------------------------------

 Structure from the checkpoint file:  "/beegfs/scratch/user/q/tla25/Gau-90506.chk"
 ------------------------
 0_iteration/TS-393-0.out
 ------------------------
 Charge =  0 Multiplicity = 1

                         Standard orientation:
 ---------------------------------------------------------------------
 Center     Atomic      Atomic             Coordinates (Angstroms)
 Number     Number       Type             X           Y           Z
 ---------------------------------------------------------------------
      1          6           0        0.878284    0.050340   -0.178356
      2          6           0        1.591222    1.021488    0.575490
      3          8           0        2.756203    0.941700    0.945616
      4          6           0       -0.454468    0.107149   -0.529336
      5          6           0       -2.940014   -1.183608    0.440360
      6          1           0       -3.462980   -1.765644    1.200727
      7          1           0       -3.477799   -0.251749    0.275473
      8          1           0       -2.926012   -1.751663   -0.489077
      9          7           0       -1.567405   -0.879622    0.832979
     10          1           0       -1.524255   -0.309633    1.669661
     11          1           0       -1.028740   -1.721590    0.999061
     12          1           0       -0.825534   -0.548566   -1.303803
     13         17           0       -1.296267    1.633213   -0.523113
     14         17           0        1.691569   -1.452035   -0.559776
     15          1           0        0.997259    1.920362    0.812353
 ---------------------------------------------------------------------

 SCF Done:  E(RwB97XD) =  -1207.00304776     A.U. after    1 cycles

 The electronic state is 1-A.
 Alpha  occ. eigenvalues -- -101.71605-101.69665 -19.22465 -14.47891 -10.40420
 Alpha  occ. eigenvalues --  -10.36184 -10.32582 -10.31812  -9.60171  -9.58185
 Alpha  occ. eigenvalues --   -7.34836  -7.33949  -7.33902  -7.32823  -7.31968
 Alpha  occ. eigenvalues --   -7.31959  -1.12915  -1.03802  -0.99598  -0.95852
 Alpha  occ. eigenvalues --   -0.84193  -0.78827  -0.75615  -0.63435  -0.62984
 Alpha  occ. eigenvalues --   -0.59894  -0.56668  -0.55831  -0.54583  -0.51223
 Alpha  occ. eigenvalues --   -0.49583  -0.48960  -0.48027  -0.46180  -0.42591
 Alpha  occ. eigenvalues --   -0.41845  -0.40140  -0.38886  -0.33778  -0.29057
 Alpha virt. eigenvalues --    0.01731   0.07506   0.10232   0.11745   0.14370
 Alpha virt. eigenvalues --    0.14748   0.16215   0.16537   0.19215   0.19901
 Alpha virt. eigenvalues --    0.20097   0.20642   0.23389   0.24384   0.26871

 Mulliken charges:
               1
     1  C   -0.017350
     2  C    0.069822
     3  O   -0.468299
     4  C   -0.018701
     5  C   -0.266904
     6  H    0.151087
     7  H    0.147826
     8  H    0.150332
     9  N   -0.388075
    10  H    0.284094
    11  H    0.281898
    12  H    0.198720
    13  Cl  -0.064508
    14  Cl  -0.152276
    15  H    0.092333
 Sum of Mulliken charges =  -0.00000

 Dipole moment (field-independent basis, Debye):
    X=            -10.4558    Y=             -2.9247    Z=              0.8096  Tot=             10.8872
 Quadrupole moment (field-independent basis, Debye-Ang):
   XX=            -72.4397   YY=            -59.2595   ZZ=            -59.4940
   XY=              2.1097   XZ=             -7.8363   YZ=             -2.5250

  Exact polarizability: 175.835   8.353 123.389   4.866   3.753  89.803
 Approx polarizability: 132.103   2.395 104.247   4.740   3.434  81.613

 ******    1 imaginary frequencies (negative Signs) ******

                      1                      2                      3
                      A                      A                      A
 Frequencies --   -341.5495                59.0035                78.9097
 Red. masses --      6.2498                 4.8860                 2.5055
 Frc consts  --      0.4296                 0.0100                 0.0092
 IR Inten    --   1031.7011                 0.7204                 4.0227

                      4                      5                      6
                      A                      A                      A
 Frequencies --    105.0517               167.9431               179.4833
 Red. masses --      3.4578                 1.3904                 4.8266
 Frc consts  --      0.0225                 0.0231                 0.0916
 IR Inten    --     11.0797                 3.5787                14.8800

                      7                      8                      9
                      A                      A                      A
 Frequencies --    197.1344               222.3536               281.5548
 Red. masses --      4.8078                 6.3414                 4.3763
 Frc consts  --      0.1101                 0.1847                 0.2044
 IR Inten    --      3.9774                 4.5967                 3.4282

                     10                     11                     12
                      A                      A                      A
 Frequencies --    310.8095               360.1648               473.0549
 Red. masses --      3.0865                 8.1585                 4.9304
 Frc consts  --      0.1757                 0.6235                 0.6501
 IR Inten    --     30.5242                12.4775               182.3025

                     13                     14                     15
                      A                      A                      A
 Frequencies --    605.3960               658.0206               722.2150
 Red. masses --      1.4386                 6.2223                 5.3526
 Frc consts  --      0.3107                 1.5874                 1.6449
 IR Inten    --     44.6103                68.0276                22.6399

                     16                     17                     18
                      A                      A                      A
 Frequencies --    823.3494              1001.6848              1010.6421
 Red. masses --      5.6848                 1.0820                 1.1248
 Frc consts  --      2.2705                 0.6396                 0.6769
 IR Inten    --    184.0899                14.0923               151.0974

                     19                     20                     21
                      A                      A                      A
 Frequencies --   1018.9973              1071.6200              1114.1157
 Red. masses --      1.6119                 4.1035                 1.2122
 Frc consts  --      0.9862                 2.7764                 0.8865
 IR Inten    --      0.4064               219.3986               137.3925

                     22                     23                     24
                      A                      A                      A
 Frequencies --   1154.9341              1208.5954              1333.8870
 Red. masses --      1.8601                 1.4202                 1.5570
 Frc consts  --      1.4618                 1.2223                 1.6322
 IR Inten    --     14.5572                16.4870               244.0151

                     25                     26                     27
                      A                      A                      A
 Frequencies --   1344.7197              1397.5866              1463.3426
 Red. masses --      1.3305                 1.8207                 1.2136
 Frc consts  --      1.4176                 2.0953                 1.5311
 IR Inten    --      5.1298               315.4096                58.7558

                     28                     29                     30
                      A                      A                      A
 Frequencies --   1491.5861              1492.3457              1508.4702
 Red. masses --      1.2141                 2.0604                 1.0346
 Frc consts  --      1.5915                 2.7036                 1.3870
 IR Inten    --    145.6899               420.7003                20.8546

                     31                     32                     33
                      A                      A                      A
 Frequencies --   1641.6760              1693.3949              2982.9987
 Red. masses --      1.0893                 8.7348                 1.0829
 Frc consts  --      1.7297                14.7577                 5.6772
 IR Inten    --     64.6689              1011.3556                71.5405

                     34                     35                     36
                      A                      A                      A
 Frequencies --   3063.3697              3138.7968              3163.8085
 Red. masses --      1.0349                 1.1033                 1.1054
 Frc consts  --      5.7217                 6.4043                 6.5191
 IR Inten    --     57.4896                17.7820                15.6145

                     37                     38                     39
                      A                      A                      A
 Frequencies --   3222.1335              3527.5476              3612.1086
 Red. masses --      1.0931                 1.0503                 1.0965
 Frc consts  --      6.6867                 7.7005                 8.4290
 IR Inten    --      1.9623                25.3667                42.8844

 - Thermochemistry -
 -------------------
 Temperature   298.150 Kelvin.  Pressure   1.00000 Atm.
 Atom     1 has atomic number  6 and mass  12.00000

 Molecular mass:   154.99047 amu.
 Principal axes and moments of inertia in atomic units:
                           1         2         3
     Eigenvalues --  1055.025202005.928822615.57490
           X            0.99668   0.08045  -0.01285
           Y           -0.08057   0.99670  -0.00948
           Z            0.01204   0.01049   0.99987
 This molecule is an asymmetric top.
 Rotational symmetry number  1.
 Warning -- assumption of classical behavior for rotation
           may cause significant error
 Rotational temperatures (Kelvin)      0.08210     0.04318     0.03311
 Rotational constants (GHZ):           1.71061     0.89970     0.69000
    1 imaginary frequencies ignored.
 Zero-point vibrational energy     292503.7 (Joules/Mol)
                                   69.91007 (Kcal/Mol)
 Warning -- explicit consideration of  12 degrees of freedom as
           vibrations may cause significant error
 Vibrational temperatures:     84.89   113.53   151.15   241.63   258.24
          (Kelvin)            283.63   319.92   405.09   447.19   518.20
                              680.62   871.03   946.74  1039.11  1184.62
                             1441.20  1454.09  1466.11  1541.82  1602.96
                             1661.69  1738.90  1919.17  1934.75  2010.82
                             2105.42  2146.06  2147.15  2170.35  2362.01
                             2436.42  4291.87  4407.51  4516.03  4552.01
                             4635.93  5075.35  5197.02

 Zero-point correction=                           0.111409 (Hartree/Particle)
 Thermal correction to Energy=                    0.121012
 Thermal correction to Enthalpy=                  0.121956
 Thermal correction to Gibbs Free Energy=         0.075206
 Sum of electronic and zero-point Energies=          -1206.891639
 Sum of electronic and thermal Energies=             -1206.882036
 Sum of electronic and thermal Enthalpies=           -1206.881092
 Sum of electronic and thermal Free Energies=        -1206.927841

                     E (Thermal)             CV                S
                      KCal/Mol        Cal/Mol-Kelvin    Cal/Mol-Kelvin
 Total                   75.936             31.670             98.392
 Electronic               0.000              0.000              0.000
 Translational            0.889              2.981             41.024
 Rotational               0.889              2.981             30.094
 Vibrational             74.158             25.709             27.274
 Vibration     1          0.596              1.974              4.490
 Vibration     2          0.600              1.963              3.918
 Vibration     3          0.605              1.945              3.358
 Vibration     4          0.625              1.882              2.458
 Vibration     5          0.629              1.867              2.334
 Vibration     6          0.637              1.844              2.160
 Vibration     7          0.648              1.807              1.940
 Vibration     8          0.681              1.708              1.524
 Vibration     9          0.700              1.653              1.358
 Vibration    10          0.735              1.554              1.121
 Vibration    11          0.830              1.310              0.729
 Vibration    12          0.964              1.020              0.440

 Optimization completed.
    -- Stationary point found.
 Normal termination of Gaussian 16 at Tue Mar  2 02:18:11 2021.
