 Gaussian 16, Revision A.03,
 Gaussian 16:  ES64L-G16RevA.03 25-Dec-2016

 ----------------------------------------------------------------------
 # wB97XD def2tzvp, opt=(ts, noeigen, calcfc, maxcycles=70, maxstep=1),
  freq=noraman, scrf=(iefpcm, solvent=water)
 ----------------------------------------------------------------------

 ------------------------
 0_iteration/TS-373-0.out
 ------------------------
 Symbolic Z-matrix:
 Charge =  0 Multiplicity = 1

 SCF Done:  E(RwB97XD) =  -842.087129609     A.U. after   14 cycles
 SCF Done:  E(RwB97XD) =  -842.087129600     A.U. after    7 cycles
 Optimization completed.
    -- Stationary point found.
 Normal termination of Gaussian 16 at Tue Mar  2 02:21:15 2021.

 ---------------------------------------------------------------------
 #N Geom=AllCheck Guess=TCheck SCRF=Check GenChk RwB97XD/def2TZVP Freq
 ---------------------------------------------------------------------

 Structure from the checkpoint file:  "/beegfs/scratch/user/q/tla25/Gau-22473.chk"
 ------------------------
 0_iteration/TS-373-0.out
 ------------------------
 Charge =  0 Multiplicity = 1

                         Standard orientation:
 ---------------------------------------------------------------------
 Center     Atomic      Atomic             Coordinates (Angstroms)
 Number     Number       Type             X           Y           Z
 ---------------------------------------------------------------------
      1          6           0        0.003837   -0.478245   -1.156028
      2          6           0        1.314071   -0.493530   -0.545928
      3          8           0        2.214998   -1.237217   -0.962592
      4          6           0       -1.144748    0.168997   -0.755265
      5          6           0       -2.080218   -1.983979    0.662473
      6          1           0       -2.318681   -2.460589    1.612161
      7          1           0       -2.884126   -2.166835   -0.048045
      8          1           0       -1.154107   -2.402426    0.267094
      9          7           0       -1.896101   -0.546350    0.817287
     10          1           0       -2.762005   -0.065663    1.033639
     11          1           0       -1.227034   -0.335182    1.549562
     12          1           0       -2.020186    0.031324   -1.374987
     13         17           0       -1.126508    1.884641   -0.194501
     14          1           0       -0.132510   -1.216673   -1.934792
     15          7           0        1.548114    0.300982    0.542749
     16          6           0        2.873407    0.418109    1.106268
     17          1           0        0.909787    1.057098    0.718090
     18          1           0        2.821601    1.059484    1.984250
     19          1           0        3.246104   -0.559213    1.411857
     20          1           0        3.589620    0.846976    0.399058
 ---------------------------------------------------------------------

 SCF Done:  E(RwB97XD) =  -842.087129600     A.U. after    1 cycles

 The electronic state is 1-A.
 Alpha  occ. eigenvalues -- -101.69910 -19.19234 -14.49280 -14.43919 -10.38857
 Alpha  occ. eigenvalues --  -10.36961 -10.31829 -10.30308 -10.24990  -9.58514
 Alpha  occ. eigenvalues --   -7.33113  -7.32313  -7.32287  -1.11834  -1.04876
 Alpha  occ. eigenvalues --   -1.00572  -0.96144  -0.85576  -0.79323  -0.79150
 Alpha  occ. eigenvalues --   -0.70900  -0.65921  -0.63932  -0.58572  -0.57789
 Alpha  occ. eigenvalues --   -0.56357  -0.54565  -0.53066  -0.52714  -0.49535
 Alpha  occ. eigenvalues --   -0.48260  -0.47110  -0.46978  -0.45567  -0.44866
 Alpha  occ. eigenvalues --   -0.40146  -0.39024  -0.33729  -0.32773  -0.27714
 Alpha virt. eigenvalues --    0.06261   0.08449   0.10263   0.12823   0.14027
 Alpha virt. eigenvalues --    0.15289   0.15934   0.17749   0.17959   0.18551
 Alpha virt. eigenvalues --    0.19640   0.20545   0.21815   0.21976   0.23118

 Mulliken charges:
               1
     1  C   -0.463874
     2  C    0.365297
     3  O   -0.569022
     4  C   -0.004761
     5  C   -0.281955
     6  H    0.157716
     7  H    0.156704
     8  H    0.153494
     9  N   -0.304312
    10  H    0.291653
    11  H    0.280327
    12  H    0.192689
    13  Cl  -0.152329
    14  H    0.140362
    15  N   -0.318880
    16  C   -0.254243
    17  H    0.227875
    18  H    0.136527
    19  H    0.127191
    20  H    0.119539
 Sum of Mulliken charges =   0.00000

 Dipole moment (field-independent basis, Debye):
    X=             -8.7820    Y=              0.7465    Z=              5.9935  Tot=             10.6584
 Quadrupole moment (field-independent basis, Debye-Ang):
   XX=            -58.3101   YY=            -65.0248   ZZ=            -61.3002
   XY=             14.2321   XZ=              4.6256   YZ=             -2.4964

  Exact polarizability: 156.823  -6.246 128.936 -10.246   7.670 117.098
 Approx polarizability: 119.668  -7.415 107.537  -7.993   8.127 100.013

 ******    1 imaginary frequencies (negative Signs) ******

                      1                      2                      3
                      A                      A                      A
 Frequencies --   -396.3283                50.5918                71.1316
 Red. masses --      5.3733                 3.3758                 3.8394
 Frc consts  --      0.4973                 0.0051                 0.0114
 IR Inten    --    705.9418                 4.8290                 9.6113

                      4                      5                      6
                      A                      A                      A
 Frequencies --     87.4281               122.6456               134.7371
 Red. masses --      1.7902                 1.3176                 2.3864
 Frc consts  --      0.0081                 0.0117                 0.0255
 IR Inten    --     14.9804                11.5443                 7.3307

                      7                      8                      9
                      A                      A                      A
 Frequencies --    156.4359               172.0872               206.0184
 Red. masses --      1.5989                 2.7008                 4.0035
 Frc consts  --      0.0231                 0.0471                 0.1001
 IR Inten    --      1.6783                17.4539                23.6118

                     10                     11                     12
                      A                      A                      A
 Frequencies --    256.9388               315.2104               358.0220
 Red. masses --      3.8504                 4.7283                 5.8464
 Frc consts  --      0.1498                 0.2768                 0.4415
 IR Inten    --      8.9539                38.6840                29.3117

                     13                     14                     15
                      A                      A                      A
 Frequencies --    430.6787               484.9705               580.3824
 Red. masses --      2.7284                 1.3253                 3.4011
 Frc consts  --      0.2982                 0.1836                 0.6750
 IR Inten    --     14.3776               218.2422                15.7262

                     16                     17                     18
                      A                      A                      A
 Frequencies --    593.4280               652.7591               710.5256
 Red. masses --      2.5238                 1.4971                 2.1603
 Frc consts  --      0.5236                 0.3758                 0.6426
 IR Inten    --    144.0265                14.4979               100.4611

                     19                     20                     21
                      A                      A                      A
 Frequencies --    790.5433               808.6067               892.5184
 Red. masses --      4.6208                 3.8193                 2.8238
 Frc consts  --      1.7015                 1.4713                 1.3253
 IR Inten    --     58.3130                33.1918                10.5578

                     22                     23                     24
                      A                      A                      A
 Frequencies --   1009.1523              1037.5061              1084.9460
 Red. masses --      1.0856                 1.1117                 5.0885
 Frc consts  --      0.6514                 0.7051                 3.5290
 IR Inten    --     29.8819                53.8885                46.8913

                     25                     26                     27
                      A                      A                      A
 Frequencies --   1123.6129              1151.5247              1152.3800
 Red. masses --      2.5666                 1.1773                 1.2412
 Frc consts  --      1.9091                 0.9198                 0.9712
 IR Inten    --     58.7075                65.8291                27.5969

                     28                     29                     30
                      A                      A                      A
 Frequencies --   1181.6270              1215.1920              1223.5835
 Red. masses --      1.5961                 1.4431                 1.3827
 Frc consts  --      1.3130                 1.2556                 1.2196
 IR Inten    --     16.2527               119.2431                29.7520

                     31                     32                     33
                      A                      A                      A
 Frequencies --   1286.6186              1344.3121              1358.7745
 Red. masses --      1.6058                 1.3144                 1.6668
 Frc consts  --      1.5662                 1.3995                 1.8131
 IR Inten    --    376.5394                 1.4158               147.5179

                     34                     35                     36
                      A                      A                      A
 Frequencies --   1445.0997              1453.6323              1475.4559
 Red. masses --      1.3200                 1.2107                 1.1963
 Frc consts  --      1.6241                 1.5073                 1.5344
 IR Inten    --     79.3816                16.9483                83.2786

                     37                     38                     39
                      A                      A                      A
 Frequencies --   1481.7345              1492.9253              1499.0728
 Red. masses --      2.1514                 1.0513                 1.0421
 Frc consts  --      2.7830                 1.3805                 1.3798
 IR Inten    --    270.2941                 7.9129                11.6527

                     40                     41                     42
                      A                      A                      A
 Frequencies --   1506.0336              1554.8859              1639.4402
 Red. masses --      1.1133                 1.8431                 1.1429
 Frc consts  --      1.4878                 2.6254                 1.8098
 IR Inten    --     33.5855               432.3593               186.5137

                     43                     44                     45
                      A                      A                      A
 Frequencies --   1650.4551              3037.7175              3068.1477
 Red. masses --      4.7929                 1.0440                 1.0330
 Frc consts  --      7.6922                 5.6762                 5.7291
 IR Inten    --    872.1209                93.0457                35.2799

                     46                     47                     48
                      A                      A                      A
 Frequencies --   3110.7623              3149.8221              3154.0935
 Red. masses --      1.0929                 1.1043                 1.1034
 Frc consts  --      6.2310                 6.4553                 6.4673
 IR Inten    --     44.1330                 5.2959                25.3908

                     49                     50                     51
                      A                      A                      A
 Frequencies --   3165.5810              3203.4058              3221.1457
 Red. masses --      1.1065                 1.0865                 1.0936
 Frc consts  --      6.5328                 6.5690                 6.6852
 IR Inten    --     15.0107                 0.6949                 7.3659

                     52                     53                     54
                      A                      A                      A
 Frequencies --   3519.3850              3604.0761              3649.4900
 Red. masses --      1.0506                 1.0970                 1.0776
 Frc consts  --      7.6666                 8.3956                 8.4565
 IR Inten    --     41.1555                57.7263                92.3136

 - Thermochemistry -
 -------------------
 Temperature   298.150 Kelvin.  Pressure   1.00000 Atm.
 Atom     1 has atomic number  6 and mass  12.00000

 Molecular mass:   150.05599 amu.
 Principal axes and moments of inertia in atomic units:
                           1         2         3
     Eigenvalues --  1152.030811970.226562449.27936
           X            0.99496   0.09873   0.01758
           Y           -0.09876   0.99511   0.00061
           Z           -0.01744  -0.00235   0.99985
 This molecule is an asymmetric top.
 Rotational symmetry number  1.
 Warning -- assumption of classical behavior for rotation
           may cause significant error
 Rotational temperatures (Kelvin)      0.07518     0.04396     0.03536
 Rotational constants (GHZ):           1.56657     0.91601     0.73685
    1 imaginary frequencies ignored.
 Zero-point vibrational energy     437398.1 (Joules/Mol)
                                  104.54065 (Kcal/Mol)
 Warning -- explicit consideration of  15 degrees of freedom as
           vibrations may cause significant error
 Vibrational temperatures:     72.79   102.34   125.79   176.46   193.86
          (Kelvin)            225.08   247.60   296.41   369.68   453.52
                              515.11   619.65   697.76   835.04   853.81
                              939.17  1022.29  1137.42  1163.40  1284.13
                             1451.95  1492.74  1561.00  1616.63  1656.79
                             1658.02  1700.10  1748.39  1760.46  1851.16
                             1934.17  1954.97  2079.18  2091.45  2122.85
                             2131.89  2147.99  2156.83  2166.85  2237.13
                             2358.79  2374.64  4370.60  4414.38  4475.69
                             4531.89  4538.04  4554.56  4608.99  4634.51
                             5063.61  5185.46  5250.80

 Zero-point correction=                           0.166596 (Hartree/Particle)
 Thermal correction to Energy=                    0.177784
 Thermal correction to Enthalpy=                  0.178728
 Thermal correction to Gibbs Free Energy=         0.128722
 Sum of electronic and zero-point Energies=           -841.920533
 Sum of electronic and thermal Energies=              -841.909346
 Sum of electronic and thermal Enthalpies=            -841.908402
 Sum of electronic and thermal Free Energies=         -841.958408

                     E (Thermal)             CV                S
                      KCal/Mol        Cal/Mol-Kelvin    Cal/Mol-Kelvin
 Total                  111.561             38.083            105.246
 Electronic               0.000              0.000              0.000
 Translational            0.889              2.981             40.928
 Rotational               0.889              2.981             30.098
 Vibrational            109.783             32.121             34.220
 Vibration     1          0.595              1.977              4.794
 Vibration     2          0.598              1.968              4.122
 Vibration     3          0.601              1.958              3.717
 Vibration     4          0.610              1.930              3.058
 Vibration     5          0.613              1.919              2.877
 Vibration     6          0.620              1.895              2.592
 Vibration     7          0.626              1.877              2.413
 Vibration     8          0.641              1.831              2.079
 Vibration     9          0.667              1.751              1.682
 Vibration    10          0.703              1.645              1.335
 Vibration    11          0.733              1.559              1.131
 Vibration    12          0.792              1.403              0.856
 Vibration    13          0.841              1.283              0.697
 Vibration    14          0.937              1.074              0.485
 Vibration    15          0.951              1.046              0.461

 Optimization completed.
    -- Stationary point found.
 Normal termination of Gaussian 16 at Tue Mar  2 02:31:10 2021.
