 Gaussian 16, Revision A.03,
 Gaussian 16:  ES64L-G16RevA.03 25-Dec-2016

 ----------------------------------------------------------------------
 # wB97XD def2tzvp, opt=(ts, noeigen, calcfc, maxcycles=70, maxstep=8),
  freq=noraman, scrf=(iefpcm, solvent=water)
 ----------------------------------------------------------------------

 -----------------------
 1_iteration/TS-33-1.out
 -----------------------
 Symbolic Z-matrix:
 Charge =  0 Multiplicity = 1

 SCF Done:  E(RwB97XD) =  -1209.49380566     A.U. after   15 cycles
 Optimization completed.
    -- Stationary point found.
 Normal termination of Gaussian 16 at Sun Jan 31 05:46:40 2021.

 ---------------------------------------------------------------------
 #N Geom=AllCheck Guess=TCheck SCRF=Check GenChk RwB97XD/def2TZVP Freq
 ---------------------------------------------------------------------

 Structure from the checkpoint file:  "/beegfs/scratch/user/q/tla25/Gau-83590.chk"
 -----------------------
 1_iteration/TS-33-1.out
 -----------------------
 Charge =  0 Multiplicity = 1

                         Standard orientation:
 ---------------------------------------------------------------------
 Center     Atomic      Atomic             Coordinates (Angstroms)
 Number     Number       Type             X           Y           Z
 ---------------------------------------------------------------------
      1          6           0        0.244387    1.538671   -0.449699
      2          6           0       -0.655134    2.617580   -0.498289
      3          8           0       -0.460775    3.747160   -0.960169
      4          6           0       -0.022731    0.307521    0.218041
      5          6           0        0.844947    1.824222    2.439681
      6          1           0        0.669717    2.075802    3.484341
      7          1           0        1.903567    1.637223    2.281821
      8          1           0        0.540996    2.659251    1.812561
      9          7           0        0.063959    0.643221    2.066251
     10          1           0        0.388070   -0.178099    2.565701
     11          1           0       -0.907782    0.782960    2.323081
     12          6           0        1.000980   -0.798998    0.016481
     13          6           0        0.812452   -1.651748   -1.069699
     14          6           0        1.721413   -2.657487   -1.351759
     15          6           0        2.835113   -2.838756   -0.544829
     16          6           0        3.032302   -1.996525    0.536681
     17          6           0        2.126461   -0.981477    0.810151
     18          1           0       -0.054469   -1.527379   -1.705429
     19          1           0        1.553374   -3.305047   -2.202789
     20          1           0        3.542864   -3.629345   -0.758189
     21          1           0        3.898472   -2.120324    1.173871
     22          1           0        2.335840   -0.328486    1.644821
     23          6           0       -1.434010   -0.258791    0.124101
     24          6           0       -1.878459   -1.206162    1.047931
     25          6           0       -3.125358   -1.794313    0.926231
     26          6           0       -3.950779   -1.466094   -0.139609
     27          6           0       -3.506780   -0.557584   -1.085379
     28          6           0       -2.258431    0.034788   -0.958099
     29          1           0       -1.244849   -1.519171    1.867641
     30          1           0       -3.446837   -2.519864    1.662151
     31          1           0       -4.924848   -1.927476   -0.238309
     32          1           0       -4.128120   -0.308555   -1.935999
     33          1           0       -1.914872    0.715358   -1.723439
     34         17           0        1.879177    1.878643   -1.007119
     35          1           0       -1.636874    2.387319   -0.044899
 ---------------------------------------------------------------------

 SCF Done:  E(RwB97XD) =  -1209.49380566     A.U. after    1 cycles

 The electronic state is 1-A.
 Alpha  occ. eigenvalues -- -101.68297 -19.20497 -14.50579 -10.37980 -10.34391
 Alpha  occ. eigenvalues --  -10.32442 -10.31717 -10.31576 -10.30770 -10.30146
 Alpha  occ. eigenvalues --  -10.29948 -10.29807 -10.29750 -10.29664 -10.29628
 Alpha  occ. eigenvalues --  -10.29599 -10.29551 -10.29492 -10.29381  -9.56824
 Alpha  occ. eigenvalues --   -7.31444  -7.30622  -7.30607  -1.10738  -1.06072
 Alpha  occ. eigenvalues --   -0.99075  -0.97197  -0.95437  -0.90575  -0.86233
 Alpha  occ. eigenvalues --   -0.85984  -0.85634  -0.82672  -0.80189  -0.76208
 Alpha  occ. eigenvalues --   -0.71711  -0.71106  -0.70659  -0.68217  -0.65315
 Alpha  occ. eigenvalues --   -0.63930  -0.61613  -0.60384  -0.58520  -0.57929
 Alpha  occ. eigenvalues --   -0.56780  -0.55990  -0.54666  -0.53979  -0.52932
 Alpha  occ. eigenvalues --   -0.52662  -0.51584  -0.51436  -0.49977  -0.49085
 Alpha  occ. eigenvalues --   -0.48543  -0.47502  -0.47397  -0.46444  -0.45666
 Alpha  occ. eigenvalues --   -0.44534  -0.43353  -0.43139  -0.42462  -0.41096
 Alpha  occ. eigenvalues --   -0.38866  -0.35474  -0.34746  -0.34259  -0.33066
 Alpha  occ. eigenvalues --   -0.32021  -0.27571
 Alpha virt. eigenvalues --    0.01997   0.03413   0.04418   0.05084   0.07068
 Alpha virt. eigenvalues --    0.09936   0.11379   0.13007   0.13195   0.13999
 Alpha virt. eigenvalues --    0.14164   0.14561   0.15801   0.16670   0.17018

 Mulliken charges:
               1
     1  C   -0.086781
     2  C   -0.024914
     3  O   -0.509884
     4  C    0.420612
     5  C   -0.299827
     6  H    0.169688
     7  H    0.158692
     8  H    0.166256
     9  N   -0.329302
    10  H    0.298316
    11  H    0.295131
    12  C    0.088890
    13  C   -0.273888
    14  C   -0.136424
    15  C   -0.139429
    16  C   -0.164496
    17  C   -0.210693
    18  H    0.159699
    19  H    0.144787
    20  H    0.146415
    21  H    0.144793
    22  H    0.138552
    23  C    0.089594
    24  C   -0.269727
    25  C   -0.141862
    26  C   -0.139541
    27  C   -0.119124
    28  C   -0.288703
    29  H    0.159378
    30  H    0.147588
    31  H    0.148682
    32  H    0.147084
    33  H    0.189133
    34  Cl  -0.181787
    35  H    0.103092
 Sum of Mulliken charges =  -0.00000

 Dipole moment (field-independent basis, Debye):
    X=             -1.9636    Y=             -9.2330    Z=              9.1958  Tot=             13.1782
 Quadrupole moment (field-independent basis, Debye-Ang):
   XX=           -107.0931   YY=           -147.0263   ZZ=           -101.1192
   XY=             -0.9513   XZ=              6.2620   YZ=             16.4804

  Exact polarizability: 311.832  -4.569 296.200  21.221 -17.802 267.901
 Approx polarizability: 247.406  -2.767 238.738  18.289 -14.355 233.226

 ******    1 imaginary frequencies (negative Signs) ******

                      1                      2                      3
                      A                      A                      A
 Frequencies --   -307.2777                28.3226                60.2950
 Red. masses --      5.4125                 3.5478                 4.4358
 Frc consts  --      0.3011                 0.0017                 0.0095
 IR Inten    --    600.1357                 2.7168                 1.0841

                      4                      5                      6
                      A                      A                      A
 Frequencies --     63.1382                74.4711                89.0015
 Red. masses --      5.3669                 8.8708                 5.7967
 Frc consts  --      0.0126                 0.0290                 0.0271
 IR Inten    --      2.1167                 2.6396                 2.5239

                      7                      8                      9
                      A                      A                      A
 Frequencies --    104.7521               129.4563               143.9014
 Red. masses --      6.4124                 1.5850                 1.8639
 Frc consts  --      0.0415                 0.0157                 0.0227
 IR Inten    --     10.5026                 0.4001                 7.7944

                     10                     11                     12
                      A                      A                      A
 Frequencies --    166.0432               221.3315               227.5865
 Red. masses --      3.4104                 8.7382                 3.5451
 Frc consts  --      0.0554                 0.2522                 0.1082
 IR Inten    --      6.4159                 7.0037                 1.8565

                     13                     14                     15
                      A                      A                      A
 Frequencies --    245.5088               283.5736               292.0363
 Red. masses --      4.1410                 4.8549                 4.0997
 Frc consts  --      0.1471                 0.2300                 0.2060
 IR Inten    --      8.2631                 2.3204                 3.0210

                     16                     17                     18
                      A                      A                      A
 Frequencies --    311.1914               319.5470               330.0505
 Red. masses --      3.3081                 4.3461                 5.1969
 Frc consts  --      0.1887                 0.2615                 0.3335
 IR Inten    --      5.0215                 4.4882                21.0697

                     19                     20                     21
                      A                      A                      A
 Frequencies --    363.6157               418.3258               427.2197
 Red. masses --      4.7674                 2.8938                 3.2816
 Frc consts  --      0.3714                 0.2984                 0.3529
 IR Inten    --     20.7077                 0.1564                 4.1867

                     22                     23                     24
                      A                      A                      A
 Frequencies --    444.4222               501.7453               541.4663
 Red. masses --      3.2419                 3.6938                 3.6401
 Frc consts  --      0.3773                 0.5479                 0.6288
 IR Inten    --     16.4468                 6.5231                 1.8275

                     25                     26                     27
                      A                      A                      A
 Frequencies --    614.2682               634.6238               638.3962
 Red. masses --      3.3840                 6.4921                 6.3541
 Frc consts  --      0.7523                 1.5405                 1.5258
 IR Inten    --     88.6857                16.3656                 0.7380

                     28                     29                     30
                      A                      A                      A
 Frequencies --    652.0687               671.9474               677.7968
 Red. masses --      5.7005                 5.5718                 4.3067
 Frc consts  --      1.4281                 1.4822                 1.1657
 IR Inten    --     69.1338                77.3390               165.1194

                     31                     32                     33
                      A                      A                      A
 Frequencies --    707.3339               727.4498               733.8189
 Red. masses --      1.8620                 1.5858                 1.6306
 Frc consts  --      0.5489                 0.4944                 0.5173
 IR Inten    --     43.3996                91.6624                88.2253

                     34                     35                     36
                      A                      A                      A
 Frequencies --    788.3006               790.4670               868.0513
 Red. masses --      2.4124                 2.0854                 4.2974
 Frc consts  --      0.8833                 0.7677                 1.9079
 IR Inten    --     64.0782                34.6277                20.9147

                     37                     38                     39
                      A                      A                      A
 Frequencies --    873.3485               884.4012               937.4976
 Red. masses --      1.2683                 1.2447                 3.0084
 Frc consts  --      0.5700                 0.5736                 1.5578
 IR Inten    --      0.7456                 0.3656                 7.4884

                     40                     41                     42
                      A                      A                      A
 Frequencies --    958.9234               977.4620              1011.9236
 Red. masses --      1.4990                 1.5346                 1.3780
 Frc consts  --      0.8121                 0.8639                 0.8314
 IR Inten    --      2.6673                 2.0869                 0.4515

                     43                     44                     45
                      A                      A                      A
 Frequencies --   1022.6007              1022.6884              1026.8024
 Red. masses --      1.9837                 1.4283                 5.6827
 Frc consts  --      1.2222                 0.8802                 3.5301
 IR Inten    --     11.1439                 1.1308                 5.0437

                     46                     47                     48
                      A                      A                      A
 Frequencies --   1031.3729              1032.1235              1033.0211
 Red. masses --      1.7478                 1.3151                 1.5614
 Frc consts  --      1.0954                 0.8254                 0.9817
 IR Inten    --     15.6409                 0.0934                 2.8493

                     49                     50                     51
                      A                      A                      A
 Frequencies --   1039.4958              1064.1504              1068.9726
 Red. masses --      1.3515                 2.6140                 2.1684
 Frc consts  --      0.8604                 1.7441                 1.4599
 IR Inten    --      1.2573                 6.6390                10.1435

                     52                     53                     54
                      A                      A                      A
 Frequencies --   1072.3531              1083.5656              1127.6019
 Red. masses --      3.1203                 1.2825                 1.5839
 Frc consts  --      2.1141                 0.8872                 1.1865
 IR Inten    --     59.0953                78.7314                 6.3478

                     55                     56                     57
                      A                      A                      A
 Frequencies --   1132.3788              1172.8493              1187.2802
 Red. masses --      1.6144                 3.4876                 1.1325
 Frc consts  --      1.2197                 2.8266                 0.9406
 IR Inten    --     12.0405                26.2306                 0.2905

                     58                     59                     60
                      A                      A                      A
 Frequencies --   1189.6404              1223.2503              1229.0315
 Red. masses --      1.1275                 1.4161                 1.4696
 Frc consts  --      0.9402                 1.2484                 1.3079
 IR Inten    --      0.1301                28.3952                51.1254

                     61                     62                     63
                      A                      A                      A
 Frequencies --   1231.8919              1260.9769              1285.1825
 Red. masses --      1.6165                 1.3588                 4.3777
 Frc consts  --      1.4453                 1.2730                 4.2602
 IR Inten    --     23.5630                40.9837                61.8016

                     64                     65                     66
                      A                      A                      A
 Frequencies --   1319.9668              1325.4847              1344.8981
 Red. masses --      4.6694                 4.8017                 3.1245
 Frc consts  --      4.7933                 4.9704                 3.3298
 IR Inten    --     36.2281                 9.6402               534.0735

                     67                     68                     69
                      A                      A                      A
 Frequencies --   1360.7275              1369.3423              1379.2118
 Red. masses --      1.3192                 1.3830                 1.3675
 Frc consts  --      1.4392                 1.5279                 1.5327
 IR Inten    --     24.8021                 7.9276                47.3888

                     70                     71                     72
                      A                      A                      A
 Frequencies --   1452.3039              1464.0022              1489.9998
 Red. masses --      1.4697                 1.4104                 1.3502
 Frc consts  --      1.8264                 1.7811                 1.7662
 IR Inten    --     27.2422                11.4724                 7.9918

                     73                     74                     75
                      A                      A                      A
 Frequencies --   1491.1892              1493.5852              1504.5641
 Red. masses --      1.5035                 2.2272                 1.0516
 Frc consts  --      1.9698                 2.9274                 1.4025
 IR Inten    --     55.1062                48.5340                12.6173

                     76                     77                     78
                      A                      A                      A
 Frequencies --   1546.4531              1547.5742              1648.7091
 Red. masses --      2.1978                 2.1798                 4.6751
 Frc consts  --      3.0969                 3.0759                 7.4874
 IR Inten    --     28.7268                 9.2579               503.7331

                     79                     80                     81
                      A                      A                      A
 Frequencies --   1653.8622              1655.8314              1663.7973
 Red. masses --      4.4522                 5.6324                 1.3530
 Frc consts  --      7.1751                 9.0987                 2.2067
 IR Inten    --     56.4438               740.6640                48.1411

                     82                     83                     84
                      A                      A                      A
 Frequencies --   1675.1602              1677.1793              2943.9794
 Red. masses --      4.2310                 5.8085                 1.0811
 Frc consts  --      6.9952                 9.6267                 5.5207
 IR Inten    --      9.0988                 2.5232               137.7882

                     85                     86                     87
                      A                      A                      A
 Frequencies --   3087.7379              3169.9092              3187.4358
 Red. masses --      1.0337                 1.1043                 1.1057
 Frc consts  --      5.8069                 6.5379                 6.6189
 IR Inten    --     21.8099                 3.8186                11.3659

                     88                     89                     90
                      A                      A                      A
 Frequencies --   3199.6667              3201.2368              3208.0202
 Red. masses --      1.0862                 1.0861                 1.0893
 Frc consts  --      6.5517                 6.5575                 6.6048
 IR Inten    --      0.2258                 0.8962                 4.5862

                     91                     92                     93
                      A                      A                      A
 Frequencies --   3209.0806              3217.0442              3218.1851
 Red. masses --      1.0890                 1.0930                 1.0929
 Frc consts  --      6.6073                 6.6648                 6.6690
 IR Inten    --      4.9832                14.9279                33.4777

                     94                     95                     96
                      A                      A                      A
 Frequencies --   3224.8140              3227.0215              3237.8920
 Red. masses --      1.0971                 1.0970                 1.0933
 Frc consts  --      6.7223                 6.7308                 6.7531
 IR Inten    --     22.7932                16.5955                14.6482

                     97                     98                     99
                      A                      A                      A
 Frequencies --   3237.9484              3510.9527              3589.5585
 Red. masses --      1.0938                 1.0515                 1.0956
 Frc consts  --      6.7563                 7.6367                 8.3172
 IR Inten    --      0.9406                45.4811                58.0689

 - Thermochemistry -
 -------------------
 Temperature   298.150 Kelvin.  Pressure   1.00000 Atm.
 Atom     1 has atomic number  6 and mass  12.00000

 Molecular mass:   273.09204 amu.
 Principal axes and moments of inertia in atomic units:
                           1         2         3
     Eigenvalues --  4578.685435305.746627427.04755
           X            0.99875  -0.04641   0.01836
           Y            0.04576   0.99835   0.03464
           Z           -0.01994  -0.03376   0.99923
 This molecule is an asymmetric top.
 Rotational symmetry number  1.
 Warning -- assumption of classical behavior for rotation
           may cause significant error
 Rotational temperatures (Kelvin)      0.01892     0.01632     0.01166
 Rotational constants (GHZ):           0.39416     0.34015     0.24300
    1 imaginary frequencies ignored.
 Zero-point vibrational energy     748902.0 (Joules/Mol)
                                  178.99187 (Kcal/Mol)
 Warning -- explicit consideration of  24 degrees of freedom as
           vibrations may cause significant error
 Vibrational temperatures:     40.75    86.75    90.84   107.15   128.05
          (Kelvin)            150.71   186.26   207.04   238.90   318.45
                              327.45   353.23   408.00   420.18   447.73
                              459.76   474.87   523.16   601.88   614.67
                              639.42   721.90   779.05   883.79   913.08
                              918.51   938.18   966.78   975.20  1017.70
                             1046.64  1055.80  1134.19  1137.31  1248.93
                             1256.55  1272.46  1348.85  1379.68  1406.35
                             1455.93  1471.29  1471.42  1477.34  1483.92
                             1485.00  1486.29  1495.60  1531.08  1538.01
                             1542.88  1559.01  1622.37  1629.24  1687.47
                             1708.23  1711.63  1759.98  1768.30  1772.42
                             1814.26  1849.09  1899.14  1907.08  1935.01
                             1957.78  1970.18  1984.38  2089.54  2106.37
                             2143.78  2145.49  2148.94  2164.73  2225.00
                             2226.61  2372.12  2379.54  2382.37  2393.83
                             2410.18  2413.09  4235.73  4442.57  4560.79
                             4586.01  4603.61  4605.87  4615.63  4617.15
                             4628.61  4630.25  4639.79  4642.96  4658.60
                             4658.69  5051.48  5164.57

 Zero-point correction=                           0.285242 (Hartree/Particle)
 Thermal correction to Energy=                    0.302249
 Thermal correction to Enthalpy=                  0.303194
 Thermal correction to Gibbs Free Energy=         0.239698
 Sum of electronic and zero-point Energies=          -1209.208564
 Sum of electronic and thermal Energies=             -1209.191556
 Sum of electronic and thermal Enthalpies=           -1209.190612
 Sum of electronic and thermal Free Energies=        -1209.254108

                     E (Thermal)             CV                S
                      KCal/Mol        Cal/Mol-Kelvin    Cal/Mol-Kelvin
 Total                  189.664             65.148            133.638
 Electronic               0.000              0.000              0.000
 Translational            0.889              2.981             42.713
 Rotational               0.889              2.981             33.556
 Vibrational            187.887             59.187             57.370
 Vibration     1          0.593              1.984              5.944
 Vibration     2          0.597              1.973              4.448
 Vibration     3          0.597              1.972              4.357
 Vibration     4          0.599              1.966              4.032
 Vibration     5          0.602              1.957              3.682
 Vibration     6          0.605              1.945              3.364
 Vibration     7          0.612              1.924              2.954
 Vibration     8          0.616              1.909              2.751
 Vibration     9          0.624              1.884              2.480
 Vibration    10          0.648              1.809              1.948
 Vibration    11          0.651              1.799              1.898
 Vibration    12          0.660              1.770              1.763
 Vibration    13          0.682              1.704              1.512
 Vibration    14          0.687              1.689              1.462
 Vibration    15          0.700              1.652              1.356
 Vibration    16          0.705              1.636              1.312
 Vibration    17          0.713              1.615              1.260
 Vibration    18          0.737              1.547              1.107
 Vibration    19          0.781              1.430              0.898
 Vibration    20          0.789              1.411              0.868
 Vibration    21          0.804              1.373              0.813
 Vibration    22          0.857              1.246              0.654
 Vibration    23          0.897              1.158              0.562
 Vibration    24          0.974              1.002              0.426

 Optimization completed.
    -- Stationary point found.
 Normal termination of Gaussian 16 at Sun Jan 31 07:57:36 2021.
