 Gaussian 16, Revision A.03,
 Gaussian 16:  ES64L-G16RevA.03 25-Dec-2016

 ----------------------------------------------------------------------
 # wB97XD def2tzvp, opt=(ts, noeigen, calcfc, maxcycles=70, maxstep=8),
  freq=noraman, scrf=(iefpcm, solvent=water)
 ----------------------------------------------------------------------

 ------------------------
 0_iteration/TS-358-0.out
 ------------------------
 Symbolic Z-matrix:
 Charge =  0 Multiplicity = 1

 SCF Done:  E(RwB97XD) =  -3454.99267130     A.U. after   16 cycles
 SCF Done:  E(RwB97XD) =  -3454.99189129     A.U. after   13 cycles
 SCF Done:  E(RwB97XD) =  -3454.99156271     A.U. after   13 cycles
 SCF Done:  E(RwB97XD) =  -3454.99180335     A.U. after   14 cycles
 SCF Done:  E(RwB97XD) =  -3454.99175181     A.U. after   13 cycles
 SCF Done:  E(RwB97XD) =  -3454.99175183     A.U. after   13 cycles
 SCF Done:  E(RwB97XD) =  -3454.99166033     A.U. after   12 cycles
 SCF Done:  E(RwB97XD) =  -3454.99160152     A.U. after   12 cycles
 SCF Done:  E(RwB97XD) =  -3454.99164736     A.U. after   13 cycles
 SCF Done:  E(RwB97XD) =  -3454.99179742     A.U. after   13 cycles
 SCF Done:  E(RwB97XD) =  -3454.99196739     A.U. after   11 cycles
 SCF Done:  E(RwB97XD) =  -3454.99196678     A.U. after    9 cycles
 SCF Done:  E(RwB97XD) =  -3454.99195689     A.U. after   10 cycles
 SCF Done:  E(RwB97XD) =  -3454.99196282     A.U. after   10 cycles
 SCF Done:  E(RwB97XD) =  -3454.99196043     A.U. after   10 cycles
 SCF Done:  E(RwB97XD) =  -3454.99196442     A.U. after   10 cycles
 SCF Done:  E(RwB97XD) =  -3454.99196220     A.U. after    9 cycles
 SCF Done:  E(RwB97XD) =  -3454.99196344     A.U. after    9 cycles
 SCF Done:  E(RwB97XD) =  -3454.99196367     A.U. after    7 cycles
 Optimization completed.
    -- Stationary point found.
 Normal termination of Gaussian 16 at Fri Feb 12 16:22:42 2021.

 ---------------------------------------------------------------------
 #N Geom=AllCheck Guess=TCheck SCRF=Check GenChk RwB97XD/def2TZVP Freq
 ---------------------------------------------------------------------

 Structure from the checkpoint file:  "/beegfs/scratch/user/q/tla25/Gau-48995.chk"
 ------------------------
 0_iteration/TS-358-0.out
 ------------------------
 Charge =  0 Multiplicity = 1

                         Standard orientation:
 ---------------------------------------------------------------------
 Center     Atomic      Atomic             Coordinates (Angstroms)
 Number     Number       Type             X           Y           Z
 ---------------------------------------------------------------------
      1          6           0       -0.488993    0.619964   -0.633915
      2          6           0       -1.520749   -0.059077    0.171443
      3          8           0       -2.370314    0.568281    0.808287
      4          6           0        0.864782    0.668813   -0.344458
      5          6           0        0.531260    2.580964    1.564377
      6          1           0        0.730427    2.934934    2.574827
      7          1           0        0.833903    3.338898    0.845673
      8          1           0       -0.530579    2.374146    1.447897
      9          7           0        1.273069    1.345928    1.296274
     10          1           0        2.277032    1.488425    1.351971
     11          1           0        1.031253    0.623503    1.967338
     12          1           0        1.438891    1.373706   -0.930711
     13         35           0        1.938864   -0.970073   -0.185173
     14         17           0       -1.089308    2.068543   -1.476006
     15          7           0       -1.478936   -1.421810    0.230821
     16          6           0       -1.070197   -2.252416   -0.885507
     17          6           0       -2.338371   -2.085511    1.189578
     18          1           0       -0.581035   -1.644672   -1.640455
     19          1           0       -0.383727   -3.034271   -0.557355
     20          1           0       -1.951364   -2.728505   -1.328965
     21          1           0       -2.389428   -1.506997    2.108234
     22          1           0       -3.355282   -2.212555    0.802755
     23          1           0       -1.924876   -3.070781    1.406880
 ---------------------------------------------------------------------

 SCF Done:  E(RwB97XD) =  -3454.99196367     A.U. after    1 cycles

 The electronic state is 1-A.
 Alpha  occ. eigenvalues -- -483.13021-101.68099 -62.67883 -56.46992 -56.46645
 Alpha  occ. eigenvalues --  -56.46634 -19.20766 -14.50509 -14.45838 -10.39164
 Alpha  occ. eigenvalues --  -10.38334 -10.32039 -10.30519 -10.30386 -10.30329
 Alpha  occ. eigenvalues --   -9.56609  -8.81996  -7.31236  -7.30419  -7.30372
 Alpha  occ. eigenvalues --   -6.64130  -6.63030  -6.62990  -2.74515  -2.74209
 Alpha  occ. eigenvalues --   -2.74177  -2.73288  -2.73287  -1.13596  -1.05773
 Alpha  occ. eigenvalues --   -1.03131  -0.95721  -0.90535  -0.82805  -0.81267
 Alpha  occ. eigenvalues --   -0.79598  -0.78534  -0.70708  -0.64785  -0.61919
 Alpha  occ. eigenvalues --   -0.59097  -0.57687  -0.56890  -0.55922  -0.54405
 Alpha  occ. eigenvalues --   -0.52963  -0.50337  -0.49103  -0.48345  -0.48260
 Alpha  occ. eigenvalues --   -0.47347  -0.46436  -0.45656  -0.44427  -0.41592
 Alpha  occ. eigenvalues --   -0.38743  -0.37650  -0.37321  -0.34695  -0.32020
 Alpha  occ. eigenvalues --   -0.26374
 Alpha virt. eigenvalues --    0.04016   0.06867   0.09125   0.11852   0.13682
 Alpha virt. eigenvalues --    0.14016   0.14747   0.14961   0.16714   0.17204
 Alpha virt. eigenvalues --    0.17566   0.18977   0.19061   0.20134   0.21018

 Mulliken charges:
               1
     1  C   -0.170244
     2  C    0.237007
     3  O   -0.505982
     4  C   -0.061601
     5  C   -0.300729
     6  H    0.162455
     7  H    0.161177
     8  H    0.157917
     9  N   -0.271722
    10  H    0.297022
    11  H    0.292313
    12  H    0.194426
    13  Br  -0.123795
    14  Cl  -0.205840
    15  N   -0.132723
    16  C   -0.292759
    17  C   -0.285402
    18  H    0.161843
    19  H    0.144813
    20  H    0.133061
    21  H    0.139453
    22  H    0.132246
    23  H    0.137064
 Sum of Mulliken charges =  -0.00000

 Dipole moment (field-independent basis, Debye):
    X=              6.7626    Y=             -0.6991    Z=              4.3015  Tot=              8.0451
 Quadrupole moment (field-independent basis, Debye-Ang):
   XX=            -92.8170   YY=            -77.8368   ZZ=            -82.7289
   XY=             17.2767   XZ=              6.5903   YZ=              7.1225

  Exact polarizability: 186.737 -10.403 195.032   7.640   3.177 152.163
 Approx polarizability: 149.260 -10.846 156.121   4.527   1.009 130.903

 ******    1 imaginary frequencies (negative Signs) ******

                      1                      2                      3
                      A                      A                      A
 Frequencies --   -356.1643                41.4271                72.0637
 Red. masses --      6.3036                 5.6080                 7.2019
 Frc consts  --      0.4711                 0.0057                 0.0220
 IR Inten    --    673.3613                 5.3568                24.4091

                      4                      5                      6
                      A                      A                      A
 Frequencies --     79.0947               102.4522               120.3106
 Red. masses --      3.6701                 2.0746                 5.7587
 Frc consts  --      0.0135                 0.0128                 0.0491
 IR Inten    --     10.3014                 7.3267                 4.3030

                      7                      8                      9
                      A                      A                      A
 Frequencies --    145.9529               160.2365               178.5711
 Red. masses --      2.2564                 1.6672                 2.1024
 Frc consts  --      0.0283                 0.0252                 0.0395
 IR Inten    --      2.6940                 0.6820                 6.9485

                     10                     11                     12
                      A                      A                      A
 Frequencies --    191.6328               203.1096               232.5935
 Red. masses --      2.0133                 5.1690                 1.1586
 Frc consts  --      0.0436                 0.1256                 0.0369
 IR Inten    --      0.6278                16.2525                 3.6146

                     13                     14                     15
                      A                      A                      A
 Frequencies --    244.2820               276.2285               295.0950
 Red. masses --      2.3494                 3.0429                 3.9685
 Frc consts  --      0.0826                 0.1368                 0.2036
 IR Inten    --     12.4133                30.0265                24.4539

                     16                     17                     18
                      A                      A                      A
 Frequencies --    321.7313               385.6158               450.3730
 Red. masses --      5.4773                 3.1340                 3.1793
 Frc consts  --      0.3340                 0.2746                 0.3799
 IR Inten    --      6.6206                18.0686                37.9785

                     19                     20                     21
                      A                      A                      A
 Frequencies --    471.0990               593.6474               656.6772
 Red. masses --      3.0537                 6.6256                 6.6697
 Frc consts  --      0.3993                 1.3757                 1.6946
 IR Inten    --     11.0940                61.5701               298.1766

                     22                     23                     24
                      A                      A                      A
 Frequencies --    704.0243               761.2451               803.5687
 Red. masses --      2.9611                 2.6005                 4.7873
 Frc consts  --      0.8647                 0.8879                 1.8213
 IR Inten    --     29.3115                18.0072                 7.7723

                     25                     26                     27
                      A                      A                      A
 Frequencies --    882.6375              1015.7512              1033.0998
 Red. masses --      4.7198                 2.3171                 1.1269
 Frc consts  --      2.1664                 1.4085                 0.7086
 IR Inten    --     39.6053                67.8603                29.4303

                     28                     29                     30
                      A                      A                      A
 Frequencies --   1050.9329              1080.0252              1086.3872
 Red. masses --      1.6179                 1.3917                 2.0797
 Frc consts  --      1.0528                 0.9565                 1.4462
 IR Inten    --     18.1328                22.2119                81.0349

                     31                     32                     33
                      A                      A                      A
 Frequencies --   1130.0550              1159.2127              1173.2358
 Red. masses --      1.2407                 1.2323                 1.3947
 Frc consts  --      0.9335                 0.9757                 1.1311
 IR Inten    --      2.4256                13.9054                14.2582

                     34                     35                     36
                      A                      A                      A
 Frequencies --   1178.7276              1261.2672              1293.1494
 Red. masses --      1.7808                 1.3531                 2.4634
 Frc consts  --      1.4578                 1.2682                 2.4271
 IR Inten    --    216.6219                67.5377                12.4954

                     37                     38                     39
                      A                      A                      A
 Frequencies --   1317.5934              1346.3317              1394.0363
 Red. masses --      2.0166                 1.3129                 5.7790
 Frc consts  --      2.0627                 1.4021                 6.6168
 IR Inten    --     27.7001                10.1264               692.4003

                     40                     41                     42
                      A                      A                      A
 Frequencies --   1423.1492              1442.6964              1468.4916
 Red. masses --      2.0575                 1.2227                 1.1969
 Frc consts  --      2.4552                 1.4994                 1.5208
 IR Inten    --    181.8356                26.0815                41.6233

                     43                     44                     45
                      A                      A                      A
 Frequencies --   1468.6916              1478.3220              1482.4607
 Red. masses --      1.2438                 1.0708                 1.0452
 Frc consts  --      1.5807                 1.3788                 1.3534
 IR Inten    --      6.6351                 0.9991                33.6000

                     46                     47                     48
                      A                      A                      A
 Frequencies --   1495.5196              1499.6965              1508.8200
 Red. masses --      1.0389                 1.0568                 1.0311
 Frc consts  --      1.3690                 1.4003                 1.3831
 IR Inten    --     20.2432                25.0330                22.9767

                     49                     50                     51
                      A                      A                      A
 Frequencies --   1531.7519              1641.0076              1651.6614
 Red. masses --      1.4137                 1.1033                 7.8956
 Frc consts  --      1.9542                 1.7505                12.6904
 IR Inten    --    178.7677                38.4780               753.5582

                     52                     53                     54
                      A                      A                      A
 Frequencies --   3026.1827              3030.4095              3079.4940
 Red. masses --      1.0457                 1.0476                 1.0327
 Frc consts  --      5.6423                 5.6681                 5.7703
 IR Inten    --     74.9487               121.4833                30.1052

                     55                     56                     57
                      A                      A                      A
 Frequencies --   3100.2689              3109.8831              3166.1865
 Red. masses --      1.0935                 1.0922                 1.1060
 Frc consts  --      6.1925                 6.2237                 6.5322
 IR Inten    --     62.6777                25.8781                 8.4426

                     58                     59                     60
                      A                      A                      A
 Frequencies --   3170.1179              3180.8604              3181.0264
 Red. masses --      1.1013                 1.0997                 1.1060
 Frc consts  --      6.5210                 6.5556                 6.5941
 IR Inten    --     14.7478                10.8399                 1.1264

                     61                     62                     63
                      A                      A                      A
 Frequencies --   3206.6553              3503.9186              3585.9588
 Red. masses --      1.0910                 1.0509                 1.0968
 Frc consts  --      6.6096                 7.6019                 8.3095
 IR Inten    --      0.6366                47.3873                54.7871

 - Thermochemistry -
 -------------------
 Temperature   298.150 Kelvin.  Pressure   1.00000 Atm.
 Atom     1 has atomic number  6 and mass  12.00000

 Molecular mass:   241.98215 amu.
 Principal axes and moments of inertia in atomic units:
                           1         2         3
     Eigenvalues --  2608.707693088.141594248.52856
           X            0.90194   0.43184   0.00464
           Y           -0.43158   0.90088   0.04637
           Z            0.01585  -0.04383   0.99891
 This molecule is an asymmetric top.
 Rotational symmetry number  1.
 Warning -- assumption of classical behavior for rotation
           may cause significant error
 Rotational temperatures (Kelvin)      0.03320     0.02805     0.02039
 Rotational constants (GHZ):           0.69181     0.58441     0.42479
    1 imaginary frequencies ignored.
 Zero-point vibrational energy     486441.7 (Joules/Mol)
                                  116.26236 (Kcal/Mol)
 Warning -- explicit consideration of  19 degrees of freedom as
           vibrations may cause significant error
 Vibrational temperatures:     59.60   103.68   113.80   147.41   173.10
          (Kelvin)            209.99   230.54   256.92   275.72   292.23
                              334.65   351.47   397.43   424.58   462.90
                              554.82   647.99   677.81   854.13   944.81
                             1012.93  1095.26  1156.16  1269.92  1461.44
                             1486.40  1512.06  1553.92  1563.07  1625.90
                             1667.85  1688.02  1695.93  1814.68  1860.55
                             1895.72  1937.07  2005.71  2047.59  2075.72
                             2112.83  2113.12  2126.98  2132.93  2151.72
                             2157.73  2170.86  2203.85  2361.04  2376.37
                             4354.00  4360.08  4430.70  4460.60  4474.43
                             4555.44  4561.09  4576.55  4576.79  4613.66
                             5041.36  5159.39

 Zero-point correction=                           0.185276 (Hartree/Particle)
 Thermal correction to Energy=                    0.199036
 Thermal correction to Enthalpy=                  0.199980
 Thermal correction to Gibbs Free Energy=         0.143472
 Sum of electronic and zero-point Energies=          -3454.806688
 Sum of electronic and thermal Energies=             -3454.792928
 Sum of electronic and thermal Enthalpies=           -3454.791984
 Sum of electronic and thermal Free Energies=        -3454.848492

                     E (Thermal)             CV                S
                      KCal/Mol        Cal/Mol-Kelvin    Cal/Mol-Kelvin
 Total                  124.897             46.683            118.930
 Electronic               0.000              0.000              0.000
 Translational            0.889              2.981             42.352
 Rotational               0.889              2.981             31.904
 Vibrational            123.119             40.721             44.674
 Vibration     1          0.594              1.981              5.190
 Vibration     2          0.598              1.967              4.096
 Vibration     3          0.600              1.963              3.913
 Vibration     4          0.605              1.947              3.407
 Vibration     5          0.609              1.932              3.095
 Vibration     6          0.617              1.907              2.724
 Vibration     7          0.622              1.891              2.547
 Vibration     8          0.629              1.869              2.343
 Vibration     9          0.634              1.851              2.212
 Vibration    10          0.639              1.835              2.105
 Vibration    11          0.653              1.791              1.859
 Vibration    12          0.660              1.772              1.771
 Vibration    13          0.678              1.717              1.557
 Vibration    14          0.689              1.683              1.445
 Vibration    15          0.707              1.632              1.301
 Vibration    16          0.754              1.501              1.017
 Vibration    17          0.809              1.360              0.795
 Vibration    18          0.828              1.314              0.734
 Vibration    19          0.951              1.045              0.461

 Optimization completed.
    -- Stationary point found.
 Normal termination of Gaussian 16 at Fri Feb 12 16:48:27 2021.
