 Gaussian 16, Revision A.03,
 Gaussian 16:  ES64L-G16RevA.03 25-Dec-2016

 ----------------------------------------------------------------------
 # wB97XD def2tzvp, opt=(ts, noeigen, calcfc, maxcycles=70, maxstep=8),
  freq=noraman, scrf=(iefpcm, solvent=water)
 ----------------------------------------------------------------------

 ------------------------
 0_iteration/TS-391-0.out
 ------------------------
 Symbolic Z-matrix:
 Charge =  0 Multiplicity = 1

 SCF Done:  E(RwB97XD) =  -3607.43790695     A.U. after   15 cycles
 SCF Done:  E(RwB97XD) =  -3607.43762695     A.U. after   12 cycles
 SCF Done:  E(RwB97XD) =  -3607.43762546     A.U. after   12 cycles
 SCF Done:  E(RwB97XD) =  -3607.43804420     A.U. after   12 cycles
 SCF Done:  E(RwB97XD) =  -3607.43876298     A.U. after   14 cycles
 SCF Done:  E(RwB97XD) =  -3607.43919463     A.U. after   13 cycles
 SCF Done:  E(RwB97XD) =  -3607.43942468     A.U. after   12 cycles
 SCF Done:  E(RwB97XD) =  -3607.43941671     A.U. after   11 cycles
 SCF Done:  E(RwB97XD) =  -3607.43943429     A.U. after   11 cycles
 SCF Done:  E(RwB97XD) =  -3607.43938568     A.U. after   11 cycles
 SCF Done:  E(RwB97XD) =  -3607.43944281     A.U. after   11 cycles
 SCF Done:  E(RwB97XD) =  -3607.43944777     A.U. after   10 cycles
 SCF Done:  E(RwB97XD) =  -3607.43941979     A.U. after   11 cycles
 SCF Done:  E(RwB97XD) =  -3607.43944795     A.U. after   11 cycles
 SCF Done:  E(RwB97XD) =  -3607.43944900     A.U. after    9 cycles
 SCF Done:  E(RwB97XD) =  -3607.43944877     A.U. after    8 cycles
 Optimization completed.
    -- Stationary point found.
 Normal termination of Gaussian 16 at Fri Feb 12 19:47:52 2021.

 ---------------------------------------------------------------------
 #N Geom=AllCheck Guess=TCheck SCRF=Check GenChk RwB97XD/def2TZVP Freq
 ---------------------------------------------------------------------

 Structure from the checkpoint file:  "/beegfs/scratch/user/q/tla25/Gau-21738.chk"
 ------------------------
 0_iteration/TS-391-0.out
 ------------------------
 Charge =  0 Multiplicity = 1

                         Standard orientation:
 ---------------------------------------------------------------------
 Center     Atomic      Atomic             Coordinates (Angstroms)
 Number     Number       Type             X           Y           Z
 ---------------------------------------------------------------------
      1          6           0        1.134333    0.353631   -0.330765
      2          6           0       -0.103661   -0.392265   -0.173962
      3          8           0       -0.089714   -1.609822    0.002143
      4          6           0        2.375889   -0.226702   -0.441396
      5          6           0        4.312671   -1.441821    1.463236
      6          1           0        4.511049   -1.780215    2.481598
      7          1           0        4.459146   -2.274915    0.778712
      8          1           0        5.015847   -0.649573    1.210049
      9          7           0        2.951513   -0.936461    1.314426
     10          1           0        2.250890   -1.648262    1.488558
     11          1           0        2.768113   -0.156688    1.934365
     12          1           0        3.230742    0.425294   -0.544193
     13         17           0        2.619286   -1.683537   -1.394225
     14         35           0        1.166555    2.239405    0.021119
     15          7           0       -1.265566    0.332289   -0.238500
     16          6           0       -2.586778   -0.088278   -0.051670
     17          6           0       -2.964476   -1.412360    0.173658
     18          6           0       -4.306248   -1.723710    0.348468
     19          6           0       -5.285515   -0.744719    0.299607
     20          6           0       -4.908207    0.572379    0.071986
     21          6           0       -3.575992    0.898843   -0.100489
     22          1           0       -1.156184    1.318381   -0.409349
     23          1           0       -2.212676   -2.183011    0.208784
     24          1           0       -4.583204   -2.756160    0.523298
     25          1           0       -6.327938   -1.001567    0.435379
     26          1           0       -5.655654    1.354636    0.029256
     27          1           0       -3.293438    1.930830   -0.274446
 ---------------------------------------------------------------------

 SCF Done:  E(RwB97XD) =  -3607.43944877     A.U. after    1 cycles

 The electronic state is 1-A.
 Alpha  occ. eigenvalues -- -483.13321-101.70259 -62.68154 -56.47263 -56.46927
 Alpha  occ. eigenvalues --  -56.46907 -19.21577 -14.47802 -14.46938 -10.39849
 Alpha  occ. eigenvalues --  -10.39537 -10.34048 -10.31754 -10.31653 -10.29152
 Alpha  occ. eigenvalues --  -10.29003 -10.28996 -10.28384 -10.28372  -9.58830
 Alpha  occ. eigenvalues --   -8.82266  -7.33490  -7.32618  -7.32557  -6.64393
 Alpha  occ. eigenvalues --   -6.63318  -6.63253  -2.74785  -2.74485  -2.74431
 Alpha  occ. eigenvalues --   -2.73562  -2.73561  -1.14613  -1.04686  -1.03533
 Alpha  occ. eigenvalues --   -0.97729  -0.95781  -0.91875  -0.85316  -0.85105
 Alpha  occ. eigenvalues --   -0.82217  -0.78540  -0.75630  -0.71937  -0.69494
 Alpha  occ. eigenvalues --   -0.65612  -0.62992  -0.62795  -0.59047  -0.57807
 Alpha  occ. eigenvalues --   -0.56157  -0.55202  -0.54443  -0.53548  -0.52623
 Alpha  occ. eigenvalues --   -0.52265  -0.51684  -0.50486  -0.47936  -0.47731
 Alpha  occ. eigenvalues --   -0.47239  -0.45865  -0.44843  -0.43009  -0.40866
 Alpha  occ. eigenvalues --   -0.40655  -0.39722  -0.39170  -0.37757  -0.34302
 Alpha  occ. eigenvalues --   -0.33857  -0.30643  -0.27645
 Alpha virt. eigenvalues --    0.02386   0.05276   0.05798   0.07771   0.09604
 Alpha virt. eigenvalues --    0.11659   0.12874   0.14078   0.14576   0.15823
 Alpha virt. eigenvalues --    0.16674   0.17484   0.17821   0.18068   0.18476

 Mulliken charges:
               1
     1  C   -0.210599
     2  C    0.416198
     3  O   -0.516764
     4  C   -0.019112
     5  C   -0.265935
     6  H    0.148965
     7  H    0.145241
     8  H    0.149380
     9  N   -0.370739
    10  H    0.282211
    11  H    0.280402
    12  H    0.197783
    13  Cl  -0.092552
    14  Br  -0.142375
    15  N   -0.276651
    16  C    0.302380
    17  C   -0.295529
    18  C   -0.108316
    19  C   -0.195029
    20  C   -0.098491
    21  C   -0.306430
    22  H    0.243440
    23  H    0.162216
    24  H    0.142139
    25  H    0.141340
    26  H    0.144268
    27  H    0.142559
 Sum of Mulliken charges =  -0.00000

 Dipole moment (field-independent basis, Debye):
    X=              4.9994    Y=              1.5457    Z=              4.0447  Tot=              6.6139
 Quadrupole moment (field-independent basis, Debye-Ang):
   XX=            -81.1791   YY=           -107.6317   ZZ=           -107.1546
   XY=             -7.6564   XZ=             12.1461   YZ=             -5.7504

  Exact polarizability: 330.649 -19.069 256.942   6.515  -4.918 165.562
 Approx polarizability: 232.417  -9.790 219.051   1.945  -3.342 146.342

 ******    1 imaginary frequencies (negative Signs) ******

                      1                      2                      3
                      A                      A                      A
 Frequencies --   -349.8246                16.9553                23.3828
 Red. masses --      6.8002                 4.0128                 3.6367
 Frc consts  --      0.4903                 0.0007                 0.0012
 IR Inten    --   1094.1833                 1.3032                 6.9415

                      4                      5                      6
                      A                      A                      A
 Frequencies --     37.4327                66.7028                78.0633
 Red. masses --      5.8982                 6.0550                 2.8709
 Frc consts  --      0.0049                 0.0159                 0.0103
 IR Inten    --      3.9082                 5.3542                11.2578

                      7                      8                      9
                      A                      A                      A
 Frequencies --     86.9726               109.9702               150.8046
 Red. masses --      4.1440                 5.0777                 6.2547
 Frc consts  --      0.0185                 0.0362                 0.0838
 IR Inten    --      3.3205                 7.7304                 4.4212

                     10                     11                     12
                      A                      A                      A
 Frequencies --    169.3615               180.3486               205.2386
 Red. masses --      1.3564                 5.9641                 5.6273
 Frc consts  --      0.0229                 0.1143                 0.1397
 IR Inten    --      1.3416                20.0889                34.6722

                     13                     14                     15
                      A                      A                      A
 Frequencies --    240.2502               249.9755               329.4781
 Red. masses --      5.3841                 4.4359                 5.3158
 Frc consts  --      0.1831                 0.1633                 0.3400
 IR Inten    --      2.6319                 6.3414                 6.7376

                     16                     17                     18
                      A                      A                      A
 Frequencies --    347.7135               371.9332               423.1181
 Red. masses --      8.0320                 6.4202                 2.9850
 Frc consts  --      0.5722                 0.5233                 0.3149
 IR Inten    --     16.9028                39.7484                 0.3445

                     19                     20                     21
                      A                      A                      A
 Frequencies --    440.0315               492.7795               528.3336
 Red. masses --      8.4437                 6.3065                 2.7483
 Frc consts  --      0.9633                 0.9023                 0.4520
 IR Inten    --     98.1226                25.4347                42.8010

                     22                     23                     24
                      A                      A                      A
 Frequencies --    568.9002               620.2654               635.7297
 Red. masses --      1.1552                 1.8339                 6.4125
 Frc consts  --      0.2203                 0.4157                 1.5269
 IR Inten    --     96.8712                13.4428                 1.7652

                     25                     26                     27
                      A                      A                      A
 Frequencies --    657.1693               718.7159               764.3371
 Red. masses --      3.2366                 1.8716                 9.3153
 Frc consts  --      0.8235                 0.5696                 3.2064
 IR Inten    --      8.0858                65.9038                60.9979

                     28                     29                     30
                      A                      A                      A
 Frequencies --    773.2304               784.1511               858.1221
 Red. masses --      5.7353                 1.8377                 6.0964
 Frc consts  --      2.0203                 0.6658                 2.6450
 IR Inten    --    189.5060                93.8230                26.3507

                     31                     32                     33
                      A                      A                      A
 Frequencies --    861.7998               873.5015               934.6062
 Red. masses --      1.2738                 5.5381                 1.4619
 Frc consts  --      0.5574                 2.4896                 0.7524
 IR Inten    --      0.5947                20.5532                13.2925

                     34                     35                     36
                      A                      A                      A
 Frequencies --    999.6919              1002.1020              1019.1874
 Red. masses --      1.1395                 1.3492                 1.3093
 Frc consts  --      0.6709                 0.7983                 0.8013
 IR Inten    --     16.3220                 0.0413                 0.7074

                     37                     38                     39
                      A                      A                      A
 Frequencies --   1020.2787              1021.9427              1039.5216
 Red. masses --      4.1186                 1.2116                 3.5601
 Frc consts  --      2.5260                 0.7456                 2.2666
 IR Inten    --     21.1949               126.0777                25.6643

                     40                     41                     42
                      A                      A                      A
 Frequencies --   1065.1665              1072.3348              1106.8112
 Red. masses --      2.0640                 3.3657                 1.2599
 Frc consts  --      1.3797                 2.2803                 0.9093
 IR Inten    --      9.6076               308.4763                71.8870

                     43                     44                     45
                      A                      A                      A
 Frequencies --   1124.5304              1183.0437              1207.1316
 Red. masses --      1.5303                 1.1258                 1.4232
 Frc consts  --      1.1402                 0.9284                 1.2218
 IR Inten    --     17.3119                 4.8962                16.3774

                     46                     47                     48
                      A                      A                      A
 Frequencies --   1210.8834              1226.4097              1276.3782
 Red. masses --      1.1649                 2.2385                 2.6421
 Frc consts  --      1.0063                 1.9837                 2.5361
 IR Inten    --     47.5734               111.8096               324.5024

                     49                     50                     51
                      A                      A                      A
 Frequencies --   1328.8132              1342.0897              1351.7400
 Red. masses --      1.6407                 1.3365                 3.8843
 Frc consts  --      1.7069                 1.4183                 4.1816
 IR Inten    --      9.0954                 4.0949               655.3853

                     52                     53                     54
                      A                      A                      A
 Frequencies --   1364.7586              1442.5522              1464.9328
 Red. masses --      1.4824                 3.1634                 1.4333
 Frc consts  --      1.6268                 3.8785                 1.8123
 IR Inten    --     61.6478               759.1725               148.0751

                     55                     56                     57
                      A                      A                      A
 Frequencies --   1483.7994              1491.2957              1504.0000
 Red. masses --      2.1967                 1.0402                 1.0338
 Frc consts  --      2.8495                 1.3630                 1.3778
 IR Inten    --    328.0169                15.3570                21.7673

                     58                     59                     60
                      A                      A                      A
 Frequencies --   1547.9687              1581.9557              1646.0420
 Red. masses --      2.4324                 2.0656                 1.0889
 Frc consts  --      3.4341                 3.0457                 1.7382
 IR Inten    --    166.4795               849.8834                47.4065

                     61                     62                     63
                      A                      A                      A
 Frequencies --   1662.6085              1672.3691              1690.3435
 Red. masses --      5.8644                 4.4107                 6.5314
 Frc consts  --      9.5511                 7.2680                10.9953
 IR Inten    --    177.5935                30.9364               385.7714

                     64                     65                     66
                      A                      A                      A
 Frequencies --   3063.2250              3139.5773              3166.7139
 Red. masses --      1.0356                 1.1025                 1.1052
 Frc consts  --      5.7253                 6.4026                 6.5299
 IR Inten    --     64.4454                18.4611                14.6423

                     67                     68                     69
                      A                      A                      A
 Frequencies --   3188.8537              3197.8089              3207.9101
 Red. masses --      1.0880                 1.0884                 1.0932
 Frc consts  --      6.5184                 6.5574                 6.6281
 IR Inten    --     12.3486                 2.2612                29.0734

                     70                     71                     72
                      A                      A                      A
 Frequencies --   3222.4129              3230.6455              3275.3825
 Red. masses --      1.0980                 1.0928                 1.0922
 Frc consts  --      6.7179                 6.7198                 6.9037
 IR Inten    --     21.9888                 1.3185                 5.8613

                     73                     74                     75
                      A                      A                      A
 Frequencies --   3523.7697              3608.9388              3633.4150
 Red. masses --      1.0509                 1.0965                 1.0765
 Frc consts  --      7.6885                 8.4146                 8.3730
 IR Inten    --     23.4311                48.1173                88.8719

 - Thermochemistry -
 -------------------
 Temperature   298.150 Kelvin.  Pressure   1.00000 Atm.
 Atom     1 has atomic number  6 and mass  12.00000

 Molecular mass:   289.98215 amu.
 Principal axes and moments of inertia in atomic units:
                           1         2         3
     Eigenvalues --  2961.067828302.96647**********
           X            0.99967  -0.02192   0.01321
           Y            0.02232   0.99926  -0.03121
           Z           -0.01252   0.03149   0.99943
 This molecule is an asymmetric top.
 Rotational symmetry number  1.
 Warning -- assumption of classical behavior for rotation
           may cause significant error
 Rotational temperatures (Kelvin)      0.02925     0.01043     0.00844
 Rotational constants (GHZ):           0.60949     0.21736     0.17583
    1 imaginary frequencies ignored.
 Zero-point vibrational energy     551530.6 (Joules/Mol)
                                  131.81897 (Kcal/Mol)
 Warning -- explicit consideration of  22 degrees of freedom as
           vibrations may cause significant error
 Vibrational temperatures:     24.39    33.64    53.86    95.97   112.32
          (Kelvin)            125.13   158.22   216.97   243.67   259.48
                              295.29   345.67   359.66   474.05   500.28
                              535.13   608.77   633.11   709.00   760.15
                              818.52   892.42   914.67   945.52  1034.07
                             1099.71  1112.51  1128.22  1234.65  1239.94
                             1256.77  1344.69  1438.33  1441.80  1466.38
                             1467.95  1470.35  1495.64  1532.54  1542.85
                             1592.45  1617.95  1702.14  1736.79  1742.19
                             1764.53  1836.42  1911.87  1930.97  1944.85
                             1963.58  2075.51  2107.71  2134.86  2145.64
                             2163.92  2227.18  2276.08  2368.29  2392.12
                             2406.17  2432.03  4407.30  4517.15  4556.19
                             4588.05  4600.93  4615.47  4636.33  4648.18
                             4712.54  5069.92  5192.46  5227.67

 Zero-point correction=                           0.210067 (Hartree/Particle)
 Thermal correction to Energy=                    0.225742
 Thermal correction to Enthalpy=                  0.226686
 Thermal correction to Gibbs Free Energy=         0.162734
 Sum of electronic and zero-point Energies=          -3607.229382
 Sum of electronic and thermal Energies=             -3607.213707
 Sum of electronic and thermal Enthalpies=           -3607.212763
 Sum of electronic and thermal Free Energies=        -3607.276715

                     E (Thermal)             CV                S
                      KCal/Mol        Cal/Mol-Kelvin    Cal/Mol-Kelvin
 Total                  141.655             55.160            134.598
 Electronic               0.000              0.000              0.000
 Translational            0.889              2.981             42.892
 Rotational               0.889              2.981             33.889
 Vibrational            139.877             49.199             57.818
 Vibration     1          0.593              1.986              6.962
 Vibration     2          0.593              1.985              6.324
 Vibration     3          0.594              1.982              5.391
 Vibration     4          0.598              1.970              4.248
 Vibration     5          0.599              1.964              3.939
 Vibration     6          0.601              1.958              3.727
 Vibration     7          0.606              1.941              3.269
 Vibration     8          0.618              1.902              2.662
 Vibration     9          0.625              1.880              2.443
 Vibration    10          0.629              1.866              2.325
 Vibration    11          0.640              1.832              2.086
 Vibration    12          0.657              1.779              1.801
 Vibration    13          0.663              1.763              1.731
 Vibration    14          0.712              1.617              1.263
 Vibration    15          0.725              1.580              1.177
 Vibration    16          0.744              1.530              1.072
 Vibration    17          0.785              1.420              0.881
 Vibration    18          0.800              1.383              0.827
 Vibration    19          0.848              1.266              0.676
 Vibration    20          0.883              1.187              0.591
 Vibration    21          0.925              1.099              0.506
 Vibration    22          0.980              0.989              0.416

 Optimization completed.
    -- Stationary point found.
 Normal termination of Gaussian 16 at Fri Feb 12 20:33:04 2021.
