 Gaussian 16, Revision A.03,
 Gaussian 16:  ES64L-G16RevA.03 25-Dec-2016

 ----------------------------------------------------------------------
 # wB97XD def2tzvp, opt=(ts, noeigen, calcfc, maxcycles=70, maxstep=8),
  freq=noraman, scrf=(iefpcm, solvent=water)
 ----------------------------------------------------------------------

 ------------------------
 0_iteration/TS-342-0.out
 ------------------------
 Symbolic Z-matrix:
 Charge =  0 Multiplicity = 1

 SCF Done:  E(RwB97XD) =  -3034.70436234     A.U. after   14 cycles
 SCF Done:  E(RwB97XD) =  -3034.70430174     A.U. after   12 cycles
 SCF Done:  E(RwB97XD) =  -3034.70437653     A.U. after   11 cycles
 SCF Done:  E(RwB97XD) =  -3034.70460705     A.U. after   12 cycles
 SCF Done:  E(RwB97XD) =  -3034.70484302     A.U. after   12 cycles
 SCF Done:  E(RwB97XD) =  -3034.70521398     A.U. after   12 cycles
 SCF Done:  E(RwB97XD) =  -3034.70535872     A.U. after   12 cycles
 SCF Done:  E(RwB97XD) =  -3034.70543030     A.U. after   12 cycles
 SCF Done:  E(RwB97XD) =  -3034.70545182     A.U. after   10 cycles
 SCF Done:  E(RwB97XD) =  -3034.70544646     A.U. after   11 cycles
 SCF Done:  E(RwB97XD) =  -3034.70545557     A.U. after   10 cycles
 SCF Done:  E(RwB97XD) =  -3034.70546189     A.U. after   10 cycles
 SCF Done:  E(RwB97XD) =  -3034.70546206     A.U. after    8 cycles
 Optimization completed.
    -- Stationary point found.
 Normal termination of Gaussian 16 at Fri Feb 12 17:28:57 2021.

 ---------------------------------------------------------------------
 #N Geom=AllCheck Guess=TCheck SCRF=Check GenChk RwB97XD/def2TZVP Freq
 ---------------------------------------------------------------------

 Structure from the checkpoint file:  "/beegfs/scratch/user/q/tla25/Gau-21768.chk"
 ------------------------
 0_iteration/TS-342-0.out
 ------------------------
 Charge =  0 Multiplicity = 1

                         Standard orientation:
 ---------------------------------------------------------------------
 Center     Atomic      Atomic             Coordinates (Angstroms)
 Number     Number       Type             X           Y           Z
 ---------------------------------------------------------------------
      1          6           0        0.529210    0.481377    0.826042
      2          6           0        1.276407    0.220703   -0.393294
      3          8           0        0.735811    0.274190   -1.516907
      4          6           0       -0.839013    0.333757    0.808313
      5          6           0       -3.030727    1.693163   -0.702383
      6          1           0       -3.247184    2.513973   -1.388874
      7          1           0       -3.352632    0.758891   -1.156859
      8          1           0       -3.587996    1.846512    0.221019
      9          7           0       -1.606532    1.611631   -0.398686
     10          1           0       -1.022802    1.365661   -1.197956
     11          1           0       -1.254658    2.475474   -0.004284
     12          1           0       -1.397600    0.609619    1.692126
     13         35           0       -1.672521   -1.285605    0.080163
     14          6           0        1.136595    1.254213    1.981757
     15          1           0        0.408284    1.951148    2.403398
     16          1           0        1.487508    0.623754    2.804738
     17          1           0        1.989442    1.850191    1.649730
     18          7           0        2.618396   -0.020999   -0.306347
     19          6           0        3.245315   -0.604125    0.860926
     20          6           0        3.417751   -0.032178   -1.510866
     21          1           0        2.491294   -0.930475    1.571557
     22          1           0        3.823710   -1.481098    0.558576
     23          1           0        3.922104    0.097335    1.356776
     24          1           0        2.992876    0.648867   -2.243277
     25          1           0        4.432246    0.288656   -1.267973
     26          1           0        3.470895   -1.031743   -1.956861
 ---------------------------------------------------------------------

 SCF Done:  E(RwB97XD) =  -3034.70546206     A.U. after    1 cycles

 The electronic state is 1-A.
 Alpha  occ. eigenvalues -- -483.11909 -62.66769 -56.45868 -56.45537 -56.45527
 Alpha  occ. eigenvalues --  -19.19693 -14.47230 -14.44942 -10.37175 -10.36838
 Alpha  occ. eigenvalues --  -10.31300 -10.30507 -10.30098 -10.27266 -10.25428
 Alpha  occ. eigenvalues --   -8.80883  -6.62983  -6.61936  -6.61899  -2.73375
 Alpha  occ. eigenvalues --   -2.73082  -2.73052  -2.72205  -2.72205  -1.12204
 Alpha  occ. eigenvalues --   -1.02895  -1.02220  -0.91737  -0.86045  -0.81242
 Alpha  occ. eigenvalues --   -0.79152  -0.78369  -0.75664  -0.69086  -0.62786
 Alpha  occ. eigenvalues --   -0.61473  -0.57217  -0.56163  -0.55596  -0.54909
 Alpha  occ. eigenvalues --   -0.53100  -0.52200  -0.50197  -0.49203  -0.48363
 Alpha  occ. eigenvalues --   -0.47697  -0.47259  -0.45958  -0.44922  -0.44588
 Alpha  occ. eigenvalues --   -0.43703  -0.43191  -0.36857  -0.36365  -0.33398
 Alpha  occ. eigenvalues --   -0.31321  -0.25775
 Alpha virt. eigenvalues --    0.05478   0.06957   0.10558   0.12086   0.13898
 Alpha virt. eigenvalues --    0.15202   0.15437   0.16190   0.17218   0.17464
 Alpha virt. eigenvalues --    0.18438   0.18838   0.19491   0.19571   0.20227

 Mulliken charges:
               1
     1  C   -0.264242
     2  C    0.326383
     3  O   -0.584211
     4  C   -0.027791
     5  C   -0.267660
     6  H    0.146415
     7  H    0.144362
     8  H    0.147547
     9  N   -0.316928
    10  H    0.273211
    11  H    0.272343
    12  H    0.184978
    13  Br  -0.167996
    14  C   -0.373782
    15  H    0.133118
    16  H    0.119679
    17  H    0.129862
    18  N   -0.117620
    19  C   -0.293803
    20  C   -0.293724
    21  H    0.150612
    22  H    0.141389
    23  H    0.134912
    24  H    0.136568
    25  H    0.137043
    26  H    0.129335
 Sum of Mulliken charges =  -0.00000

 Dipole moment (field-independent basis, Debye):
    X=             -0.7876    Y=              4.6788    Z=              2.3962  Tot=              5.3154
 Quadrupole moment (field-independent basis, Debye-Ang):
   XX=            -65.4882   YY=            -74.3296   ZZ=            -83.8366
   XY=            -10.7572   XZ=              2.4272   YZ=              0.2702

  Exact polarizability: 228.340  -9.533 163.302  12.107   2.104 159.819
 Approx polarizability: 164.199  -4.478 135.025   9.083   1.977 135.983

 ******    1 imaginary frequencies (negative Signs) ******

                      1                      2                      3
                      A                      A                      A
 Frequencies --   -408.2272                55.7355                64.6479
 Red. masses --      7.0178                 4.4308                 3.1489
 Frc consts  --      0.6891                 0.0081                 0.0078
 IR Inten    --    907.3981                 5.5631                 9.0220

                      4                      5                      6
                      A                      A                      A
 Frequencies --     92.9313               102.9412               119.4143
 Red. masses --      2.3381                 1.3040                 1.6989
 Frc consts  --      0.0119                 0.0081                 0.0143
 IR Inten    --      0.5500                 2.4608                 3.0174

                      7                      8                      9
                      A                      A                      A
 Frequencies --    135.9766               144.5029               150.2897
 Red. masses --      1.9100                 3.0071                 2.0031
 Frc consts  --      0.0208                 0.0370                 0.0267
 IR Inten    --      2.4441                 9.4503                 0.4888

                     10                     11                     12
                      A                      A                      A
 Frequencies --    182.2170               190.7535               201.6186
 Red. masses --      1.8583                 1.3048                 2.3823
 Frc consts  --      0.0364                 0.0280                 0.0571
 IR Inten    --      2.4963                 5.1614                29.4859

                     13                     14                     15
                      A                      A                      A
 Frequencies --    237.9527               282.7291               289.0000
 Red. masses --      2.1385                 2.5402                 2.8027
 Frc consts  --      0.0713                 0.1196                 0.1379
 IR Inten    --     28.3391                28.0715                 5.1639

                     16                     17                     18
                      A                      A                      A
 Frequencies --    319.5066               346.9702               398.4178
 Red. masses --      3.4378                 4.8636                 2.9703
 Frc consts  --      0.2068                 0.3450                 0.2778
 IR Inten    --      6.6720                67.0430                11.8615

                     19                     20                     21
                      A                      A                      A
 Frequencies --    452.4289               541.1228               605.2984
 Red. masses --      3.4691                 5.5173                 3.8812
 Frc consts  --      0.4184                 0.9519                 0.8378
 IR Inten    --    102.1199                36.2042                49.5724

                     22                     23                     24
                      A                      A                      A
 Frequencies --    635.8096               724.4939               763.0145
 Red. masses --      2.2470                 2.7939                 2.9375
 Frc consts  --      0.5352                 0.8640                 1.0076
 IR Inten    --     52.3342                22.1095               111.6971

                     25                     26                     27
                      A                      A                      A
 Frequencies --    800.7187               976.6193              1014.5746
 Red. masses --      4.8753                 2.9458                 1.2964
 Frc consts  --      1.8417                 1.6554                 0.7862
 IR Inten    --     93.7185                14.7348               122.1217

                     28                     29                     30
                      A                      A                      A
 Frequencies --   1025.1525              1043.0948              1060.5772
 Red. masses --      1.2003                 1.3040                 1.3193
 Frc consts  --      0.7432                 0.8359                 0.8743
 IR Inten    --     16.0052                63.0787               111.0292

                     31                     32                     33
                      A                      A                      A
 Frequencies --   1081.7787              1086.8804              1118.5227
 Red. masses --      2.2036                 1.5772                 1.1941
 Frc consts  --      1.5193                 1.0977                 0.8802
 IR Inten    --    301.9744                78.2171                52.8184

                     34                     35                     36
                      A                      A                      A
 Frequencies --   1134.1802              1142.2134              1168.6932
 Red. masses --      1.2608                 2.1785                 1.4058
 Frc consts  --      0.9556                 1.6745                 1.1313
 IR Inten    --      4.6548                45.2941                13.0267

                     37                     38                     39
                      A                      A                      A
 Frequencies --   1199.6671              1208.9327              1306.0990
 Red. masses --      1.5389                 1.3899                 3.3526
 Frc consts  --      1.3049                 1.1968                 3.3696
 IR Inten    --    118.1395                44.9688                15.3143

                     40                     41                     42
                      A                      A                      A
 Frequencies --   1333.4848              1340.7178              1412.7506
 Red. masses --      2.7895                 1.3185                 1.4334
 Frc consts  --      2.9224                 1.3963                 1.6856
 IR Inten    --     31.8542                 7.6625                11.8011

                     43                     44                     45
                      A                      A                      A
 Frequencies --   1423.8086              1442.5506              1449.7941
 Red. masses --      2.4303                 1.2663                 1.6016
 Frc consts  --      2.9028                 1.5525                 1.9835
 IR Inten    --    952.8618                35.1579                37.7659

                     46                     47                     48
                      A                      A                      A
 Frequencies --   1463.7005              1475.0628              1479.2484
 Red. masses --      1.3363                 1.2368                 1.0460
 Frc consts  --      1.6868                 1.5855                 1.3485
 IR Inten    --     63.6833                43.2845                 4.6039

                     49                     50                     51
                      A                      A                      A
 Frequencies --   1484.9339              1491.3201              1494.1857
 Red. masses --      1.0875                 1.0414                 1.0677
 Frc consts  --      1.4129                 1.3646                 1.4045
 IR Inten    --      8.1540                16.4605                79.1110

                     52                     53                     54
                      A                      A                      A
 Frequencies --   1501.9555              1503.7062              1510.8381
 Red. masses --      1.0308                 1.0641                 1.1281
 Frc consts  --      1.3700                 1.4176                 1.5172
 IR Inten    --     23.3085                21.5973               130.8651

                     55                     56                     57
                      A                      A                      A
 Frequencies --   1537.4648              1613.2886              1658.4298
 Red. masses --      1.5005                 6.7872                 1.0925
 Frc consts  --      2.0898                10.4079                 1.7704
 IR Inten    --    192.1766               688.7882                51.4436

                     58                     59                     60
                      A                      A                      A
 Frequencies --   3022.5554              3023.2099              3035.0481
 Red. masses --      1.0420                 1.0457                 1.0397
 Frc consts  --      5.6088                 5.6311                 5.6425
 IR Inten    --    151.5196                60.8208               142.0961

                     61                     62                     63
                      A                      A                      A
 Frequencies --   3059.8416              3078.3702              3087.4820
 Red. masses --      1.0370                 1.0965                 1.1018
 Frc consts  --      5.7203                 6.1223                 6.1884
 IR Inten    --     66.2953                44.2079                76.3781

                     64                     65                     66
                      A                      A                      A
 Frequencies --   3098.6778              3108.9312              3135.3133
 Red. masses --      1.0940                 1.1011                 1.1017
 Frc consts  --      6.1890                 6.2707                 6.3810
 IR Inten    --     30.7931                35.5454                23.2377

                     67                     68                     69
                      A                      A                      A
 Frequencies --   3169.7158              3170.6226              3173.2988
 Red. masses --      1.1039                 1.0993                 1.0974
 Frc consts  --      6.5347                 6.5110                 6.5109
 IR Inten    --     15.3836                13.6587                13.7367

                     70                     71                     72
                      A                      A                      A
 Frequencies --   3215.6808              3453.1409              3585.5376
 Red. masses --      1.0925                 1.0605                 1.0882
 Frc consts  --      6.6559                 7.4508                 8.2429
 IR Inten    --      5.9931               103.1225                62.7414

 - Thermochemistry -
 -------------------
 Temperature   298.150 Kelvin.  Pressure   1.00000 Atm.
 Atom     1 has atomic number  6 and mass  12.00000

 Molecular mass:   222.03677 amu.
 Principal axes and moments of inertia in atomic units:
                           1         2         3
     Eigenvalues --  1584.990463911.939764160.37044
           X            0.99788  -0.06445   0.00890
           Y            0.06391   0.99662   0.05153
           Z           -0.01219  -0.05086   0.99863
 This molecule is an asymmetric top.
 Rotational symmetry number  1.
 Warning -- assumption of classical behavior for rotation
           may cause significant error
 Rotational temperatures (Kelvin)      0.05465     0.02214     0.02082
 Rotational constants (GHZ):           1.13864     0.46134     0.43379
    1 imaginary frequencies ignored.
 Zero-point vibrational energy     582821.5 (Joules/Mol)
                                  139.29768 (Kcal/Mol)
 Warning -- explicit consideration of  20 degrees of freedom as
           vibrations may cause significant error
 Vibrational temperatures:     80.19    93.01   133.71   148.11   171.81
          (Kelvin)            195.64   207.91   216.23   262.17   274.45
                              290.08   342.36   406.78   415.81   459.70
                              499.21   573.23   650.94   778.56   870.89
                              914.79  1042.39  1097.81  1152.06  1405.14
                             1459.75  1474.97  1500.78  1525.93  1556.44
                             1563.78  1609.30  1631.83  1643.39  1681.49
                             1726.05  1739.38  1879.19  1918.59  1928.99
                             2032.63  2048.54  2075.51  2085.93  2105.94
                             2122.29  2128.31  2136.49  2145.68  2149.80
                             2160.98  2163.50  2173.76  2212.07  2321.16
                             2386.11  4348.78  4349.72  4366.76  4402.43
                             4429.09  4442.20  4458.31  4473.06  4511.02
                             4560.51  4561.82  4565.67  4626.65  4968.30
                             5158.79

 Zero-point correction=                           0.221985 (Hartree/Particle)
 Thermal correction to Energy=                    0.236238
 Thermal correction to Enthalpy=                  0.237182
 Thermal correction to Gibbs Free Energy=         0.180184
 Sum of electronic and zero-point Energies=          -3034.483477
 Sum of electronic and thermal Energies=             -3034.469224
 Sum of electronic and thermal Enthalpies=           -3034.468280
 Sum of electronic and thermal Free Energies=        -3034.525278

                     E (Thermal)             CV                S
                      KCal/Mol        Cal/Mol-Kelvin    Cal/Mol-Kelvin
 Total                  148.241             48.927            119.961
 Electronic               0.000              0.000              0.000
 Translational            0.889              2.981             42.096
 Rotational               0.889              2.981             31.623
 Vibrational            146.464             42.965             46.242
 Vibration     1          0.596              1.975              4.603
 Vibration     2          0.597              1.971              4.310
 Vibration     3          0.602              1.954              3.597
 Vibration     4          0.605              1.947              3.398
 Vibration     5          0.609              1.933              3.110
 Vibration     6          0.614              1.917              2.860
 Vibration     7          0.616              1.909              2.743
 Vibration     8          0.618              1.902              2.669
 Vibration     9          0.630              1.864              2.306
 Vibration    10          0.634              1.853              2.220
 Vibration    11          0.639              1.838              2.118
 Vibration    12          0.656              1.783              1.818
 Vibration    13          0.682              1.706              1.517
 Vibration    14          0.686              1.694              1.480
 Vibration    15          0.705              1.636              1.313
 Vibration    16          0.725              1.581              1.180
 Vibration    17          0.765              1.474              0.968
 Vibration    18          0.811              1.356              0.788
 Vibration    19          0.896              1.159              0.563
 Vibration    20          0.964              1.021              0.441

 Optimization completed.
    -- Stationary point found.
 Normal termination of Gaussian 16 at Fri Feb 12 17:57:16 2021.
