 Gaussian 16, Revision A.03,
 Gaussian 16:  ES64L-G16RevA.03 25-Dec-2016

 ----------------------------------------------------------------------
 # wB97XD def2tzvp, opt=(ts, noeigen, calcfc, maxcycles=70, maxstep=3),
  freq=noraman, scrf=(iefpcm, solvent=water)
 ----------------------------------------------------------------------

 ------------------------
 0_iteration/TS-357-0.out
 ------------------------
 Symbolic Z-matrix:
 Charge =  0 Multiplicity = 1

 SCF Done:  E(RwB97XD) =  -3415.70247315     A.U. after   15 cycles
 SCF Done:  E(RwB97XD) =  -3415.70204499     A.U. after   12 cycles
 SCF Done:  E(RwB97XD) =  -3415.70166580     A.U. after   12 cycles
 SCF Done:  E(RwB97XD) =  -3415.70133366     A.U. after   12 cycles
 SCF Done:  E(RwB97XD) =  -3415.70108408     A.U. after   12 cycles
 SCF Done:  E(RwB97XD) =  -3415.70086764     A.U. after   12 cycles
 SCF Done:  E(RwB97XD) =  -3415.70068856     A.U. after   12 cycles
 SCF Done:  E(RwB97XD) =  -3415.70056489     A.U. after   12 cycles
 SCF Done:  E(RwB97XD) =  -3415.70052128     A.U. after   12 cycles
 SCF Done:  E(RwB97XD) =  -3415.70048305     A.U. after   12 cycles
 SCF Done:  E(RwB97XD) =  -3415.70109990     A.U. after   10 cycles
 SCF Done:  E(RwB97XD) =  -3415.70110273     A.U. after   10 cycles
 SCF Done:  E(RwB97XD) =  -3415.70110290     A.U. after    9 cycles
 SCF Done:  E(RwB97XD) =  -3415.70108152     A.U. after   11 cycles
 SCF Done:  E(RwB97XD) =  -3415.70110300     A.U. after   12 cycles
 SCF Done:  E(RwB97XD) =  -3415.70110066     A.U. after   10 cycles
 SCF Done:  E(RwB97XD) =  -3415.70110310     A.U. after   10 cycles
 SCF Done:  E(RwB97XD) =  -3415.70110307     A.U. after    8 cycles
 SCF Done:  E(RwB97XD) =  -3415.70110311     A.U. after    8 cycles
 Optimization completed.
    -- Stationary point found.
 Normal termination of Gaussian 16 at Sun Apr 11 21:30:29 2021.

 ---------------------------------------------------------------------
 #N Geom=AllCheck Guess=TCheck SCRF=Check GenChk RwB97XD/def2TZVP Freq
 ---------------------------------------------------------------------

 Structure from the checkpoint file:  "/beegfs/scratch/user/q/tla25/Gau-454064.chk"
 ------------------------
 0_iteration/TS-357-0.out
 ------------------------
 Charge =  0 Multiplicity = 1

                         Standard orientation:
 ---------------------------------------------------------------------
 Center     Atomic      Atomic             Coordinates (Angstroms)
 Number     Number       Type             X           Y           Z
 ---------------------------------------------------------------------
      1          6           0       -0.523614    0.388848   -0.516428
      2          6           0       -1.306590   -0.574731    0.243562
      3          8           0       -0.783479   -1.251028    1.137783
      4          6           0        0.832056    0.541067   -0.415515
      5          6           0        0.486127    2.383167    1.709662
      6          1           0        0.584255    2.656061    2.760864
      7          1           0        0.739388    3.240894    1.089311
      8          1           0       -0.548885    2.100457    1.513789
      9          7           0        1.342707    1.261873    1.355806
     10          1           0        2.328017    1.494595    1.381785
     11          1           0        1.177535    0.460536    1.953875
     12          1           0        1.288105    1.331099   -0.992963
     13         35           0        2.031118   -0.976766   -0.386337
     14         17           0       -1.373433    1.632169   -1.441723
     15          7           0       -2.621335   -0.693247   -0.043497
     16          6           0       -3.479333   -1.599276    0.681905
     17          1           0       -3.008151   -0.149342   -0.792678
     18          1           0       -3.178725   -2.639116    0.536757
     19          1           0       -3.458145   -1.386032    1.752018
     20          1           0       -4.497824   -1.475842    0.320792
 ---------------------------------------------------------------------

 SCF Done:  E(RwB97XD) =  -3415.70110311     A.U. after    1 cycles

 The electronic state is 1-A.
 Alpha  occ. eigenvalues -- -483.13044-101.69516 -62.67898 -56.47017 -56.46660
 Alpha  occ. eigenvalues --  -56.46644 -19.20595 -14.47781 -14.45054 -10.38438
 Alpha  occ. eigenvalues --  -10.38410 -10.31695 -10.31487 -10.30886  -9.58037
 Alpha  occ. eigenvalues --   -8.82015  -7.32667  -7.31847  -7.31793  -6.64179
 Alpha  occ. eigenvalues --   -6.63043  -6.62987  -2.74563  -2.74245  -2.74201
 Alpha  occ. eigenvalues --   -2.73282  -2.73282  -1.13408  -1.03330  -1.01966
 Alpha  occ. eigenvalues --   -0.96921  -0.91027  -0.82782  -0.80346  -0.78537
 Alpha  occ. eigenvalues --   -0.71296  -0.66708  -0.62890  -0.58928  -0.56753
 Alpha  occ. eigenvalues --   -0.56525  -0.54836  -0.53245  -0.52763  -0.50636
 Alpha  occ. eigenvalues --   -0.48296  -0.47565  -0.47358  -0.46568  -0.44481
 Alpha  occ. eigenvalues --   -0.42316  -0.40682  -0.37981  -0.36707  -0.33926
 Alpha  occ. eigenvalues --   -0.33698  -0.27654
 Alpha virt. eigenvalues --    0.03289   0.06340   0.10077   0.12293   0.12913
 Alpha virt. eigenvalues --    0.14544   0.15407   0.16016   0.17239   0.17943
 Alpha virt. eigenvalues --    0.18606   0.20347   0.20690   0.21529   0.22321

 Mulliken charges:
               1
     1  C   -0.202897
     2  C    0.365346
     3  O   -0.537991
     4  C   -0.012124
     5  C   -0.283011
     6  H    0.151822
     7  H    0.154182
     8  H    0.152139
     9  N   -0.362762
    10  H    0.286741
    11  H    0.281256
    12  H    0.195660
    13  Br  -0.102734
    14  Cl  -0.169297
    15  N   -0.323242
    16  C   -0.245862
    17  H    0.252266
    18  H    0.128970
    19  H    0.129121
    20  H    0.142414
 Sum of Mulliken charges =  -0.00000

 Dipole moment (field-independent basis, Debye):
    X=              0.8355    Y=              4.8748    Z=              2.0441  Tot=              5.3517
 Quadrupole moment (field-independent basis, Debye-Ang):
   XX=            -65.1637   YY=            -77.8958   ZZ=            -78.6359
   XY=              9.1452   XZ=              5.4137   YZ=              8.4375

  Exact polarizability: 191.964   0.060 157.010  15.471  -0.799 139.728
 Approx polarizability: 147.244  -3.736 129.966  12.964  -5.011 120.610

 ******    1 imaginary frequencies (negative Signs) ******

                      1                      2                      3
                      A                      A                      A
 Frequencies --   -367.2587                41.8061                53.1759
 Red. masses --      5.9733                 3.3435                 2.6450
 Frc consts  --      0.4747                 0.0034                 0.0044
 IR Inten    --    731.1704                 6.5241                35.5684

                      4                      5                      6
                      A                      A                      A
 Frequencies --     64.4349                87.8038               110.4514
 Red. masses --      3.3286                 1.3437                 5.3105
 Frc consts  --      0.0081                 0.0061                 0.0382
 IR Inten    --     12.2789                 8.4763                 4.2553

                      7                      8                      9
                      A                      A                      A
 Frequencies --    123.7021               139.5003               171.1417
 Red. masses --      3.9500                 2.7950                 4.3610
 Frc consts  --      0.0356                 0.0320                 0.0753
 IR Inten    --      5.6601                12.8215                 8.4511

                     10                     11                     12
                      A                      A                      A
 Frequencies --    179.1737               213.1965               262.2182
 Red. masses --      1.2937                 5.3836                 3.4911
 Frc consts  --      0.0245                 0.1442                 0.1414
 IR Inten    --      7.0265                 1.6684                16.6696

                     13                     14                     15
                      A                      A                      A
 Frequencies --    270.6782               312.8431               387.7305
 Red. masses --      7.5947                 5.0130                 1.6620
 Frc consts  --      0.3278                 0.2891                 0.1472
 IR Inten    --     21.7025                40.1305                30.7490

                     16                     17                     18
                      A                      A                      A
 Frequencies --    423.8530               463.8568               528.8004
 Red. masses --      2.5159                 4.8450                 3.0364
 Frc consts  --      0.2663                 0.6142                 0.5002
 IR Inten    --     70.9148                71.0414                12.5388

                     19                     20                     21
                      A                      A                      A
 Frequencies --    666.2427               701.8848               781.0571
 Red. masses --      1.8241                 5.8156                 9.3573
 Frc consts  --      0.4771                 1.6880                 3.3633
 IR Inten    --     22.9931               211.5761                47.8980

                     22                     23                     24
                      A                      A                      A
 Frequencies --    817.1540               980.0577               989.3730
 Red. masses --      4.1057                 1.0956                 2.4563
 Frc consts  --      1.6153                 0.6200                 1.4166
 IR Inten    --     29.9290                92.0722                14.7996

                     25                     26                     27
                      A                      A                      A
 Frequencies --   1022.0386              1076.6124              1089.8986
 Red. masses --      1.2433                 1.3705                 2.6119
 Frc consts  --      0.7652                 0.9360                 1.8280
 IR Inten    --     52.0275               108.7751                 3.3777

                     28                     29                     30
                      A                      A                      A
 Frequencies --   1117.6394              1158.7902              1189.3215
 Red. masses --      3.1799                 1.2878                 1.7311
 Frc consts  --      2.3403                 1.0188                 1.4427
 IR Inten    --      9.4299                 0.3852                18.8027

                     31                     32                     33
                      A                      A                      A
 Frequencies --   1198.7447              1257.5416              1328.1223
 Red. masses --      1.4189                 1.4893                 1.7968
 Frc consts  --      1.2013                 1.3876                 1.8674
 IR Inten    --     20.7471                85.0946               166.4931

                     34                     35                     36
                      A                      A                      A
 Frequencies --   1343.9345              1443.8647              1458.4146
 Red. masses --      1.3253                 1.7192                 1.2122
 Frc consts  --      1.4103                 2.1117                 1.5191
 IR Inten    --      3.3172               369.4572                39.3074

                     37                     38                     39
                      A                      A                      A
 Frequencies --   1474.8465              1477.2804              1490.1402
 Red. masses --      2.1262                 1.1361                 1.0413
 Frc consts  --      2.7248                 1.4608                 1.3623
 IR Inten    --    265.1544                35.1881                14.1350

                     40                     41                     42
                      A                      A                      A
 Frequencies --   1502.9174              1507.7711              1564.0093
 Red. masses --      1.0359                 1.0856                 2.1009
 Frc consts  --      1.3785                 1.4541                 3.0278
 IR Inten    --      9.1842                23.6778               761.3954

                     43                     44                     45
                      A                      A                      A
 Frequencies --   1636.1838              1665.4512              3050.7514
 Red. masses --      1.1406                 6.4276                 1.0361
 Frc consts  --      1.7991                10.5042                 5.6814
 IR Inten    --    135.3700               341.3118                72.3966

                     46                     47                     48
                      A                      A                      A
 Frequencies --   3062.6913              3108.8877              3136.3967
 Red. masses --      1.0332                 1.1039                 1.1045
 Frc consts  --      5.7103                 6.2860                 6.4014
 IR Inten    --     39.6483                41.6440                14.5598

                     49                     50                     51
                      A                      A                      A
 Frequencies --   3160.8022              3161.4421              3238.4169
 Red. masses --      1.1052                 1.1018                 1.0921
 Frc consts  --      6.5057                 6.4883                 6.7483
 IR Inten    --     18.4783                22.0514                 2.1980

                     52                     53                     54
                      A                      A                      A
 Frequencies --   3525.0935              3615.7006              3683.4311
 Red. masses --      1.0502                 1.0974                 1.0782
 Frc consts  --      7.6887                 8.4530                 8.6186
 IR Inten    --     41.5745                58.6166                91.9094

 - Thermochemistry -
 -------------------
 Temperature   298.150 Kelvin.  Pressure   1.00000 Atm.
 Atom     1 has atomic number  6 and mass  12.00000

 Molecular mass:   227.96650 amu.
 Principal axes and moments of inertia in atomic units:
                           1         2         3
     Eigenvalues --  2002.382413446.735664035.17728
           X            0.99316   0.11637   0.01009
           Y           -0.11678   0.99082   0.06809
           Z           -0.00208  -0.06880   0.99763
 This molecule is an asymmetric top.
 Rotational symmetry number  1.
 Warning -- assumption of classical behavior for rotation
           may cause significant error
 Rotational temperatures (Kelvin)      0.04326     0.02513     0.02146
 Rotational constants (GHZ):           0.90130     0.52361     0.44725
    1 imaginary frequencies ignored.
 Zero-point vibrational energy     409824.3 (Joules/Mol)
                                   97.95036 (Kcal/Mol)
 Warning -- explicit consideration of  17 degrees of freedom as
           vibrations may cause significant error
 Vibrational temperatures:     60.15    76.51    92.71   126.33   158.91
          (Kelvin)            177.98   200.71   246.23   257.79   306.74
                              377.27   389.45   450.11   557.86   609.83
                              667.39   760.83   958.57  1009.86  1123.77
                             1175.70  1410.08  1423.49  1470.49  1549.01
                             1568.12  1608.03  1667.24  1711.17  1724.73
                             1809.32  1910.87  1933.62  2077.40  2098.33
                             2121.98  2125.48  2143.98  2162.36  2169.35
                             2250.26  2354.10  2396.21  4389.35  4406.53
                             4473.00  4512.58  4547.69  4548.61  4659.36
                             5071.82  5202.19  5299.64

 Zero-point correction=                           0.156094 (Hartree/Particle)
 Thermal correction to Energy=                    0.169093
 Thermal correction to Enthalpy=                  0.170037
 Thermal correction to Gibbs Free Energy=         0.114283
 Sum of electronic and zero-point Energies=          -3415.545009
 Sum of electronic and thermal Energies=             -3415.532010
 Sum of electronic and thermal Enthalpies=           -3415.531066
 Sum of electronic and thermal Free Energies=        -3415.586820

                     E (Thermal)             CV                S
                      KCal/Mol        Cal/Mol-Kelvin    Cal/Mol-Kelvin
 Total                  106.108             42.568            117.345
 Electronic               0.000              0.000              0.000
 Translational            0.889              2.981             42.174
 Rotational               0.889              2.981             31.699
 Vibrational            104.330             36.606             43.471
 Vibration     1          0.594              1.980              5.172
 Vibration     2          0.596              1.976              4.696
 Vibration     3          0.597              1.971              4.317
 Vibration     4          0.601              1.958              3.708
 Vibration     5          0.606              1.941              3.261
 Vibration     6          0.610              1.929              3.042
 Vibration     7          0.615              1.914              2.811
 Vibration     8          0.626              1.878              2.423
 Vibration     9          0.629              1.868              2.337
 Vibration    10          0.644              1.821              2.016
 Vibration    11          0.670              1.742              1.647
 Vibration    12          0.674              1.727              1.592
 Vibration    13          0.701              1.649              1.347
 Vibration    14          0.756              1.496              1.009
 Vibration    15          0.786              1.418              0.879
 Vibration    16          0.821              1.330              0.755
 Vibration    17          0.884              1.186              0.590

 Optimization completed.
    -- Stationary point found.
 Normal termination of Gaussian 16 at Sun Apr 11 21:37:00 2021.
