 Gaussian 16, Revision A.03,
 Gaussian 16:  ES64L-G16RevA.03 25-Dec-2016

 ----------------------------------------------------------------------
 # wB97XD def2tzvp, opt=(ts, noeigen, calcfc, maxcycles=70, maxstep=1),
  freq=noraman, scrf=(iefpcm, solvent=water)
 ----------------------------------------------------------------------

 ------------------------
 0_iteration/TS-326-0.out
 ------------------------
 Symbolic Z-matrix:
 Charge =  0 Multiplicity = 1

 SCF Done:  E(RwB97XD) =  -3226.45336681     A.U. after   15 cycles
 SCF Done:  E(RwB97XD) =  -3226.45337636     A.U. after   10 cycles
 SCF Done:  E(RwB97XD) =  -3226.45338182     A.U. after   10 cycles
 SCF Done:  E(RwB97XD) =  -3226.45338290     A.U. after    9 cycles
 SCF Done:  E(RwB97XD) =  -3226.45338302     A.U. after    6 cycles
 Optimization completed.
    -- Stationary point found.
 Normal termination of Gaussian 16 at Tue Mar  2 04:34:34 2021.

 ---------------------------------------------------------------------
 #N Geom=AllCheck Guess=TCheck SCRF=Check GenChk RwB97XD/def2TZVP Freq
 ---------------------------------------------------------------------

 Structure from the checkpoint file:  "/beegfs/scratch/user/q/tla25/Gau-30678.chk"
 ------------------------
 0_iteration/TS-326-0.out
 ------------------------
 Charge =  0 Multiplicity = 1

                         Standard orientation:
 ---------------------------------------------------------------------
 Center     Atomic      Atomic             Coordinates (Angstroms)
 Number     Number       Type             X           Y           Z
 ---------------------------------------------------------------------
      1          6           0        0.035188   -0.005994   -0.069751
      2          6           0       -0.330428    1.318266    0.465443
      3          8           0       -1.189576    1.430613    1.356177
      4          6           0       -0.947381   -0.962364   -0.164536
      5          6           0       -0.488921   -2.020741    2.400532
      6          1           0       -0.726917   -2.074369    3.463966
      7          1           0       -0.259005   -3.020482    2.034677
      8          1           0        0.388398   -1.387415    2.267737
      9          7           0       -1.581079   -1.457347    1.623591
     10          1           0       -2.408014   -2.041002    1.616162
     11          1           0       -1.811612   -0.511859    1.921849
     12          1           0       -0.680847   -1.960258   -0.479360
     13         35           0       -2.695324   -0.529146   -0.904424
     14          6           0        1.446746   -0.422685   -0.180276
     15          6           0        2.436341    0.139618    0.636038
     16          6           0        3.759929   -0.259236    0.546172
     17          6           0        4.139707   -1.245458   -0.353960
     18          6           0        3.174270   -1.813879   -1.173096
     19          6           0        1.853954   -1.399748   -1.096911
     20          1           0        2.161193    0.898966    1.358382
     21          1           0        4.498768    0.197312    1.193780
     22          1           0        5.173004   -1.560988   -0.420853
     23          1           0        3.452916   -2.574524   -1.892450
     24          1           0        1.128304   -1.830068   -1.776784
     25          7           0        0.306194    2.415739   -0.012864
     26          6           0        1.080261    2.441125   -1.234737
     27          6           0        0.132513    3.694835    0.640421
     28          1           0        0.910635    1.535848   -1.810326
     29          1           0        0.768098    3.297799   -1.836227
     30          1           0        2.150299    2.533441   -1.028201
     31          1           0       -0.217517    3.542639    1.657095
     32          1           0        1.089123    4.220509    0.659994
     33          1           0       -0.592747    4.318481    0.108856
 ---------------------------------------------------------------------

 SCF Done:  E(RwB97XD) =  -3226.45338302     A.U. after    1 cycles

 The electronic state is 1-A.
 Alpha  occ. eigenvalues -- -483.12526 -62.67381 -56.46485 -56.46147 -56.46138
 Alpha  occ. eigenvalues --  -19.20643 -14.46866 -14.45981 -10.37960 -10.37552
 Alpha  occ. eigenvalues --  -10.31144 -10.30726 -10.30445 -10.30189 -10.28595
 Alpha  occ. eigenvalues --  -10.28582 -10.28182 -10.28109 -10.28104 -10.26658
 Alpha  occ. eigenvalues --   -8.81493  -6.63608  -6.62535  -6.62504  -2.74000
 Alpha  occ. eigenvalues --   -2.73695  -2.73670  -2.72802  -2.72802  -1.13302
 Alpha  occ. eigenvalues --   -1.03377  -1.02502  -0.96445  -0.92254  -0.87423
 Alpha  occ. eigenvalues --   -0.84568  -0.82218  -0.81226  -0.79107  -0.78019
 Alpha  occ. eigenvalues --   -0.71650  -0.69618  -0.67916  -0.63367  -0.62105
 Alpha  occ. eigenvalues --   -0.61241  -0.57582  -0.56533  -0.56183  -0.56017
 Alpha  occ. eigenvalues --   -0.54470  -0.53056  -0.52828  -0.52188  -0.50293
 Alpha  occ. eigenvalues --   -0.49530  -0.48645  -0.48397  -0.47610  -0.47301
 Alpha  occ. eigenvalues --   -0.46064  -0.45424  -0.45401  -0.44080  -0.42722
 Alpha  occ. eigenvalues --   -0.42029  -0.37244  -0.36378  -0.35669  -0.33588
 Alpha  occ. eigenvalues --   -0.33331  -0.32049  -0.25746
 Alpha virt. eigenvalues --    0.03714   0.05367   0.06587   0.07185   0.10871
 Alpha virt. eigenvalues --    0.12197   0.13842   0.14417   0.14654   0.15005
 Alpha virt. eigenvalues --    0.16302   0.17127   0.17318   0.17909   0.18601

 Mulliken charges:
               1
     1  C   -0.192734
     2  C    0.298737
     3  O   -0.559677
     4  C   -0.012090
     5  C   -0.283145
     6  H    0.148423
     7  H    0.146202
     8  H    0.149125
     9  N   -0.322393
    10  H    0.274375
    11  H    0.270007
    12  H    0.185637
    13  Br  -0.138969
    14  C    0.095443
    15  C   -0.237118
    16  C   -0.148409
    17  C   -0.161557
    18  C   -0.147123
    19  C   -0.252329
    20  H    0.149949
    21  H    0.136686
    22  H    0.138965
    23  H    0.136923
    24  H    0.147412
    25  N   -0.094482
    26  C   -0.302974
    27  C   -0.291546
    28  H    0.161813
    29  H    0.147344
    30  H    0.139117
    31  H    0.143092
    32  H    0.137655
    33  H    0.137641
 Sum of Mulliken charges =  -0.00000

 Dipole moment (field-independent basis, Debye):
    X=              1.5001    Y=             -2.4737    Z=              1.3968  Tot=              3.2126
 Quadrupole moment (field-independent basis, Debye-Ang):
   XX=           -109.9979   YY=            -93.9994   ZZ=           -104.9874
   XY=              9.8497   XZ=             -2.9120   YZ=             -7.1133

  Exact polarizability: 323.240   5.935 249.329  -8.625   6.705 226.503
 Approx polarizability: 242.299   3.556 199.374  -4.728   9.829 191.404

 ******    1 imaginary frequencies (negative Signs) ******

                      1                      2                      3
                      A                      A                      A
 Frequencies --   -406.9312                37.1729                54.9234
 Red. masses --      5.8055                 4.1917                 4.5485
 Frc consts  --      0.5664                 0.0034                 0.0081
 IR Inten    --    909.9233                 5.0748                 4.5582

                      4                      5                      6
                      A                      A                      A
 Frequencies --     58.8625                76.6254                80.7522
 Red. masses --      3.2990                 2.9318                 2.7702
 Frc consts  --      0.0067                 0.0101                 0.0106
 IR Inten    --      1.4469                 0.2508                 4.2541

                      7                      8                      9
                      A                      A                      A
 Frequencies --     89.3328                96.9858               121.1111
 Red. masses --      2.2785                 1.6900                 2.5086
 Frc consts  --      0.0107                 0.0094                 0.0217
 IR Inten    --      3.0599                 1.3729                20.2623

                     10                     11                     12
                      A                      A                      A
 Frequencies --    148.5676               154.4650               189.4382
 Red. masses --      5.5493                 3.0052                 1.4244
 Frc consts  --      0.0722                 0.0422                 0.0301
 IR Inten    --      6.5855                 5.1523                 8.7745

                     13                     14                     15
                      A                      A                      A
 Frequencies --    199.2300               223.6394               241.0965
 Red. masses --      1.5243                 2.5775                 3.8720
 Frc consts  --      0.0356                 0.0760                 0.1326
 IR Inten    --      1.9475                14.8369                 0.1439

                     16                     17                     18
                      A                      A                      A
 Frequencies --    260.3767               266.8085               299.4105
 Red. masses --      2.8304                 4.0671                 3.1331
 Frc consts  --      0.1131                 0.1706                 0.1655
 IR Inten    --     27.5840                21.8719                36.2155

                     19                     20                     21
                      A                      A                      A
 Frequencies --    334.9402               399.7464               423.2314
 Red. masses --      3.7672                 3.4889                 2.9126
 Frc consts  --      0.2490                 0.3285                 0.3074
 IR Inten    --      5.0463                13.6187                 2.6946

                     22                     23                     24
                      A                      A                      A
 Frequencies --    445.6085               493.8431               522.6629
 Red. masses --      3.1465                 4.7001                 4.4418
 Frc consts  --      0.3681                 0.6754                 0.7149
 IR Inten    --     19.2523                41.4371                33.8907

                     25                     26                     27
                      A                      A                      A
 Frequencies --    573.2995               617.1021               639.4467
 Red. masses --      3.4166                 3.0651                 5.9250
 Frc consts  --      0.6616                 0.6877                 1.4274
 IR Inten    --     26.1459                25.8177                 1.6139

                     28                     29                     30
                      A                      A                      A
 Frequencies --    688.9005               711.7136               723.4488
 Red. masses --      5.1700                 2.1119                 1.6487
 Frc consts  --      1.4456                 0.6303                 0.5084
 IR Inten    --    158.3548                51.7242                74.3167

                     31                     32                     33
                      A                      A                      A
 Frequencies --    740.0847               792.0813               808.9099
 Red. masses --      3.7154                 3.5479                 3.8354
 Frc consts  --      1.1990                 1.3115                 1.4786
 IR Inten    --     87.8798                22.1839                78.2893

                     34                     35                     36
                      A                      A                      A
 Frequencies --    867.2479               934.7126               946.0742
 Red. masses --      1.2559                 1.4899                 4.0119
 Frc consts  --      0.5565                 0.7669                 2.1157
 IR Inten    --      1.7892                 3.9119                 4.5222

                     37                     38                     39
                      A                      A                      A
 Frequencies --    973.4196              1003.5743              1016.2736
 Red. masses --      1.0948                 1.3783                 1.4697
 Frc consts  --      0.6112                 0.8179                 0.8944
 IR Inten    --    123.9797                 0.3282                 2.5084

                     40                     41                     42
                      A                      A                      A
 Frequencies --   1019.6826              1021.3934              1043.7525
 Red. masses --      3.2843                 2.3573                 1.3176
 Frc consts  --      2.0120                 1.4490                 0.8457
 IR Inten    --      4.0600                36.8229                43.5471

                     43                     44                     45
                      A                      A                      A
 Frequencies --   1065.8283              1083.5152              1087.7646
 Red. masses --      1.8641                 1.2193                 1.3799
 Frc consts  --      1.2477                 0.8434                 0.9620
 IR Inten    --     13.1125               157.0973                13.8426

                     46                     47                     48
                      A                      A                      A
 Frequencies --   1089.6480              1115.4594              1132.4170
 Red. masses --      3.6843                 1.5356                 1.2302
 Frc consts  --      2.5773                 1.1257                 0.9295
 IR Inten    --     13.1713                22.2663                 0.4771

                     49                     50                     51
                      A                      A                      A
 Frequencies --   1169.6342              1178.0607              1181.2635
 Red. masses --      1.6357                 1.6072                 1.1310
 Frc consts  --      1.3184                 1.3142                 0.9299
 IR Inten    --     58.8266               110.7674                 3.4453

                     52                     53                     54
                      A                      A                      A
 Frequencies --   1195.4564              1213.0730              1250.6763
 Red. masses --      1.4249                 1.1311                 1.6536
 Frc consts  --      1.1998                 0.9806                 1.5240
 IR Inten    --     27.4445                 9.4327                 9.8805

                     55                     56                     57
                      A                      A                      A
 Frequencies --   1299.5030              1312.3908              1337.7457
 Red. masses --      3.5485                 5.1015                 3.3924
 Frc consts  --      3.5306                 5.1770                 3.5768
 IR Inten    --     45.3831                40.1347                81.2828

                     58                     59                     60
                      A                      A                      A
 Frequencies --   1349.9709              1363.1775              1432.0659
 Red. masses --      1.3200                 1.5388                 1.6587
 Frc consts  --      1.4173                 1.6847                 2.0042
 IR Inten    --      3.5927                42.0967               446.5870

                     61                     62                     63
                      A                      A                      A
 Frequencies --   1437.1640              1448.0806              1464.1649
 Red. masses --      2.0509                 1.5011                 1.4507
 Frc consts  --      2.4958                 1.8546                 1.8324
 IR Inten    --    384.3480                72.7469                72.1660

                     64                     65                     66
                      A                      A                      A
 Frequencies --   1474.2352              1484.0495              1489.6295
 Red. masses --      1.1909                 1.0853                 1.0410
 Frc consts  --      1.5249                 1.4083                 1.3610
 IR Inten    --     35.2531                 5.7958                14.1686

                     67                     68                     69
                      A                      A                      A
 Frequencies --   1493.7088              1498.5451              1501.7191
 Red. masses --      1.0669                 2.3708                 1.0502
 Frc consts  --      1.4025                 3.1368                 1.3954
 IR Inten    --     47.8419                79.0224                13.2975

                     70                     71                     72
                      A                      A                      A
 Frequencies --   1505.8868              1538.0761              1541.8294
 Red. masses --      1.0697                 2.1928                 1.7237
 Frc consts  --      1.4292                 3.0563                 2.4143
 IR Inten    --     13.1647               122.5125               279.4032

                     73                     74                     75
                      A                      A                      A
 Frequencies --   1619.2176              1637.9266              1647.2960
 Red. masses --      2.1514                 4.3303                 1.8481
 Frc consts  --      3.3234                 6.8447                 2.9548
 IR Inten    --    775.1999                17.0651               255.3753

                     76                     77                     78
                      A                      A                      A
 Frequencies --   1668.2334              3036.1677              3041.0016
 Red. masses --      5.8275                 1.0407                 1.0405
 Frc consts  --      9.5554                 5.6525                 5.6691
 IR Inten    --     48.7980                62.0421               122.1564

                     79                     80                     81
                      A                      A                      A
 Frequencies --   3059.9395              3096.0581              3102.9781
 Red. masses --      1.0337                 1.1012                 1.1009
 Frc consts  --      5.7028                 6.2191                 6.2454
 IR Inten    --     53.4851                80.8709                12.2410

                     82                     83                     84
                      A                      A                      A
 Frequencies --   3134.9039              3155.4916              3177.3275
 Red. masses --      1.1035                 1.1052                 1.0983
 Frc consts  --      6.3898                 6.4837                 6.5328
 IR Inten    --     16.2990                19.4909                10.8711

                     85                     86                     87
                      A                      A                      A
 Frequencies --   3179.4569              3184.9407              3187.9734
 Red. masses --      1.0988                 1.0856                 1.0877
 Frc consts  --      6.5444                 6.4882                 6.5130
 IR Inten    --      8.4797                16.3494                 0.4809

                     88                     89                     90
                      A                      A                      A
 Frequencies --   3199.6145              3204.2122              3218.6476
 Red. masses --      1.0911                 1.0949                 1.0983
 Frc consts  --      6.5811                 6.6233                 6.7040
 IR Inten    --      6.8836                52.4186                24.5802

                     91                     92                     93
                      A                      A                      A
 Frequencies --   3234.4198              3462.3845              3600.2012
 Red. masses --      1.0922                 1.0576                 1.0914
 Frc consts  --      6.7319                 7.4699                 8.3349
 IR Inten    --      1.8061                93.0164                93.0093

 - Thermochemistry -
 -------------------
 Temperature   298.150 Kelvin.  Pressure   1.00000 Atm.
 Atom     1 has atomic number  6 and mass  12.00000

 Molecular mass:   284.05242 amu.
 Principal axes and moments of inertia in atomic units:
                           1         2         3
     Eigenvalues --  3528.841356030.821917316.20054
           X            0.99933  -0.01397  -0.03374
           Y            0.01253   0.99901  -0.04261
           Z            0.03430   0.04216   0.99852
 This molecule is an asymmetric top.
 Rotational symmetry number  1.
 Warning -- assumption of classical behavior for rotation
           may cause significant error
 Rotational temperatures (Kelvin)      0.02454     0.01436     0.01184
 Rotational constants (GHZ):           0.51143     0.29925     0.24668
    1 imaginary frequencies ignored.
 Zero-point vibrational energy     723280.6 (Joules/Mol)
                                  172.86822 (Kcal/Mol)
 Warning -- explicit consideration of  25 degrees of freedom as
           vibrations may cause significant error
 Vibrational temperatures:     53.48    79.02    84.69   110.25   116.18
          (Kelvin)            128.53   139.54   174.25   213.76   222.24
                              272.56   286.65   321.77   346.88   374.62
                              383.88   430.78   481.90   575.15   608.94
                              641.13   710.53   752.00   824.85   887.87
                              920.02   991.17  1024.00  1040.88  1064.82
                             1139.63  1163.84  1247.78  1344.84  1361.19
                             1400.53  1443.92  1462.19  1467.10  1469.56
                             1501.73  1533.49  1558.94  1565.05  1567.76
                             1604.90  1629.30  1682.84  1694.97  1699.57
                             1720.00  1745.34  1799.44  1869.70  1888.24
                             1924.72  1942.31  1961.31  2060.42  2067.76
                             2083.46  2106.61  2121.10  2135.22  2143.24
                             2149.11  2156.07  2160.64  2166.64  2212.95
                             2218.35  2329.69  2356.61  2370.09  2400.22
                             4368.37  4375.32  4402.57  4454.54  4464.49
                             4510.43  4540.05  4571.47  4574.53  4582.42
                             4586.78  4603.53  4610.15  4630.92  4653.61
                             4981.60  5179.89

 Zero-point correction=                           0.275483 (Hartree/Particle)
 Thermal correction to Energy=                    0.292838
 Thermal correction to Enthalpy=                  0.293783
 Thermal correction to Gibbs Free Energy=         0.228734
 Sum of electronic and zero-point Energies=          -3226.177900
 Sum of electronic and thermal Energies=             -3226.160545
 Sum of electronic and thermal Enthalpies=           -3226.159600
 Sum of electronic and thermal Free Energies=        -3226.224649

                     E (Thermal)             CV                S
                      KCal/Mol        Cal/Mol-Kelvin    Cal/Mol-Kelvin
 Total                  183.759             62.204            136.906
 Electronic               0.000              0.000              0.000
 Translational            0.889              2.981             42.830
 Rotational               0.889              2.981             33.409
 Vibrational            181.981             56.242             60.667
 Vibration     1          0.594              1.982              5.404
 Vibration     2          0.596              1.976              4.632
 Vibration     3          0.596              1.974              4.495
 Vibration     4          0.599              1.965              3.976
 Vibration     5          0.600              1.962              3.873
 Vibration     6          0.602              1.957              3.675
 Vibration     7          0.603              1.951              3.514
 Vibration     8          0.609              1.932              3.083
 Vibration     9          0.618              1.904              2.690
 Vibration    10          0.620              1.898              2.616
 Vibration    11          0.633              1.854              2.233
 Vibration    12          0.637              1.841              2.140
 Vibration    13          0.649              1.805              1.929
 Vibration    14          0.658              1.777              1.795
 Vibration    15          0.668              1.745              1.659
 Vibration    16          0.672              1.734              1.617
 Vibration    17          0.692              1.675              1.420
 Vibration    18          0.716              1.606              1.236
 Vibration    19          0.766              1.471              0.964
 Vibration    20          0.785              1.420              0.881
 Vibration    21          0.805              1.371              0.809
 Vibration    22          0.849              1.264              0.674
 Vibration    23          0.878              1.200              0.604
 Vibration    24          0.930              1.089              0.498
 Vibration    25          0.977              0.996              0.421

 Optimization completed.
    -- Stationary point found.
 Normal termination of Gaussian 16 at Tue Mar  2 06:01:43 2021.
