 Gaussian 16, Revision A.03,
 Gaussian 16:  ES64L-G16RevA.03 25-Dec-2016

 ----------------------------------------------------------------------
 # wB97XD def2tzvp, opt=(ts, noeigen, calcfc, maxcycles=70, maxstep=3),
  freq=noraman, scrf=(iefpcm, solvent=water)
 ----------------------------------------------------------------------

 ------------------------
 0_iteration/TS-308-0.out
 ------------------------
 Symbolic Z-matrix:
 Charge =  0 Multiplicity = 1

 SCF Done:  E(RwB97XD) =  -3015.27764405     A.U. after   15 cycles
 SCF Done:  E(RwB97XD) =  -3015.27750181     A.U. after   11 cycles
 SCF Done:  E(RwB97XD) =  -3015.27739638     A.U. after   11 cycles
 SCF Done:  E(RwB97XD) =  -3015.27732808     A.U. after   11 cycles
 SCF Done:  E(RwB97XD) =  -3015.27730457     A.U. after   11 cycles
 SCF Done:  E(RwB97XD) =  -3015.27736783     A.U. after   11 cycles
 SCF Done:  E(RwB97XD) =  -3015.27758900     A.U. after   10 cycles
 SCF Done:  E(RwB97XD) =  -3015.27790518     A.U. after   10 cycles
 SCF Done:  E(RwB97XD) =  -3015.27831405     A.U. after   10 cycles
 SCF Done:  E(RwB97XD) =  -3015.27877807     A.U. after   10 cycles
 SCF Done:  E(RwB97XD) =  -3015.28057283     A.U. after   11 cycles
 SCF Done:  E(RwB97XD) =  -3015.28057439     A.U. after   10 cycles
 SCF Done:  E(RwB97XD) =  -3015.28059489     A.U. after   11 cycles
 SCF Done:  E(RwB97XD) =  -3015.28057892     A.U. after   10 cycles
 SCF Done:  E(RwB97XD) =  -3015.28060227     A.U. after   10 cycles
 SCF Done:  E(RwB97XD) =  -3015.28060547     A.U. after   10 cycles
 SCF Done:  E(RwB97XD) =  -3015.28060638     A.U. after    9 cycles
 SCF Done:  E(RwB97XD) =  -3015.28060686     A.U. after    9 cycles
 SCF Done:  E(RwB97XD) =  -3015.28060694     A.U. after    7 cycles
 Optimization completed.
    -- Stationary point found.
 Normal termination of Gaussian 16 at Tue Apr 13 14:08:14 2021.

 ---------------------------------------------------------------------
 #N Geom=AllCheck Guess=TCheck SCRF=Check GenChk RwB97XD/def2TZVP Freq
 ---------------------------------------------------------------------

 Structure from the checkpoint file:  "/beegfs/scratch/user/q/tla25/Gau-359935.chk"
 ------------------------
 0_iteration/TS-308-0.out
 ------------------------
 Charge =  0 Multiplicity = 1

                         Standard orientation:
 ---------------------------------------------------------------------
 Center     Atomic      Atomic             Coordinates (Angstroms)
 Number     Number       Type             X           Y           Z
 ---------------------------------------------------------------------
      1          6           0        0.078544   -0.039031    0.380613
      2          6           0        1.075099   -1.004340    0.038960
      3          8           0        0.904762   -2.217858    0.030858
      4          6           0       -1.245738   -0.330625    0.701098
      5          6           0       -3.754960   -0.303552   -0.814725
      6          1           0       -4.241733   -0.118324   -1.773190
      7          1           0       -4.092823   -1.262718   -0.428743
      8          1           0       -4.044537    0.479468   -0.114361
      9          7           0       -2.298529   -0.316581   -0.936298
     10          1           0       -1.968953   -1.113927   -1.467535
     11          1           0       -1.958842    0.519531   -1.396706
     12          1           0       -1.801916    0.508800    1.104492
     13          6           0       -1.675734   -1.652733    1.276522
     14          1           0       -1.174750   -1.796019    2.235333
     15          1           0       -2.750055   -1.657736    1.454313
     16          1           0       -1.399655   -2.483985    0.634496
     17         35           0        0.474931    1.824957    0.125884
     18          8           0        2.278179   -0.471997   -0.273302
     19          6           0        3.306438   -1.396631   -0.599902
     20          1           0        4.181390   -0.794831   -0.833059
     21          1           0        3.523008   -2.055817    0.241272
     22          1           0        3.030549   -2.001569   -1.464012
 ---------------------------------------------------------------------

 SCF Done:  E(RwB97XD) =  -3015.28060694     A.U. after    1 cycles

 The electronic state is 1-A.
 Alpha  occ. eigenvalues -- -483.11720 -62.66563 -56.45662 -56.45331 -56.45327
 Alpha  occ. eigenvalues --  -19.28176 -19.21225 -14.47777 -10.40025 -10.34506
 Alpha  occ. eigenvalues --  -10.32609 -10.31741 -10.30160 -10.27901  -8.80683
 Alpha  occ. eigenvalues --   -6.62782  -6.61724  -6.61713  -2.73179  -2.72869
 Alpha  occ. eigenvalues --   -2.72860  -2.72003  -2.72003  -1.19630  -1.09875
 Alpha  occ. eigenvalues --   -1.03328  -0.92854  -0.86423  -0.82603  -0.79000
 Alpha  occ. eigenvalues --   -0.76842  -0.70766  -0.64002  -0.62495  -0.58193
 Alpha  occ. eigenvalues --   -0.56836  -0.55969  -0.55033  -0.54199  -0.53342
 Alpha  occ. eigenvalues --   -0.49953  -0.49493  -0.47985  -0.47539  -0.45705
 Alpha  occ. eigenvalues --   -0.44885  -0.43407  -0.42125  -0.38706  -0.37881
 Alpha  occ. eigenvalues --   -0.37016  -0.34380  -0.27118
 Alpha virt. eigenvalues --    0.05778   0.08106   0.10415   0.13297   0.14204
 Alpha virt. eigenvalues --    0.14813   0.15780   0.16228   0.17398   0.17950
 Alpha virt. eigenvalues --    0.19248   0.19678   0.20307   0.20818   0.21235

 Mulliken charges:
               1
     1  C   -0.186120
     2  C    0.408638
     3  O   -0.510516
     4  C   -0.061769
     5  C   -0.287260
     6  H    0.152496
     7  H    0.156623
     8  H    0.150276
     9  N   -0.346010
    10  H    0.281524
    11  H    0.277101
    12  H    0.159350
    13  C   -0.343480
    14  H    0.143404
    15  H    0.139830
    16  H    0.143690
    17  Br  -0.171416
    18  O   -0.305311
    19  C   -0.190419
    20  H    0.137820
    21  H    0.125876
    22  H    0.125673
 Sum of Mulliken charges =  -0.00000

 Dipole moment (field-independent basis, Debye):
    X=             -7.0690    Y=             -0.3581    Z=             -2.6426  Tot=              7.5553
 Quadrupole moment (field-independent basis, Debye-Ang):
   XX=            -51.1070   YY=            -83.2401   ZZ=            -69.1053
   XY=              0.6956   XZ=              2.9065   YZ=              0.7045

  Exact polarizability: 189.580  -0.618 156.377   2.886  -3.170 120.114
 Approx polarizability: 137.198   0.874 131.011   1.473  -1.673 103.936

 ******    1 imaginary frequencies (negative Signs) ******

                      1                      2                      3
                      A                      A                      A
 Frequencies --   -345.4849                41.3003                55.7104
 Red. masses --      6.0696                 3.5003                 3.1080
 Frc consts  --      0.4268                 0.0035                 0.0057
 IR Inten    --    912.8355                 1.3489                 5.6165

                      4                      5                      6
                      A                      A                      A
 Frequencies --     68.5090               107.2779               136.1109
 Red. masses --      2.7250                 3.6036                 3.0977
 Frc consts  --      0.0075                 0.0244                 0.0338
 IR Inten    --      7.0656                 4.5959                17.1995

                      7                      8                      9
                      A                      A                      A
 Frequencies --    142.9981               161.3053               175.0899
 Red. masses --      3.0615                 1.3101                 1.2353
 Frc consts  --      0.0369                 0.0201                 0.0223
 IR Inten    --      4.4408                 2.9083                 1.4014

                     10                     11                     12
                      A                      A                      A
 Frequencies --    204.4119               234.1063               265.8801
 Red. masses --      3.1168                 2.4324                 1.3838
 Frc consts  --      0.0767                 0.0785                 0.0576
 IR Inten    --     13.5758                 9.3223                 4.6319

                     13                     14                     15
                      A                      A                      A
 Frequencies --    305.2512               324.3023               394.7680
 Red. masses --      2.9103                 4.7175                 3.3328
 Frc consts  --      0.1598                 0.2923                 0.3060
 IR Inten    --      4.6809                23.9860                12.6743

                     16                     17                     18
                      A                      A                      A
 Frequencies --    416.9074               445.1152               582.0651
 Red. masses --      6.2628                 4.5565                 3.2790
 Frc consts  --      0.6414                 0.5319                 0.6545
 IR Inten    --      6.1848               127.0609                21.3314

                     19                     20                     21
                      A                      A                      A
 Frequencies --    648.6763               779.0650               784.0398
 Red. masses --      1.3819                 4.7598                10.6073
 Frc consts  --      0.3426                 1.7021                 3.8418
 IR Inten    --     33.4407                36.4402                57.6624

                     22                     23                     24
                      A                      A                      A
 Frequencies --    949.9537               958.8412               997.4876
 Red. masses --      5.0053                 1.7701                 1.1805
 Frc consts  --      2.6613                 0.9588                 0.6920
 IR Inten    --     98.5119                59.6307                18.1451

                     25                     26                     27
                      A                      A                      A
 Frequencies --   1033.5930              1044.7614              1072.2134
 Red. masses --      1.1440                 1.5923                 4.1234
 Frc consts  --      0.7200                 1.0241                 2.7930
 IR Inten    --     86.2515                22.2969               190.7632

                     28                     29                     30
                      A                      A                      A
 Frequencies --   1091.8308              1145.7757              1179.6863
 Red. masses --      2.5705                 2.4752                 1.2550
 Frc consts  --      1.8054                 1.9145                 1.0291
 IR Inten    --    159.6127                49.6183               259.8338

                     31                     32                     33
                      A                      A                      A
 Frequencies --   1183.5726              1215.6212              1219.1772
 Red. masses --      1.2781                 1.4833                 1.4361
 Frc consts  --      1.0549                 1.2914                 1.2577
 IR Inten    --     20.6363                38.4418                26.3459

                     34                     35                     36
                      A                      A                      A
 Frequencies --   1251.7782              1345.4683              1381.0644
 Red. masses --      2.6537                 1.3140                 2.0179
 Frc consts  --      2.4499                 1.4015                 2.2676
 IR Inten    --    402.0430                 0.4583               505.0024

                     37                     38                     39
                      A                      A                      A
 Frequencies --   1414.0528              1452.2161              1472.3270
 Red. masses --      1.2952                 1.4844                 1.3727
 Frc consts  --      1.5259                 1.8444                 1.7532
 IR Inten    --    125.6456               186.9802                92.0624

                     40                     41                     42
                      A                      A                      A
 Frequencies --   1481.1566              1482.7376              1488.9162
 Red. masses --      1.2051                 1.0475                 1.0594
 Frc consts  --      1.5577                 1.3568                 1.3838
 IR Inten    --    133.6182                13.7191                11.3377

                     43                     44                     45
                      A                      A                      A
 Frequencies --   1492.3358              1497.0985              1503.0822
 Red. masses --      1.0821                 1.0684                 1.2452
 Frc consts  --      1.4199                 1.4108                 1.6575
 IR Inten    --     54.2358                12.6003                93.7883

                     46                     47                     48
                      A                      A                      A
 Frequencies --   1512.6671              1645.7307              1684.0218
 Red. masses --      1.1391                 1.0897                 9.7349
 Frc consts  --      1.5357                 1.7388                16.2659
 IR Inten    --     69.1259                49.8218               592.5089

                     49                     50                     51
                      A                      A                      A
 Frequencies --   3060.9017              3065.0111              3075.9351
 Red. masses --      1.0309                 1.0347                 1.0390
 Frc consts  --      5.6909                 5.7268                 5.7920
 IR Inten    --     67.2880                53.4126                21.5056

                     52                     53                     54
                      A                      A                      A
 Frequencies --   3135.7961              3138.3032              3143.4682
 Red. masses --      1.1065                 1.1047                 1.1000
 Frc consts  --      6.4108                 6.4103                 6.4042
 IR Inten    --     39.3739                22.9101                26.4149

                     55                     56                     57
                      A                      A                      A
 Frequencies --   3165.8767              3167.5931              3169.8551
 Red. masses --      1.0923                 1.1030                 1.1051
 Frc consts  --      6.4504                 6.5204                 6.5425
 IR Inten    --     13.3073                13.4350                26.7045

                     58                     59                     60
                      A                      A                      A
 Frequencies --   3191.1183              3527.6791              3608.6519
 Red. masses --      1.1001                 1.0508                 1.0963
 Frc consts  --      6.6003                 7.7045                 8.4116
 IR Inten    --     11.2820                17.1223                43.1547

 - Thermochemistry -
 -------------------
 Temperature   298.150 Kelvin.  Pressure   1.00000 Atm.
 Atom     1 has atomic number  6 and mass  12.00000

 Molecular mass:   209.00514 amu.
 Principal axes and moments of inertia in atomic units:
                           1         2         3
     Eigenvalues --  1826.241012641.699823944.01147
           X            0.99938  -0.03502  -0.00238
           Y            0.03499   0.99932  -0.01194
           Z            0.00280   0.01185   0.99993
 This molecule is an asymmetric top.
 Rotational symmetry number  1.
 Warning -- assumption of classical behavior for rotation
           may cause significant error
 Rotational temperatures (Kelvin)      0.04743     0.03279     0.02196
 Rotational constants (GHZ):           0.98823     0.68317     0.45759
    1 imaginary frequencies ignored.
 Zero-point vibrational energy     478029.2 (Joules/Mol)
                                  114.25173 (Kcal/Mol)
 Warning -- explicit consideration of  17 degrees of freedom as
           vibrations may cause significant error
 Vibrational temperatures:     59.42    80.15    98.57   154.35   195.83
          (Kelvin)            205.74   232.08   251.92   294.10   336.83
                              382.54   439.19   466.60   567.98   599.84
                              640.42   837.46   933.30  1120.90  1128.06
                             1366.77  1379.56  1435.16  1487.11  1503.18
                             1542.68  1570.90  1648.52  1697.31  1702.90
                             1749.01  1754.12  1801.03  1935.83  1987.04
                             2034.51  2089.42  2118.35  2131.05  2133.33
                             2142.22  2147.14  2153.99  2162.60  2176.39
                             2367.84  2422.93  4403.95  4409.87  4425.58
                             4511.71  4515.32  4522.75  4554.99  4557.46
                             4560.71  4591.31  5075.54  5192.05

 Zero-point correction=                           0.182072 (Hartree/Particle)
 Thermal correction to Energy=                    0.194746
 Thermal correction to Enthalpy=                  0.195691
 Thermal correction to Gibbs Free Energy=         0.141351
 Sum of electronic and zero-point Energies=          -3015.098535
 Sum of electronic and thermal Energies=             -3015.085861
 Sum of electronic and thermal Enthalpies=           -3015.084916
 Sum of electronic and thermal Free Energies=        -3015.139256

                     E (Thermal)             CV                S
                      KCal/Mol        Cal/Mol-Kelvin    Cal/Mol-Kelvin
 Total                  122.205             42.594            114.367
 Electronic               0.000              0.000              0.000
 Translational            0.889              2.981             41.915
 Rotational               0.889              2.981             31.321
 Vibrational            120.428             36.633             41.131
 Vibration     1          0.594              1.981              5.196
 Vibration     2          0.596              1.975              4.604
 Vibration     3          0.598              1.969              4.196
 Vibration     4          0.606              1.943              3.318
 Vibration     5          0.614              1.917              2.858
 Vibration     6          0.616              1.910              2.763
 Vibration     7          0.622              1.890              2.534
 Vibration     8          0.627              1.873              2.380
 Vibration     9          0.640              1.834              2.093
 Vibration    10          0.654              1.789              1.847
 Vibration    11          0.672              1.736              1.623
 Vibration    12          0.696              1.664              1.388
 Vibration    13          0.709              1.627              1.288
 Vibration    14          0.762              1.481              0.982
 Vibration    15          0.780              1.434              0.903
 Vibration    16          0.804              1.372              0.811
 Vibration    17          0.939              1.070              0.482

 Optimization completed.
    -- Stationary point found.
 Normal termination of Gaussian 16 at Tue Apr 13 14:14:58 2021.
