 Gaussian 16, Revision A.03,
 Gaussian 16:  ES64L-G16RevA.03 25-Dec-2016

 ----------------------------------------------------------------------
 # wB97XD def2tzvp, opt=(ts, noeigen, calcfc, maxcycles=70, maxstep=8),
  freq=noraman, scrf=(iefpcm, solvent=water)
 ----------------------------------------------------------------------

 ------------------------
 1_iteration/TS-300-1.out
 ------------------------
 Symbolic Z-matrix:
 Charge =  0 Multiplicity = 1

 SCF Done:  E(RwB97XD) =  -480.977228013     A.U. after   14 cycles
 SCF Done:  E(RwB97XD) =  -480.978312709     A.U. after   12 cycles
 SCF Done:  E(RwB97XD) =  -480.978787986     A.U. after   12 cycles
 SCF Done:  E(RwB97XD) =  -480.978839179     A.U. after   11 cycles
 SCF Done:  E(RwB97XD) =  -480.978840227     A.U. after   11 cycles
 SCF Done:  E(RwB97XD) =  -480.978842579     A.U. after   10 cycles
 SCF Done:  E(RwB97XD) =  -480.978842559     A.U. after    7 cycles
 SCF Done:  E(RwB97XD) =  -480.978842642     A.U. after    8 cycles
 SCF Done:  E(RwB97XD) =  -480.978842614     A.U. after    8 cycles
 SCF Done:  E(RwB97XD) =  -480.978842612     A.U. after    6 cycles
 Optimization completed.
    -- Stationary point found.
 Normal termination of Gaussian 16 at Wed Feb 10 18:33:01 2021.

 ---------------------------------------------------------------------
 #N Geom=AllCheck Guess=TCheck SCRF=Check GenChk RwB97XD/def2TZVP Freq
 ---------------------------------------------------------------------

 Structure from the checkpoint file:  "/beegfs/scratch/user/q/tla25/Gau-24868.chk"
 ------------------------
 1_iteration/TS-300-1.out
 ------------------------
 Charge =  0 Multiplicity = 1

                         Standard orientation:
 ---------------------------------------------------------------------
 Center     Atomic      Atomic             Coordinates (Angstroms)
 Number     Number       Type             X           Y           Z
 ---------------------------------------------------------------------
      1          6           0        0.051524   -0.260477    0.741800
      2          6           0       -1.020080    0.291966   -0.002940
      3          8           0       -1.010681    1.287029   -0.733747
      4          6           0        1.309960    0.376607    0.755955
      5          6           0        2.116587   -1.354908   -1.253150
      6          1           0        1.063669   -1.632492   -1.225670
      7          1           0        2.508237   -1.515304   -2.257209
      8          1           0        2.663299   -1.976607   -0.546277
      9          7           0        2.227966    0.041244   -0.846861
     10          1           0        3.194709    0.335528   -0.768606
     11          1           0        1.766490    0.651694   -1.512035
     12          1           0        2.029849   -0.133682    1.392070
     13          6           0        1.487965    1.875038    0.812109
     14          1           0        0.893494    2.378065    0.054488
     15          1           0        1.153587    2.221971    1.791792
     16          1           0        2.536906    2.155098    0.703580
     17          6           0       -0.106332   -1.621851    1.381716
     18          1           0       -0.863855   -1.628312    2.171502
     19          1           0       -0.393537   -2.403642    0.670398
     20          1           0        0.835705   -1.933416    1.838297
     21          8           0       -2.176740   -0.433917    0.124112
     22          6           0       -3.291944    0.023912   -0.618162
     23          1           0       -4.100422   -0.673085   -0.406097
     24          1           0       -3.587128    1.030107   -0.315684
     25          1           0       -3.083469    0.028754   -1.689408
 ---------------------------------------------------------------------

 SCF Done:  E(RwB97XD) =  -480.978842612     A.U. after    1 cycles

 The electronic state is 1-A.
 Alpha  occ. eigenvalues --  -19.26600 -19.19430 -14.48197 -10.37452 -10.32842
 Alpha  occ. eigenvalues --  -10.31889 -10.31357 -10.26970 -10.26164 -10.24049
 Alpha  occ. eigenvalues --   -1.17531  -1.07801  -1.03706  -0.89804  -0.83805
 Alpha  occ. eigenvalues --   -0.79703  -0.78084  -0.73688  -0.69275  -0.63652
 Alpha  occ. eigenvalues --   -0.61693  -0.56812  -0.56048  -0.55219  -0.54409
 Alpha  occ. eigenvalues --   -0.53407  -0.52024  -0.49344  -0.48647  -0.48259
 Alpha  occ. eigenvalues --   -0.47211  -0.45342  -0.45018  -0.44073  -0.43526
 Alpha  occ. eigenvalues --   -0.41685  -0.40673  -0.36667  -0.33320  -0.25275
 Alpha virt. eigenvalues --    0.07841   0.10179   0.12621   0.13526   0.14820
 Alpha virt. eigenvalues --    0.15430   0.16589   0.17531   0.18080   0.18851
 Alpha virt. eigenvalues --    0.19336   0.19778   0.20004   0.20857   0.20930

 Mulliken charges:
               1
     1  C   -0.273214
     2  C    0.401564
     3  O   -0.559886
     4  C   -0.023548
     5  C   -0.282399
     6  H    0.153107
     7  H    0.155476
     8  H    0.149501
     9  N   -0.309424
    10  H    0.282757
    11  H    0.279526
    12  H    0.138902
    13  C   -0.342586
    14  H    0.142660
    15  H    0.128063
    16  H    0.124711
    17  C   -0.344888
    18  H    0.110059
    19  H    0.103178
    20  H    0.111361
    21  O   -0.316803
    22  C   -0.189645
    23  H    0.129561
    24  H    0.116059
    25  H    0.115903
 Sum of Mulliken charges =  -0.00000

 Dipole moment (field-independent basis, Debye):
    X=              7.2140    Y=             -1.7950    Z=             -1.9164  Tot=              7.6770
 Quadrupole moment (field-independent basis, Debye-Ang):
   XX=            -44.3321   YY=            -66.3816   ZZ=            -61.3522
   XY=              1.5464   XZ=             -3.6406   YZ=              3.8738

  Exact polarizability: 171.746   0.534 130.087  -1.651  -4.192 125.662
 Approx polarizability: 127.756   0.967 106.757  -0.733  -5.574 105.710

 ******    1 imaginary frequencies (negative Signs) ******

                      1                      2                      3
                      A                      A                      A
 Frequencies --   -378.4971                39.5010                62.2548
 Red. masses --      5.6195                 3.1789                 2.3501
 Frc consts  --      0.4743                 0.0029                 0.0054
 IR Inten    --    899.9319                 4.1222                22.3736

                      4                      5                      6
                      A                      A                      A
 Frequencies --     81.9279               131.9677               152.1784
 Red. masses --      3.5005                 2.5944                 1.1472
 Frc consts  --      0.0138                 0.0266                 0.0157
 IR Inten    --     14.1273                13.3183                 5.1671

                      7                      8                      9
                      A                      A                      A
 Frequencies --    160.3144               179.4500               191.8220
 Red. masses --      2.2425                 1.4942                 1.1927
 Frc consts  --      0.0340                 0.0283                 0.0259
 IR Inten    --      9.4553                 3.1956                 1.6816

                     10                     11                     12
                      A                      A                      A
 Frequencies --    202.2681               217.0450               258.8034
 Red. masses --      1.2479                 1.5401                 2.6055
 Frc consts  --      0.0301                 0.0427                 0.1028
 IR Inten    --      2.0880                 4.0209                 5.7284

                     13                     14                     15
                      A                      A                      A
 Frequencies --    284.1489               320.6917               367.3279
 Red. masses --      3.1903                 2.7530                 3.8248
 Frc consts  --      0.1518                 0.1668                 0.3041
 IR Inten    --      6.6716                 7.4736                41.7161

                     16                     17                     18
                      A                      A                      A
 Frequencies --    448.0755               472.0761               537.9349
 Red. masses --      3.1777                 3.5078                 2.5437
 Frc consts  --      0.3759                 0.4606                 0.4337
 IR Inten    --     52.3747                13.6517                 9.2027

                     19                     20                     21
                      A                      A                      A
 Frequencies --    611.2328               713.6026               795.2160
 Red. masses --      4.4359                 1.6086                 7.3551
 Frc consts  --      0.9764                 0.4826                 2.7404
 IR Inten    --     29.8840                15.6774                67.7710

                     22                     23                     24
                      A                      A                      A
 Frequencies --    801.8116               922.3425              1000.7739
 Red. masses --      4.3214                 1.8828                 1.2080
 Frc consts  --      1.6369                 0.9437                 0.7128
 IR Inten    --     43.3088                19.7839                42.0354

                     25                     26                     27
                      A                      A                      A
 Frequencies --   1004.7744              1032.8623              1049.1885
 Red. masses --      1.1219                 1.6811                 1.3237
 Frc consts  --      0.6674                 1.0567                 0.8585
 IR Inten    --     92.7292               122.4864                 5.8023

                     28                     29                     30
                      A                      A                      A
 Frequencies --   1068.2986              1080.4292              1098.3598
 Red. masses --      1.3815                 3.7809                 3.0366
 Frc consts  --      0.9289                 2.6004                 2.1584
 IR Inten    --     12.0793                72.5962                90.8223

                     31                     32                     33
                      A                      A                      A
 Frequencies --   1135.9202              1179.8565              1182.1966
 Red. masses --      2.6067                 3.1887                 1.2823
 Frc consts  --      1.9817                 2.6153                 1.0559
 IR Inten    --     16.8639               259.4936                 0.9024

                     34                     35                     36
                      A                      A                      A
 Frequencies --   1198.8299              1214.7178              1225.4202
 Red. masses --      1.2794                 1.5527                 1.4208
 Frc consts  --      1.0833                 1.3499                 1.2571
 IR Inten    --    297.6371               140.4633                25.3581

                     37                     38                     39
                      A                      A                      A
 Frequencies --   1271.3039              1351.5833              1389.8763
 Red. masses --      2.0756                 1.3067                 2.3632
 Frc consts  --      1.9765                 1.4064                 2.6897
 IR Inten    --     60.9210                 2.8890               359.7631

                     40                     41                     42
                      A                      A                      A
 Frequencies --   1402.4482              1422.1581              1445.0341
 Red. masses --      1.3227                 1.2699                 1.2420
 Frc consts  --      1.5328                 1.5133                 1.5281
 IR Inten    --    113.7517                55.4922                42.3870

                     43                     44                     45
                      A                      A                      A
 Frequencies --   1460.9809              1472.9068              1480.5678
 Red. masses --      1.4586                 1.0495                 1.1986
 Frc consts  --      1.8343                 1.3415                 1.5481
 IR Inten    --    161.8878                 8.4623                42.6693

                     46                     47                     48
                      A                      A                      A
 Frequencies --   1482.3098              1490.0961              1494.3657
 Red. masses --      1.0455                 1.1852                 1.0402
 Frc consts  --      1.3535                 1.5504                 1.3686
 IR Inten    --      9.9030                41.8700                39.9624

                     49                     50                     51
                      A                      A                      A
 Frequencies --   1497.7689              1499.8755              1505.6241
 Red. masses --      1.0454                 1.0623                 1.0884
 Frc consts  --      1.3818                 1.4080                 1.4537
 IR Inten    --      4.9031                 8.4739                 8.5171

                     52                     53                     54
                      A                      A                      A
 Frequencies --   1514.6772              1644.0554              1666.4757
 Red. masses --      1.2990                 1.1057                 8.1168
 Frc consts  --      1.7559                 1.7608                13.2810
 IR Inten    --    198.3566                96.3673               650.7945

                     55                     56                     57
                      A                      A                      A
 Frequencies --   3014.4414              3050.6637              3057.7482
 Red. masses --      1.0393                 1.0311                 1.0998
 Frc consts  --      5.5640                 5.6538                 6.0583
 IR Inten    --    120.6326                80.3259                72.0272

                     58                     59                     60
                      A                      A                      A
 Frequencies --   3061.0578              3069.6003              3102.5270
 Red. masses --      1.0395                 1.0327                 1.0987
 Frc consts  --      5.7390                 5.7332                 6.2309
 IR Inten    --     37.4979                43.8325                43.4887

                     61                     62                     63
                      A                      A                      A
 Frequencies --   3119.8608              3122.9415              3135.3674
 Red. masses --      1.1058                 1.1013                 1.0885
 Frc consts  --      6.3415                 6.3282                 6.3049
 IR Inten    --     52.0166                36.4420                45.4648

                     64                     65                     66
                      A                      A                      A
 Frequencies --   3150.4679              3154.4395              3163.5266
 Red. masses --      1.1052                 1.1044                 1.1056
 Frc consts  --      6.4631                 6.4747                 6.5192
 IR Inten    --     11.7124                35.9784                15.5534

                     67                     68                     69
                      A                      A                      A
 Frequencies --   3182.1178              3520.5787              3604.5161
 Red. masses --      1.0987                 1.0506                 1.0964
 Frc consts  --      6.5551                 7.6718                 8.3930
 IR Inten    --      9.4900                29.3357                45.9711

 - Thermochemistry -
 -------------------
 Temperature   298.150 Kelvin.  Pressure   1.00000 Atm.
 Atom     1 has atomic number  6 and mass  12.00000

 Molecular mass:   145.11028 amu.
 Principal axes and moments of inertia in atomic units:
                           1         2         3
     Eigenvalues --  1004.692502145.331052336.94733
           X            1.00000   0.00266   0.00164
           Y           -0.00271   0.99938   0.03507
           Z           -0.00155  -0.03507   0.99938
 This molecule is an asymmetric top.
 Rotational symmetry number  1.
 Warning -- assumption of classical behavior for rotation
           may cause significant error
 Rotational temperatures (Kelvin)      0.08621     0.04037     0.03706
 Rotational constants (GHZ):           1.79631     0.84124     0.77226
    1 imaginary frequencies ignored.
 Zero-point vibrational energy     576753.1 (Joules/Mol)
                                  137.84729 (Kcal/Mol)
 Warning -- explicit consideration of  18 degrees of freedom as
           vibrations may cause significant error
 Vibrational temperatures:     56.83    89.57   117.88   189.87   218.95
          (Kelvin)            230.66   258.19   275.99   291.02   312.28
                              372.36   408.83   461.40   528.50   644.68
                              679.21   773.97   879.43  1026.71  1144.14
                             1153.63  1327.05  1439.89  1445.65  1486.06
                             1509.55  1537.04  1554.50  1580.29  1634.34
                             1697.55  1700.92  1724.85  1747.71  1763.11
                             1829.12  1944.63  1999.72  2017.81  2046.17
                             2079.08  2102.03  2119.18  2130.21  2132.71
                             2143.92  2150.06  2154.96  2157.99  2166.26
                             2179.28  2365.43  2397.69  4337.11  4389.22
                             4399.42  4404.18  4416.47  4463.84  4488.78
                             4493.22  4511.09  4532.82  4538.53  4551.61
                             4578.36  5065.33  5186.09

 Zero-point correction=                           0.219674 (Hartree/Particle)
 Thermal correction to Energy=                    0.232399
 Thermal correction to Enthalpy=                  0.233343
 Thermal correction to Gibbs Free Energy=         0.180558
 Sum of electronic and zero-point Energies=           -480.759169
 Sum of electronic and thermal Energies=              -480.746444
 Sum of electronic and thermal Enthalpies=            -480.745500
 Sum of electronic and thermal Free Energies=         -480.798285

                     E (Thermal)             CV                S
                      KCal/Mol        Cal/Mol-Kelvin    Cal/Mol-Kelvin
 Total                  145.832             44.151            111.095
 Electronic               0.000              0.000              0.000
 Translational            0.889              2.981             40.828
 Rotational               0.889              2.981             30.000
 Vibrational            144.055             38.189             40.267
 Vibration     1          0.594              1.981              5.284
 Vibration     2          0.597              1.972              4.384
 Vibration     3          0.600              1.962              3.844
 Vibration     4          0.612              1.921              2.917
 Vibration     5          0.619              1.900              2.645
 Vibration     6          0.622              1.891              2.546
 Vibration     7          0.629              1.868              2.334
 Vibration     8          0.634              1.851              2.210
 Vibration     9          0.639              1.837              2.112
 Vibration    10          0.646              1.815              1.984
 Vibration    11          0.668              1.748              1.670
 Vibration    12          0.683              1.703              1.509
 Vibration    13          0.706              1.634              1.307
 Vibration    14          0.740              1.539              1.091
 Vibration    15          0.807              1.365              0.802
 Vibration    16          0.829              1.312              0.732
 Vibration    17          0.893              1.166              0.570
 Vibration    18          0.970              1.008              0.431

 Optimization completed.
    -- Stationary point found.
 Normal termination of Gaussian 16 at Wed Feb 10 18:54:14 2021.
