 Gaussian 16, Revision A.03,
 Gaussian 16:  ES64L-G16RevA.03 25-Dec-2016

 ----------------------------------------------------------------------
 # wB97XD def2tzvp, opt=(ts, noeigen, calcfc, maxcycles=70, maxstep=8),
  freq=noraman, scrf=(iefpcm, solvent=water)
 ----------------------------------------------------------------------

 ------------------------
 0_iteration/TS-333-0.out
 ------------------------
 Symbolic Z-matrix:
 Charge =  0 Multiplicity = 1

 SCF Done:  E(RwB97XD) =  -2956.08688931     A.U. after   14 cycles
 SCF Done:  E(RwB97XD) =  -2956.08682085     A.U. after   12 cycles
 SCF Done:  E(RwB97XD) =  -2956.08689123     A.U. after   11 cycles
 SCF Done:  E(RwB97XD) =  -2956.08743507     A.U. after   14 cycles
 SCF Done:  E(RwB97XD) =  -2956.08791086     A.U. after   14 cycles
 SCF Done:  E(RwB97XD) =  -2956.08812832     A.U. after   12 cycles
 SCF Done:  E(RwB97XD) =  -2956.08816681     A.U. after   11 cycles
 SCF Done:  E(RwB97XD) =  -2956.08816766     A.U. after    9 cycles
 SCF Done:  E(RwB97XD) =  -2956.08816737     A.U. after    8 cycles
 SCF Done:  E(RwB97XD) =  -2956.08816757     A.U. after    7 cycles
 Optimization completed.
    -- Stationary point found.
 Normal termination of Gaussian 16 at Fri Feb 12 12:56:00 2021.

 ---------------------------------------------------------------------
 #N Geom=AllCheck Guess=TCheck SCRF=Check GenChk RwB97XD/def2TZVP Freq
 ---------------------------------------------------------------------

 Structure from the checkpoint file:  "/beegfs/scratch/user/q/tla25/Gau-41772.chk"
 ------------------------
 0_iteration/TS-333-0.out
 ------------------------
 Charge =  0 Multiplicity = 1

                         Standard orientation:
 ---------------------------------------------------------------------
 Center     Atomic      Atomic             Coordinates (Angstroms)
 Number     Number       Type             X           Y           Z
 ---------------------------------------------------------------------
      1          6           0       -0.667365    0.867347   -1.146126
      2          6           0       -1.901977    0.552313   -0.460193
      3          8           0       -2.988380    1.004332   -0.852858
      4          6           0        0.636372    0.564008   -0.833723
      5          6           0        2.728816    1.596879    0.886681
      6          1           0        2.984652    2.309916    1.670649
      7          1           0        3.059617    0.604405    1.183692
      8          1           0        3.236132    1.881739   -0.033924
      9          7           0        1.286839    1.568845    0.642824
     10          1           0        0.770626    1.250287    1.455964
     11          1           0        0.931288    2.485844    0.396578
     12          1           0        1.397977    0.898691   -1.524509
     13         35           0        1.179206   -1.223202   -0.209109
     14          1           0       -0.783079    1.586954   -1.947493
     15          7           0       -1.864888   -0.225070    0.661378
     16          6           0       -3.079557   -0.670409    1.304365
     17          1           0       -1.027118   -0.745266    0.853887
     18          1           0       -2.811987   -1.247566    2.187533
     19          1           0       -3.684175    0.181133    1.616594
     20          1           0       -3.690490   -1.295966    0.647266
 ---------------------------------------------------------------------

 SCF Done:  E(RwB97XD) =  -2956.08816757     A.U. after    1 cycles

 The electronic state is 1-A.
 Alpha  occ. eigenvalues -- -483.13161 -62.68024 -56.47120 -56.46793 -56.46782
 Alpha  occ. eigenvalues --  -19.19277 -14.49132 -14.44012 -10.38616 -10.37056
 Alpha  occ. eigenvalues --  -10.32082 -10.30372 -10.25235  -8.82139  -6.64232
 Alpha  occ. eigenvalues --   -6.63192  -6.63158  -2.74624  -2.74333  -2.74306
 Alpha  occ. eigenvalues --   -2.73466  -2.73465  -1.11901  -1.04455  -1.00610
 Alpha  occ. eigenvalues --   -0.92033  -0.84616  -0.79782  -0.78697  -0.70770
 Alpha  occ. eigenvalues --   -0.65937  -0.63622  -0.59044  -0.57507  -0.55126
 Alpha  occ. eigenvalues --   -0.54372  -0.52965  -0.52126  -0.49225  -0.48478
 Alpha  occ. eigenvalues --   -0.47000  -0.46893  -0.44682  -0.43913  -0.37878
 Alpha  occ. eigenvalues --   -0.37407  -0.33695  -0.32830  -0.27552
 Alpha virt. eigenvalues --    0.04724   0.06633   0.10055   0.12843   0.14502
 Alpha virt. eigenvalues --    0.14867   0.15165   0.17491   0.18117   0.18657
 Alpha virt. eigenvalues --    0.19184   0.19745   0.20361   0.21682   0.23428

 Mulliken charges:
               1
     1  C   -0.442550
     2  C    0.380771
     3  O   -0.568697
     4  C   -0.043126
     5  C   -0.274106
     6  H    0.157194
     7  H    0.153202
     8  H    0.153258
     9  N   -0.304185
    10  H    0.283087
    11  H    0.284077
    12  H    0.189806
    13  Br  -0.149058
    14  H    0.136098
    15  N   -0.316935
    16  C   -0.253852
    17  H    0.230934
    18  H    0.137102
    19  H    0.126789
    20  H    0.120192
 Sum of Mulliken charges =  -0.00000

 Dipole moment (field-independent basis, Debye):
    X=              9.1118    Y=              1.9806    Z=              5.3932  Tot=             10.7719
 Quadrupole moment (field-independent basis, Debye-Ang):
   XX=            -79.8203   YY=            -61.7247   ZZ=            -66.3242
   XY=             17.4595   XZ=             -7.5809   YZ=              2.3745

  Exact polarizability: 184.009  -2.262 138.737  14.615  -6.755 126.036
 Approx polarizability: 135.729  -4.679 114.590  10.785  -6.919 107.123

 ******    1 imaginary frequencies (negative Signs) ******

                      1                      2                      3
                      A                      A                      A
 Frequencies --   -399.9223                41.6998                72.2693
 Red. masses --      5.8066                 2.9246                 4.8361
 Frc consts  --      0.5472                 0.0030                 0.0149
 IR Inten    --    768.2384                 3.8244                12.3867

                      4                      5                      6
                      A                      A                      A
 Frequencies --     74.6923               119.3972               142.8696
 Red. masses --      2.2369                 3.6518                 1.7990
 Frc consts  --      0.0074                 0.0307                 0.0216
 IR Inten    --     13.0764                11.0089                 7.5787

                      7                      8                      9
                      A                      A                      A
 Frequencies --    156.0148               169.3267               184.8722
 Red. masses --      1.7030                 1.4733                 2.5918
 Frc consts  --      0.0244                 0.0249                 0.0522
 IR Inten    --      0.8261                13.2415                22.5517

                     10                     11                     12
                      A                      A                      A
 Frequencies --    253.9518               293.3430               338.4418
 Red. masses --      4.4998                 2.7963                 5.2344
 Frc consts  --      0.1710                 0.1418                 0.3533
 IR Inten    --     16.0490                 3.9759                29.7096

                     13                     14                     15
                      A                      A                      A
 Frequencies --    393.3644               467.1096               491.5338
 Red. masses --      2.2386                 1.5510                 3.5069
 Frc consts  --      0.2041                 0.1994                 0.4992
 IR Inten    --     23.4651               207.1037               131.9560

                     16                     17                     18
                      A                      A                      A
 Frequencies --    600.4863               652.8906               679.7622
 Red. masses --      2.6110                 1.7050                 1.6342
 Frc consts  --      0.5547                 0.4282                 0.4449
 IR Inten    --     14.2680                87.0596                48.3352

                     19                     20                     21
                      A                      A                      A
 Frequencies --    766.3854               795.7650               890.6944
 Red. masses --      3.0380                 7.0646                 2.8817
 Frc consts  --      1.0513                 2.6358                 1.3470
 IR Inten    --     47.6217                94.7430                 6.3096

                     22                     23                     24
                      A                      A                      A
 Frequencies --   1005.3202              1043.9142              1075.1012
 Red. masses --      1.0811                 1.2749                 3.2658
 Frc consts  --      0.6438                 0.8186                 2.2240
 IR Inten    --     19.8160                22.9935               185.2884

                     25                     26                     27
                      A                      A                      A
 Frequencies --   1118.7650              1149.1801              1152.5177
 Red. masses --      2.3943                 1.1346                 1.3092
 Frc consts  --      1.7657                 0.8828                 1.0246
 IR Inten    --     56.3528                61.5256                 3.3732

                     28                     29                     30
                      A                      A                      A
 Frequencies --   1182.7793              1213.2209              1233.3763
 Red. masses --      1.5283                 1.4552                 1.3853
 Frc consts  --      1.2597                 1.2620                 1.2416
 IR Inten    --     22.2920                72.8127                37.9863

                     31                     32                     33
                      A                      A                      A
 Frequencies --   1277.6328              1334.9766              1350.8261
 Red. masses --      1.4843                 1.4291                 1.6857
 Frc consts  --      1.4275                 1.5005                 1.8122
 IR Inten    --    463.5397                61.0508               140.5641

                     34                     35                     36
                      A                      A                      A
 Frequencies --   1453.0969              1458.2566              1476.9045
 Red. masses --      1.3693                 1.1920                 1.2957
 Frc consts  --      1.7035                 1.4935                 1.6652
 IR Inten    --     67.4148                16.7825               141.9560

                     37                     38                     39
                      A                      A                      A
 Frequencies --   1481.0196              1491.2109              1503.0515
 Red. masses --      1.8983                 1.0468                 1.0361
 Frc consts  --      2.4532                 1.3715                 1.3791
 IR Inten    --    288.0458                19.9172                17.8756

                     40                     41                     42
                      A                      A                      A
 Frequencies --   1507.9598              1560.8826              1639.4586
 Red. masses --      1.1048                 1.8677                 1.1167
 Frc consts  --      1.4801                 2.6809                 1.7684
 IR Inten    --     32.1646               422.4736               166.9174

                     43                     44                     45
                      A                      A                      A
 Frequencies --   1647.9247              3040.1097              3071.2107
 Red. masses --      5.1105                 1.0428                 1.0339
 Frc consts  --      8.1769                 5.6786                 5.7457
 IR Inten    --    963.8075                91.3739                43.6390

                     46                     47                     48
                      A                      A                      A
 Frequencies --   3110.0696              3149.2324              3155.1606
 Red. masses --      1.0946                 1.1050                 1.1029
 Frc consts  --      6.2381                 6.4569                 6.4689
 IR Inten    --     44.9821                14.7600                24.8531

                     49                     50                     51
                      A                      A                      A
 Frequencies --   3173.6530              3189.7676              3217.1741
 Red. masses --      1.1052                 1.0859                 1.0936
 Frc consts  --      6.5584                 6.5099                 6.6691
 IR Inten    --     10.9321                 1.9873                 4.4407

                     52                     53                     54
                      A                      A                      A
 Frequencies --   3514.8607              3597.1743              3650.8369
 Red. masses --      1.0511                 1.0967                 1.0776
 Frc consts  --      7.6508                 8.3611                 8.4628
 IR Inten    --     26.9436                48.6273               104.4554

 - Thermochemistry -
 -------------------
 Temperature   298.150 Kelvin.  Pressure   1.00000 Atm.
 Atom     1 has atomic number  6 and mass  12.00000

 Molecular mass:   194.00547 amu.
 Principal axes and moments of inertia in atomic units:
                           1         2         3
     Eigenvalues --  1232.899662707.262533194.90411
           X            0.99566   0.09262  -0.00906
           Y           -0.09278   0.99547  -0.02054
           Z            0.00712   0.02129   0.99975
 This molecule is an asymmetric top.
 Rotational symmetry number  1.
 Warning -- assumption of classical behavior for rotation
           may cause significant error
 Rotational temperatures (Kelvin)      0.07025     0.03199     0.02711
 Rotational constants (GHZ):           1.46382     0.66663     0.56488
    1 imaginary frequencies ignored.
 Zero-point vibrational energy     435509.5 (Joules/Mol)
                                  104.08926 (Kcal/Mol)
 Warning -- explicit consideration of  15 degrees of freedom as
           vibrations may cause significant error
 Vibrational temperatures:     60.00   103.98   107.47   171.79   205.56
          (Kelvin)            224.47   243.62   265.99   365.38   422.06
                              486.94   565.96   672.07   707.21   863.97
                              939.36   978.03  1102.66  1144.93  1281.51
                             1446.43  1501.96  1546.83  1609.65  1653.41
                             1658.22  1701.76  1745.55  1774.55  1838.23
                             1920.73  1943.54  2090.68  2098.11  2124.94
                             2130.86  2145.52  2162.56  2169.62  2245.76
                             2358.82  2371.00  4374.04  4418.79  4474.70
                             4531.04  4539.57  4566.18  4589.36  4628.80
                             5057.10  5175.53  5252.74

 Zero-point correction=                           0.165877 (Hartree/Particle)
 Thermal correction to Energy=                    0.177319
 Thermal correction to Enthalpy=                  0.178264
 Thermal correction to Gibbs Free Energy=         0.126874
 Sum of electronic and zero-point Energies=          -2955.922291
 Sum of electronic and thermal Energies=             -2955.910848
 Sum of electronic and thermal Enthalpies=           -2955.909904
 Sum of electronic and thermal Free Energies=        -2955.961294

                     E (Thermal)             CV                S
                      KCal/Mol        Cal/Mol-Kelvin    Cal/Mol-Kelvin
 Total                  111.270             38.644            108.159
 Electronic               0.000              0.000              0.000
 Translational            0.889              2.981             41.693
 Rotational               0.889              2.981             30.745
 Vibrational            109.492             32.683             35.720
 Vibration     1          0.594              1.981              5.177
 Vibration     2          0.598              1.967              4.091
 Vibration     3          0.599              1.966              4.026
 Vibration     4          0.609              1.933              3.110
 Vibration     5          0.616              1.910              2.765
 Vibration     6          0.620              1.896              2.598
 Vibration     7          0.625              1.880              2.443
 Vibration     8          0.631              1.860              2.279
 Vibration     9          0.665              1.756              1.703
 Vibration    10          0.688              1.686              1.455
 Vibration    11          0.719              1.599              1.219
 Vibration    12          0.761              1.484              0.987
 Vibration    13          0.824              1.323              0.746
 Vibration    14          0.847              1.269              0.680
 Vibration    15          0.959              1.031              0.449

 Optimization completed.
    -- Stationary point found.
 Normal termination of Gaussian 16 at Fri Feb 12 13:06:35 2021.
