 Gaussian 16, Revision A.03,
 Gaussian 16:  ES64L-G16RevA.03 25-Dec-2016

 ----------------------------------------------------------------------
 # wB97XD def2tzvp, opt=(ts, noeigen, calcfc, maxcycles=70, maxstep=8),
  freq=noraman, scrf=(iefpcm, solvent=water)
 ----------------------------------------------------------------------

 ------------------------
 0_iteration/TS-379-0.out
 ------------------------
 Symbolic Z-matrix:
 Charge =  0 Multiplicity = 1

 SCF Done:  E(RwB97XD) =  -842.091091373     A.U. after   15 cycles
 SCF Done:  E(RwB97XD) =  -842.091082217     A.U. after   12 cycles
 SCF Done:  E(RwB97XD) =  -842.091300667     A.U. after   11 cycles
 SCF Done:  E(RwB97XD) =  -842.092008766     A.U. after   12 cycles
 SCF Done:  E(RwB97XD) =  -842.093250364     A.U. after   13 cycles
 SCF Done:  E(RwB97XD) =  -842.094397533     A.U. after   13 cycles
 SCF Done:  E(RwB97XD) =  -842.095082752     A.U. after   12 cycles
 SCF Done:  E(RwB97XD) =  -842.095271220     A.U. after   12 cycles
 SCF Done:  E(RwB97XD) =  -842.095281766     A.U. after   12 cycles
 SCF Done:  E(RwB97XD) =  -842.095295446     A.U. after   11 cycles
 SCF Done:  E(RwB97XD) =  -842.095285588     A.U. after   11 cycles
 SCF Done:  E(RwB97XD) =  -842.095297022     A.U. after   11 cycles
 SCF Done:  E(RwB97XD) =  -842.095296919     A.U. after    7 cycles
 SCF Done:  E(RwB97XD) =  -842.095296972     A.U. after    6 cycles
 Optimization completed.
    -- Stationary point found.
 Normal termination of Gaussian 16 at Fri Feb 12 12:40:33 2021.

 ---------------------------------------------------------------------
 #N Geom=AllCheck Guess=TCheck SCRF=Check GenChk RwB97XD/def2TZVP Freq
 ---------------------------------------------------------------------

 Structure from the checkpoint file:  "/beegfs/scratch/user/q/tla25/Gau-46877.chk"
 ------------------------
 0_iteration/TS-379-0.out
 ------------------------
 Charge =  0 Multiplicity = 1

                         Standard orientation:
 ---------------------------------------------------------------------
 Center     Atomic      Atomic             Coordinates (Angstroms)
 Number     Number       Type             X           Y           Z
 ---------------------------------------------------------------------
      1          6           0       -0.671763    0.186786   -0.628111
      2          6           0       -1.535662   -0.434178    0.346745
      3          8           0       -2.749823   -0.191482    0.394175
      4          6           0        0.702111    0.055132   -0.687595
      5          6           0        1.102040    2.259805    0.889999
      6          1           0        1.503040    2.735095    1.784194
      7          1           0        1.380836    2.841046    0.012880
      8          1           0        0.015577    2.218488    0.957555
      9          7           0        1.601477    0.897974    0.739766
     10          1           0        2.602061    0.867499    0.579101
     11          1           0        1.394779    0.336161    1.558518
     12          1           0        1.205536    0.597087   -1.476565
     13         17           0        1.543616   -1.538703   -0.525030
     14          6           0       -1.317036    1.219438   -1.524315
     15          1           0       -0.588072    1.644080   -2.216604
     16          1           0       -2.122258    0.782623   -2.120609
     17          1           0       -1.756409    2.046824   -0.958780
     18          7           0       -0.992503   -1.262385    1.309295
     19          1           0       -0.143540   -1.760680    1.100187
     20          1           0       -1.675398   -1.789451    1.828464
 ---------------------------------------------------------------------

 SCF Done:  E(RwB97XD) =  -842.095296972     A.U. after    1 cycles

 The electronic state is 1-A.
 Alpha  occ. eigenvalues -- -101.69789 -19.19468 -14.49240 -14.43060 -10.38643
 Alpha  occ. eigenvalues --  -10.37048 -10.31894 -10.26830 -10.25802  -9.58394
 Alpha  occ. eigenvalues --   -7.32992  -7.32193  -7.32169  -1.11845  -1.04830
 Alpha  occ. eigenvalues --   -0.98736  -0.95813  -0.87715  -0.79314  -0.76675
 Alpha  occ. eigenvalues --   -0.72738  -0.64635  -0.63058  -0.59579  -0.57749
 Alpha  occ. eigenvalues --   -0.56822  -0.54585  -0.53358  -0.50390  -0.49228
 Alpha  occ. eigenvalues --   -0.48211  -0.46558  -0.46265  -0.45167  -0.44596
 Alpha  occ. eigenvalues --   -0.40086  -0.38950  -0.35101  -0.33198  -0.26823
 Alpha virt. eigenvalues --    0.05986   0.08173   0.10492   0.12937   0.13678
 Alpha virt. eigenvalues --    0.15142   0.16740   0.17498   0.18087   0.19138
 Alpha virt. eigenvalues --    0.19761   0.20166   0.21285   0.22831   0.24411

 Mulliken charges:
               1
     1  C   -0.201185
     2  C    0.267349
     3  O   -0.539563
     4  C   -0.058703
     5  C   -0.288507
     6  H    0.161924
     7  H    0.156628
     8  H    0.159503
     9  N   -0.301277
    10  H    0.291332
    11  H    0.280530
    12  H    0.194747
    13  Cl  -0.153995
    14  C   -0.336550
    15  H    0.117512
    16  H    0.116386
    17  H    0.108727
    18  N   -0.475790
    19  H    0.245126
    20  H    0.255806
 Sum of Mulliken charges =  -0.00000

 Dipole moment (field-independent basis, Debye):
    X=              9.5241    Y=              2.8986    Z=              2.2774  Tot=             10.2126
 Quadrupole moment (field-independent basis, Debye-Ang):
   XX=            -73.5447   YY=            -55.0244   ZZ=            -58.7885
   XY=              7.6039   XZ=              3.9039   YZ=             -2.3043

  Exact polarizability: 164.009  -0.925 127.614   2.546  -3.497 113.601
 Approx polarizability: 130.831  -2.761 103.760   1.155  -3.005  96.328

 ******    1 imaginary frequencies (negative Signs) ******

                      1                      2                      3
                      A                      A                      A
 Frequencies --   -404.2165                62.1439                88.5124
 Red. masses --      5.7199                 3.3139                 4.5975
 Frc consts  --      0.5506                 0.0075                 0.0212
 IR Inten    --    730.6914                 4.0899                 4.6350

                      4                      5                      6
                      A                      A                      A
 Frequencies --     98.3746               149.1602               169.6273
 Red. masses --      2.2692                 2.9451                 1.0748
 Frc consts  --      0.0129                 0.0386                 0.0182
 IR Inten    --     36.0968                 2.8828                 2.9692

                      7                      8                      9
                      A                      A                      A
 Frequencies --    200.0800               209.8573               232.1795
 Red. masses --      1.7696                 2.3900                 3.6907
 Frc consts  --      0.0417                 0.0620                 0.1172
 IR Inten    --      8.4934                 2.5226                 1.7377

                     10                     11                     12
                      A                      A                      A
 Frequencies --    308.1388               311.2235               357.2156
 Red. masses --      3.2087                 3.7074                 5.4846
 Frc consts  --      0.1795                 0.2116                 0.4123
 IR Inten    --     21.0090                13.2851                15.2473

                     13                     14                     15
                      A                      A                      A
 Frequencies --    443.5472               491.6990               507.6282
 Red. masses --      2.7677                 1.2497                 1.7900
 Frc consts  --      0.3208                 0.1780                 0.2718
 IR Inten    --    120.6628               117.8598               223.9876

                     16                     17                     18
                      A                      A                      A
 Frequencies --    533.8568               595.0742               676.7432
 Red. masses --      1.7256                 3.1989                 2.6734
 Frc consts  --      0.2898                 0.6674                 0.7214
 IR Inten    --     96.2235                17.9158               113.3347

                     19                     20                     21
                      A                      A                      A
 Frequencies --    751.0641               795.8021               818.7154
 Red. masses --      2.4363                 7.2006                 3.0827
 Frc consts  --      0.8097                 2.6867                 1.2175
 IR Inten    --     59.2818                78.3639                87.7499

                     22                     23                     24
                      A                      A                      A
 Frequencies --   1002.2478              1024.8408              1036.7531
 Red. masses --      1.1460                 1.3802                 1.1274
 Frc consts  --      0.6783                 0.8541                 0.7140
 IR Inten    --     65.1632               122.7037                58.9566

                     25                     26                     27
                      A                      A                      A
 Frequencies --   1062.4638              1085.9674              1092.5987
 Red. masses --      1.3420                 4.6875                 2.1466
 Frc consts  --      0.8926                 3.2571                 1.5098
 IR Inten    --     11.4704                53.2941                69.4271

                     28                     29                     30
                      A                      A                      A
 Frequencies --   1155.9393              1173.1292              1227.6146
 Red. masses --      1.1565                 2.1572                 1.3943
 Frc consts  --      0.9105                 1.7492                 1.2380
 IR Inten    --     55.8027                17.7818                36.9073

                     31                     32                     33
                      A                      A                      A
 Frequencies --   1289.2340              1346.1405              1414.8891
 Red. masses --      1.3485                 1.3193                 1.6903
 Frc consts  --      1.3206                 1.4085                 1.9937
 IR Inten    --     36.5160                 3.7644               115.5330

                     34                     35                     36
                      A                      A                      A
 Frequencies --   1419.7666              1450.7959              1466.8795
 Red. masses --      2.3660                 1.5009                 1.0601
 Frc consts  --      2.8100                 1.8612                 1.3440
 IR Inten    --    370.4932               183.1778                12.3718

                     37                     38                     39
                      A                      A                      A
 Frequencies --   1471.1293              1494.8094              1504.2576
 Red. masses --      1.5684                 1.0445                 1.0445
 Frc consts  --      1.9999                 1.3750                 1.3926
 IR Inten    --    156.3231                45.3116                15.9929

                     40                     41                     42
                      A                      A                      A
 Frequencies --   1512.8861              1618.1805              1639.5133
 Red. masses --      1.3224                 1.5260                 1.1051
 Frc consts  --      1.7833                 2.3542                 1.7502
 IR Inten    --    206.3115               451.9797               138.0400

                     43                     44                     45
                      A                      A                      A
 Frequencies --   1651.0856              3027.6469              3073.7811
 Red. masses --      3.1847                 1.0383                 1.0326
 Frc consts  --      5.1152                 5.6075                 5.7480
 IR Inten    --    695.8950               100.2064                27.9555

                     46                     47                     48
                      A                      A                      A
 Frequencies --   3078.2676              3116.7165              3156.8757
 Red. masses --      1.0998                 1.1000                 1.1055
 Frc consts  --      6.1402                 6.2958                 6.4913
 IR Inten    --     61.5868                41.0159                 8.4760

                     49                     50                     51
                      A                      A                      A
 Frequencies --   3167.4570              3212.8212              3517.4486
 Red. masses --      1.1059                 1.0915                 1.0505
 Frc consts  --      6.5374                 6.6379                 7.6579
 IR Inten    --     14.3061                 5.7723                43.8589

                     52                     53                     54
                      A                      A                      A
 Frequencies --   3591.6219              3602.7361              3704.0940
 Red. masses --      1.0469                 1.0971                 1.1009
 Frc consts  --      7.9571                 8.3903                 8.8991
 IR Inten    --     36.6604                58.5409                96.1232

 - Thermochemistry -
 -------------------
 Temperature   298.150 Kelvin.  Pressure   1.00000 Atm.
 Atom     1 has atomic number  6 and mass  12.00000

 Molecular mass:   150.05599 amu.
 Principal axes and moments of inertia in atomic units:
                           1         2         3
     Eigenvalues --  1247.754331686.113022101.90398
           X            0.99504   0.09189   0.03815
           Y           -0.09008   0.99483  -0.04680
           Z           -0.04225   0.04313   0.99818
 This molecule is an asymmetric top.
 Rotational symmetry number  1.
 Warning -- assumption of classical behavior for rotation
           may cause significant error
 Rotational temperatures (Kelvin)      0.06942     0.05137     0.04121
 Rotational constants (GHZ):           1.44639     1.07036     0.85862
    1 imaginary frequencies ignored.
 Zero-point vibrational energy     437780.8 (Joules/Mol)
                                  104.63212 (Kcal/Mol)
 Warning -- explicit consideration of  16 degrees of freedom as
           vibrations may cause significant error
 Vibrational temperatures:     89.41   127.35   141.54   214.61   244.06
          (Kelvin)            287.87   301.94   334.05   443.34   447.78
                              513.95   638.17   707.45   730.36   768.10
                              856.18   973.68  1080.61  1144.98  1177.95
                             1442.01  1474.52  1491.66  1528.65  1562.46
                             1572.01  1663.14  1687.87  1766.26  1854.92
                             1936.80  2035.71  2042.73  2087.37  2110.51
                             2116.63  2150.70  2164.29  2176.71  2328.20
                             2358.89  2375.54  4356.11  4422.49  4428.94
                             4484.26  4542.04  4557.26  4622.53  5060.82
                             5167.54  5183.53  5329.37

 Zero-point correction=                           0.166742 (Hartree/Particle)
 Thermal correction to Energy=                    0.177683
 Thermal correction to Enthalpy=                  0.178627
 Thermal correction to Gibbs Free Energy=         0.130010
 Sum of electronic and zero-point Energies=           -841.928555
 Sum of electronic and thermal Energies=              -841.917614
 Sum of electronic and thermal Enthalpies=            -841.916670
 Sum of electronic and thermal Free Energies=         -841.965287

                     E (Thermal)             CV                S
                      KCal/Mol        Cal/Mol-Kelvin    Cal/Mol-Kelvin
 Total                  111.498             38.634            102.323
 Electronic               0.000              0.000              0.000
 Translational            0.889              2.981             40.928
 Rotational               0.889              2.981             29.871
 Vibrational            109.720             32.672             31.525
 Vibration     1          0.597              1.972              4.388
 Vibration     2          0.601              1.957              3.693
 Vibration     3          0.604              1.950              3.486
 Vibration     4          0.618              1.904              2.683
 Vibration     5          0.625              1.880              2.440
 Vibration     6          0.638              1.840              2.132
 Vibration     7          0.642              1.826              2.045
 Vibration     8          0.653              1.792              1.862
 Vibration     9          0.698              1.658              1.372
 Vibration    10          0.700              1.652              1.356
 Vibration    11          0.732              1.560              1.134
 Vibration    12          0.803              1.375              0.816
 Vibration    13          0.847              1.268              0.679
 Vibration    14          0.863              1.233              0.639
 Vibration    15          0.889              1.175              0.579
 Vibration    16          0.953              1.042              0.458

 Optimization completed.
    -- Stationary point found.
 Normal termination of Gaussian 16 at Fri Feb 12 12:56:08 2021.
