 Gaussian 16, Revision A.03,
 Gaussian 16:  ES64L-G16RevA.03 25-Dec-2016

 ----------------------------------------------------------------------
 # wB97XD def2tzvp, opt=(ts, noeigen, calcfc, maxcycles=70, maxstep=8),
  freq=noraman, scrf=(iefpcm, solvent=water)
 ----------------------------------------------------------------------

 -----------------------
 1_iteration/TS-30-1.out
 -----------------------
 Symbolic Z-matrix:
 Charge =  0 Multiplicity = 1

 SCF Done:  E(RwB97XD) =  -3457.49368305     A.U. after   15 cycles
 Optimization completed.
    -- Stationary point found.
 Normal termination of Gaussian 16 at Sat Apr 17 10:07:38 2021.

 ---------------------------------------------------------------------
 #N Geom=AllCheck Guess=TCheck SCRF=Check GenChk RwB97XD/def2TZVP Freq
 ---------------------------------------------------------------------

 Structure from the checkpoint file:  "/beegfs/scratch/user/q/tla25/Gau-167484.chk"
 -----------------------
 1_iteration/TS-30-1.out
 -----------------------
 Charge =  0 Multiplicity = 1

                         Standard orientation:
 ---------------------------------------------------------------------
 Center     Atomic      Atomic             Coordinates (Angstroms)
 Number     Number       Type             X           Y           Z
 ---------------------------------------------------------------------
      1          6           0        0.847511   -0.344981   -0.024620
      2          6           0        2.059052    0.367968    0.334410
      3          8           0        2.051823    1.216668    1.252470
      4          6           0       -0.414338    0.175201    0.357600
      5          6           0        0.025310   -0.905770    2.931970
      6          1           0        0.234510   -0.675200    3.976620
      7          1           0       -0.748111   -1.667989    2.877980
      8          1           0        0.930790   -1.287791    2.467090
      9          7           0       -0.387418    0.301571    2.216650
     10          1           0       -1.198768    0.732822    2.642630
     11          1           0        0.393893    0.963970    2.222420
     12          6           0       -1.644009   -0.626307   -0.018070
     13          6           0       -1.840920   -0.868657   -1.378710
     14          6           0       -2.965091   -1.535806   -1.828340
     15          6           0       -3.925891   -1.973304   -0.924960
     16          6           0       -3.748141   -1.724765    0.424180
     17          6           0       -2.618060   -1.051106    0.873890
     18          1           0       -1.096509   -0.527178   -2.086960
     19          1           0       -3.093051   -1.714465   -2.888490
     20          1           0       -4.806182   -2.497993   -1.273500
     21          1           0       -4.490371   -2.051704    1.141230
     22          1           0       -2.525970   -0.868006    1.933820
     23          6           0       -0.677596    1.645351    0.026540
     24          6           0        0.058414    2.301210   -0.954690
     25          6           0       -0.230154    3.611071   -1.306640
     26          6           0       -1.271213    4.289292   -0.692210
     27          6           0       -2.032084    3.637103    0.266580
     28          6           0       -1.742786    2.327043    0.612170
     29          1           0        0.858804    1.776829   -1.457660
     30          1           0        0.361307    4.099670   -2.070740
     31          1           0       -1.497622    5.311422   -0.967530
     32          1           0       -2.862813    4.143574    0.741280
     33          1           0       -2.384206    1.831844    1.329970
     34         35           0        1.021148   -2.250251   -0.280070
     35          7           0        3.221901    0.112866   -0.327410
     36          6           0        3.276971   -0.378994   -1.687460
     37          6           0        4.458222    0.662694    0.183260
     38          1           0        2.276551   -0.430573   -2.108840
     39          1           0        3.871432    0.311115   -2.292700
     40          1           0        3.735430   -1.369545   -1.743260
     41          1           0        4.408672    0.746224    1.265490
     42          1           0        5.280451   -0.001277   -0.088100
     43          1           0        4.664424    1.655174   -0.232190
 ---------------------------------------------------------------------

 SCF Done:  E(RwB97XD) =  -3457.49368305     A.U. after    1 cycles

 The electronic state is 1-A.
 Alpha  occ. eigenvalues -- -483.11494 -62.66291 -56.45400 -56.45066 -56.45059
 Alpha  occ. eigenvalues --  -19.20484 -14.48360 -14.45334 -10.37766 -10.36540
 Alpha  occ. eigenvalues --  -10.31495 -10.31056 -10.30906 -10.30513 -10.30272
 Alpha  occ. eigenvalues --  -10.29535 -10.29472 -10.29266 -10.29249 -10.29225
 Alpha  occ. eigenvalues --  -10.29219 -10.29158 -10.29153 -10.29104 -10.29072
 Alpha  occ. eigenvalues --  -10.29060  -8.80377  -6.62482  -6.61419  -6.61397
 Alpha  occ. eigenvalues --   -2.72876  -2.72570  -2.72552  -2.71692  -2.71691
 Alpha  occ. eigenvalues --   -1.13029  -1.04325  -1.02705  -0.98141  -0.96653
 Alpha  occ. eigenvalues --   -0.92436  -0.88055  -0.85634  -0.85359  -0.85233
 Alpha  occ. eigenvalues --   -0.81730  -0.80929  -0.79486  -0.78287  -0.73097
 Alpha  occ. eigenvalues --   -0.71096  -0.70269  -0.70044  -0.66757  -0.64715
 Alpha  occ. eigenvalues --   -0.62508  -0.61565  -0.59888  -0.57915  -0.57149
 Alpha  occ. eigenvalues --   -0.56260  -0.55876  -0.55413  -0.55177  -0.54307
 Alpha  occ. eigenvalues --   -0.53450  -0.52469  -0.51417  -0.51014  -0.50790
 Alpha  occ. eigenvalues --   -0.50495  -0.48463  -0.48329  -0.47947  -0.47141
 Alpha  occ. eigenvalues --   -0.46921  -0.46485  -0.46132  -0.45465  -0.44685
 Alpha  occ. eigenvalues --   -0.43759  -0.42748  -0.42258  -0.42034  -0.38497
 Alpha  occ. eigenvalues --   -0.37198  -0.34939  -0.34406  -0.33907  -0.33672
 Alpha  occ. eigenvalues --   -0.31973  -0.31524  -0.25914
 Alpha virt. eigenvalues --    0.02689   0.04278   0.05135   0.06028   0.06626
 Alpha virt. eigenvalues --    0.09323   0.10756   0.11792   0.13444   0.13567
 Alpha virt. eigenvalues --    0.14508   0.15278   0.15563   0.15767   0.16415

 Mulliken charges:
               1
     1  C   -0.470912
     2  C    0.286852
     3  O   -0.578832
     4  C    0.564484
     5  C   -0.295628
     6  H    0.157824
     7  H    0.149025
     8  H    0.159365
     9  N   -0.306588
    10  H    0.270798
    11  H    0.283559
    12  C    0.159620
    13  C   -0.301176
    14  C   -0.121904
    15  C   -0.147594
    16  C   -0.165153
    17  C   -0.262635
    18  H    0.162002
    19  H    0.142046
    20  H    0.144010
    21  H    0.142749
    22  H    0.158524
    23  C    0.083931
    24  C   -0.212156
    25  C   -0.165641
    26  C   -0.133880
    27  C   -0.178888
    28  C   -0.259100
    29  H    0.169890
    30  H    0.139633
    31  H    0.144025
    32  H    0.142678
    33  H    0.155252
    34  Br  -0.174166
    35  N   -0.094308
    36  C   -0.301015
    37  C   -0.294105
    38  H    0.158336
    39  H    0.138301
    40  H    0.141771
    41  H    0.138517
    42  H    0.138465
    43  H    0.132024
 Sum of Mulliken charges =  -0.00000

 Dipole moment (field-independent basis, Debye):
    X=             -2.9018    Y=              1.1090    Z=              2.0037  Tot=              3.6966
 Quadrupole moment (field-independent basis, Debye-Ang):
   XX=           -129.2385   YY=           -145.8651   ZZ=           -125.1027
   XY=             -0.6157   XZ=            -13.4139   YZ=             -4.3924

  Exact polarizability: 370.628  12.355 347.412 -37.903   2.148 325.567
 Approx polarizability: 287.184   7.643 276.209 -30.575   4.169 281.641

 ******    1 imaginary frequencies (negative Signs) ******

                      1                      2                      3
                      A                      A                      A
 Frequencies --   -369.4879                36.6134                49.8509
 Red. masses --      5.2128                 3.9625                 4.5855
 Frc consts  --      0.4193                 0.0031                 0.0067
 IR Inten    --    584.1626                 0.5813                 0.6590

                      4                      5                      6
                      A                      A                      A
 Frequencies --     53.5119                59.9265                67.5919
 Red. masses --      4.1082                 5.1617                 4.1215
 Frc consts  --      0.0069                 0.0109                 0.0111
 IR Inten    --      1.1243                 0.1906                 4.5396

                      7                      8                      9
                      A                      A                      A
 Frequencies --     79.9064               100.5992               114.7106
 Red. masses --      4.2086                 3.3870                 1.8788
 Frc consts  --      0.0158                 0.0202                 0.0146
 IR Inten    --      1.5722                 1.5410                 1.7497

                     10                     11                     12
                      A                      A                      A
 Frequencies --    128.9560               138.1341               154.9830
 Red. masses --      1.8167                 2.6778                 2.2727
 Frc consts  --      0.0178                 0.0301                 0.0322
 IR Inten    --      4.0674                 5.0090                11.1448

                     13                     14                     15
                      A                      A                      A
 Frequencies --    160.7140               168.5881               194.9342
 Red. masses --      2.8128                 1.8101                 3.7722
 Frc consts  --      0.0428                 0.0303                 0.0845
 IR Inten    --      8.7790                 1.8110                 4.2388

                     16                     17                     18
                      A                      A                      A
 Frequencies --    202.5495               221.7341               244.0639
 Red. masses --      3.0957                 2.6905                 3.1657
 Frc consts  --      0.0748                 0.0779                 0.1111
 IR Inten    --     21.0921                 3.0269                 2.8945

                     19                     20                     21
                      A                      A                      A
 Frequencies --    250.2833               263.5096               275.4361
 Red. masses --      3.6764                 4.1219                 2.3147
 Frc consts  --      0.1357                 0.1686                 0.1035
 IR Inten    --     20.6994                 3.8653                 4.6755

                     22                     23                     24
                      A                      A                      A
 Frequencies --    295.7845               303.7343               326.4831
 Red. masses --      3.2525                 3.6943                 3.7947
 Frc consts  --      0.1677                 0.2008                 0.2383
 IR Inten    --      7.2275                12.5138                15.3747

                     25                     26                     27
                      A                      A                      A
 Frequencies --    394.1979               423.3011               424.4339
 Red. masses --      4.0103                 3.3344                 2.9251
 Frc consts  --      0.3672                 0.3520                 0.3105
 IR Inten    --     56.0953                 3.0405                 1.3147

                     28                     29                     30
                      A                      A                      A
 Frequencies --    428.3928               477.4767               492.6225
 Red. masses --      3.2860                 4.3870                 3.7090
 Frc consts  --      0.3553                 0.5893                 0.5303
 IR Inten    --      1.5056                 6.1835                 8.9287

                     31                     32                     33
                      A                      A                      A
 Frequencies --    536.8929               600.7933               631.7045
 Red. masses --      3.6140                 3.8955                 6.2268
 Frc consts  --      0.6138                 0.8284                 1.4640
 IR Inten    --      7.9620               142.5814                33.9404

                     34                     35                     36
                      A                      A                      A
 Frequencies --    638.2143               646.6202               651.6018
 Red. masses --      6.3809                 4.1047                 6.4814
 Frc consts  --      1.5313                 1.0112                 1.6214
 IR Inten    --      1.0623                37.4840               113.4495

                     37                     38                     39
                      A                      A                      A
 Frequencies --    671.7540               721.1329               726.8386
 Red. masses --      5.3244                 2.0717                 1.7405
 Frc consts  --      1.4156                 0.6348                 0.5418
 IR Inten    --      7.7317                75.5589                72.8846

                     40                     41                     42
                      A                      A                      A
 Frequencies --    730.6820               777.8412               789.4314
 Red. masses --      1.5622                 2.2083                 2.6831
 Frc consts  --      0.4914                 0.7872                 0.9852
 IR Inten    --    134.6741                34.8405                77.0409

                     43                     44                     45
                      A                      A                      A
 Frequencies --    791.7462               838.1811               871.7998
 Red. masses --      4.0355                 3.2020                 3.6178
 Frc consts  --      1.4905                 1.3254                 1.6200
 IR Inten    --     33.2298                 3.1191                10.6186

                     46                     47                     48
                      A                      A                      A
 Frequencies --    875.1041               879.3354               951.0733
 Red. masses --      1.3193                 1.3282                 1.5769
 Frc consts  --      0.5953                 0.6051                 0.8404
 IR Inten    --      1.5764                 1.4457                 2.8176

                     49                     50                     51
                      A                      A                      A
 Frequencies --    962.9844               978.4959              1008.6283
 Red. masses --      1.5329                 2.7459                 1.2992
 Frc consts  --      0.8375                 1.5490                 0.7787
 IR Inten    --     13.3489                 9.8332                39.4999

                     52                     53                     54
                      A                      A                      A
 Frequencies --   1014.4550              1020.6971              1025.9532
 Red. masses --      1.3504                 1.4685                 5.0740
 Frc consts  --      0.8188                 0.9014                 3.1467
 IR Inten    --     12.0279                20.6937                 1.4703

                     55                     56                     57
                      A                      A                      A
 Frequencies --   1027.6131              1030.4505              1032.5102
 Red. masses --      3.5546                 1.3175                 1.3407
 Frc consts  --      2.2116                 0.8242                 0.8421
 IR Inten    --      9.4281                 2.2539                 5.4277

                     58                     59                     60
                      A                      A                      A
 Frequencies --   1051.6358              1066.1129              1069.2106
 Red. masses --      3.0253                 2.2923                 2.1237
 Frc consts  --      1.9713                 1.5350                 1.4305
 IR Inten    --     91.2846                 5.4072                41.6674

                     61                     62                     63
                      A                      A                      A
 Frequencies --   1077.3599              1091.3593              1121.2948
 Red. masses --      3.3253                 1.3742                 1.5586
 Frc consts  --      2.2740                 0.9644                 1.1546
 IR Inten    --      8.1577                19.6929                 2.4457

                     64                     65                     66
                      A                      A                      A
 Frequencies --   1122.5196              1128.0543              1133.3852
 Red. masses --      1.5498                 1.3834                 1.2296
 Frc consts  --      1.1506                 1.0372                 0.9306
 IR Inten    --      0.7331                70.2087                 1.0425

                     67                     68                     69
                      A                      A                      A
 Frequencies --   1164.6416              1170.8010              1185.0568
 Red. masses --      2.4052                 1.5521                 1.1252
 Frc consts  --      1.9221                 1.2535                 0.9310
 IR Inten    --      0.7599                13.8904                 0.0342

                     70                     71                     72
                      A                      A                      A
 Frequencies --   1185.5902              1214.7714              1219.5430
 Red. masses --      1.1314                 1.1306                 1.1514
 Frc consts  --      0.9370                 0.9830                 1.0089
 IR Inten    --      0.2989                 4.1588                15.0276

                     73                     74                     75
                      A                      A                      A
 Frequencies --   1232.5176              1249.7889              1268.6658
 Red. masses --      3.0317                 3.3472                 1.5602
 Frc consts  --      2.7134                 3.0804                 1.4796
 IR Inten    --    298.7966                 4.8034                78.7422

                     76                     77                     78
                      A                      A                      A
 Frequencies --   1313.7700              1320.1855              1322.4259
 Red. masses --      5.1602                 4.1964                 4.6077
 Frc consts  --      5.2475                 4.3092                 4.7477
 IR Inten    --      7.6739                 2.3000                61.0734

                     79                     80                     81
                      A                      A                      A
 Frequencies --   1355.0359              1364.1726              1373.9505
 Red. masses --      1.7857                 1.5120                 1.6920
 Frc consts  --      1.9318                 1.6578                 1.8819
 IR Inten    --     86.2980                28.9193               183.0169

                     82                     83                     84
                      A                      A                      A
 Frequencies --   1391.2256              1432.0481              1446.7859
 Red. masses --      1.7936                 2.0779                 1.1756
 Frc consts  --      2.0454                 2.5106                 1.4498
 IR Inten    --    379.1840               297.7797                17.9556

                     85                     86                     87
                      A                      A                      A
 Frequencies --   1454.3027              1474.7186              1484.2468
 Red. masses --      1.2081                 1.2269                 1.0950
 Frc consts  --      1.5054                 1.5721                 1.4213
 IR Inten    --      1.1860                85.8967                12.2249

                     88                     89                     90
                      A                      A                      A
 Frequencies --   1488.2308              1492.5695              1492.7267
 Red. masses --      2.1757                 1.0892                 1.4320
 Frc consts  --      2.8392                 1.4297                 1.8800
 IR Inten    --      8.2090                39.2304                32.5529

                     91                     92                     93
                      A                      A                      A
 Frequencies --   1494.3310              1498.4770              1501.9927
 Red. masses --      1.3319                 1.0531                 1.0540
 Frc consts  --      1.7523                 1.3932                 1.4009
 IR Inten    --     13.3541                18.9448                21.4226

                     94                     95                     96
                      A                      A                      A
 Frequencies --   1527.9191              1539.9631              1545.1386
 Red. masses --      1.6864                 2.2299                 2.3083
 Frc consts  --      2.3196                 3.1157                 3.2470
 IR Inten    --    268.6602                28.9206                14.2040

                     97                     98                     99
                      A                      A                      A
 Frequencies --   1582.6179              1635.1443              1651.9450
 Red. masses --      2.3732                 1.4281                 5.7204
 Frc consts  --      3.5021                 2.2496                 9.1974
 IR Inten    --    686.1580                39.2707                 1.0837

                    100                    101                    102
                      A                      A                      A
 Frequencies --   1655.1818              1672.5413              1677.3729
 Red. masses --      5.4224                 5.9677                 5.9279
 Frc consts  --      8.7526                 9.8359                 9.8268
 IR Inten    --      1.8229                 8.5263                 3.0243

                    103                    104                    105
                      A                      A                      A
 Frequencies --   3025.6651              3036.2842              3077.5036
 Red. masses --      1.0469                 1.0385                 1.0358
 Frc consts  --      5.6465                 5.6408                 5.7800
 IR Inten    --     97.9851               116.8528                44.0895

                    106                    107                    108
                      A                      A                      A
 Frequencies --   3090.9786              3102.3244              3157.1331
 Red. masses --      1.1023                 1.0938                 1.1022
 Frc consts  --      6.2049                 6.2026                 6.4730
 IR Inten    --     69.0476                28.6527                17.3279

                    109                    110                    111
                      A                      A                      A
 Frequencies --   3167.9416              3173.0205              3182.3919
 Red. masses --      1.0988                 1.0994                 1.1051
 Frc consts  --      6.4972                 6.5217                 6.5939
 IR Inten    --     13.6745                12.8354                13.4926

                    112                    113                    114
                      A                      A                      A
 Frequencies --   3195.1589              3196.5814              3201.5722
 Red. masses --      1.0859                 1.0860                 1.0887
 Frc consts  --      6.5317                 6.5381                 6.5746
 IR Inten    --      3.4058                 1.0716                 2.7879

                    115                    116                    117
                      A                      A                      A
 Frequencies --   3204.1161              3210.7841              3212.7760
 Red. masses --      1.0891                 1.0930                 1.0937
 Frc consts  --      6.5876                 6.6386                 6.6513
 IR Inten    --      4.7472                28.8695                24.3052

                    118                    119                    120
                      A                      A                      A
 Frequencies --   3221.4620              3222.6276              3230.5142
 Red. masses --      1.0966                 1.0979                 1.0943
 Frc consts  --      6.7053                 6.7181                 6.7284
 IR Inten    --     24.9375                23.8285                 9.4671

                    121                    122                    123
                      A                      A                      A
 Frequencies --   3245.9642              3362.5287              3577.7383
 Red. masses --      1.0916                 1.0674                 1.0822
 Frc consts  --      6.7763                 7.1104                 8.1617
 IR Inten    --     15.5868               202.5059                56.5939

 - Thermochemistry -
 -------------------
 Temperature   298.150 Kelvin.  Pressure   1.00000 Atm.
 Atom     1 has atomic number  6 and mass  12.00000

 Molecular mass:   360.08372 amu.
 Principal axes and moments of inertia in atomic units:
                           1         2         3
     Eigenvalues --  6514.560607485.89354**********
           X            0.99231   0.12324  -0.01170
           Y           -0.12342   0.99223  -0.01569
           Z            0.00967   0.01702   0.99981
 This molecule is an asymmetric top.
 Rotational symmetry number  1.
 Warning -- assumption of classical behavior for rotation
           may cause significant error
 Rotational temperatures (Kelvin)      0.01330     0.01157     0.00806
 Rotational constants (GHZ):           0.27703     0.24109     0.16787
    1 imaginary frequencies ignored.
 Zero-point vibrational energy     939080.2 (Joules/Mol)
                                  224.44556 (Kcal/Mol)
 Warning -- explicit consideration of  31 degrees of freedom as
           vibrations may cause significant error
 Vibrational temperatures:     52.68    71.72    76.99    86.22    97.25
          (Kelvin)            114.97   144.74   165.04   185.54   198.74
                              222.99   231.23   242.56   280.47   291.42
                              319.03   351.15   360.10   379.13   396.29
                              425.57   437.01   469.74   567.16   609.04
                              610.67   616.36   686.98   708.77   772.47
                              864.41   908.88   918.25   930.34   937.51
                              966.50  1037.55  1045.76  1051.29  1119.14
                             1135.82  1139.15  1205.96  1254.33  1259.08
                             1265.17  1368.38  1385.52  1407.84  1451.19
                             1459.57  1468.56  1476.12  1478.51  1482.59
                             1485.55  1513.07  1533.90  1538.36  1550.08
                             1570.22  1613.29  1615.06  1623.02  1630.69
                             1675.66  1684.52  1705.03  1705.80  1747.79
                             1754.65  1773.32  1798.17  1825.33  1890.22
                             1899.45  1902.68  1949.59  1962.74  1976.81
                             2001.66  2060.40  2081.60  2092.42  2121.79
                             2135.50  2141.23  2147.47  2147.70  2150.01
                             2155.97  2161.03  2198.33  2215.66  2223.11
                             2277.03  2352.61  2376.78  2381.44  2406.41
                             2413.37  4353.26  4368.54  4427.84  4447.23
                             4463.55  4542.41  4557.96  4565.27  4578.75
                             4597.12  4599.17  4606.35  4610.01  4619.60
                             4622.47  4634.97  4636.64  4647.99  4670.22
                             4837.93  5147.57

 Zero-point correction=                           0.357677 (Hartree/Particle)
 Thermal correction to Energy=                    0.379231
 Thermal correction to Enthalpy=                  0.380175
 Thermal correction to Gibbs Free Energy=         0.306536
 Sum of electronic and zero-point Energies=          -3457.136006
 Sum of electronic and thermal Energies=             -3457.114452
 Sum of electronic and thermal Enthalpies=           -3457.113508
 Sum of electronic and thermal Free Energies=        -3457.187148

                     E (Thermal)             CV                S
                      KCal/Mol        Cal/Mol-Kelvin    Cal/Mol-Kelvin
 Total                  237.971             80.686            154.988
 Electronic               0.000              0.000              0.000
 Translational            0.889              2.981             43.537
 Rotational               0.889              2.981             34.616
 Vibrational            236.194             74.724             76.836
 Vibration     1          0.594              1.982              5.434
 Vibration     2          0.595              1.978              4.823
 Vibration     3          0.596              1.976              4.683
 Vibration     4          0.597              1.973              4.460
 Vibration     5          0.598              1.970              4.222
 Vibration     6          0.600              1.963              3.893
 Vibration     7          0.604              1.949              3.443
 Vibration     8          0.608              1.937              3.188
 Vibration     9          0.611              1.924              2.962
 Vibration    10          0.614              1.915              2.830
 Vibration    11          0.620              1.897              2.610
 Vibration    12          0.622              1.891              2.541
 Vibration    13          0.625              1.881              2.451
 Vibration    14          0.636              1.847              2.180
 Vibration    15          0.639              1.836              2.110
 Vibration    16          0.648              1.808              1.945
 Vibration    17          0.659              1.773              1.773
 Vibration    18          0.663              1.762              1.729
 Vibration    19          0.670              1.740              1.638
 Vibration    20          0.677              1.719              1.562
 Vibration    21          0.690              1.682              1.441
 Vibration    22          0.695              1.667              1.396
 Vibration    23          0.710              1.623              1.277
 Vibration    24          0.761              1.483              0.984
 Vibration    25          0.785              1.420              0.881
 Vibration    26          0.786              1.417              0.877
 Vibration    27          0.790              1.408              0.864
 Vibration    28          0.834              1.300              0.717
 Vibration    29          0.848              1.266              0.677
 Vibration    30          0.892              1.168              0.572
 Vibration    31          0.959              1.030              0.448

 Optimization completed.
    -- Stationary point found.
 Normal termination of Gaussian 16 at Sat Apr 17 11:51:49 2021.
