 Gaussian 16, Revision A.03,
 Gaussian 16:  ES64L-G16RevA.03 25-Dec-2016

 ----------------------------------------------------------------------
 # wB97XD def2tzvp, opt=(ts, noeigen, calcfc, maxcycles=70, maxstep=8),
  freq=noraman, scrf=(iefpcm, solvent=water)
 ----------------------------------------------------------------------

 ------------------------
 0_iteration/TS-396-0.out
 ------------------------
 Symbolic Z-matrix:
 Charge =  0 Multiplicity = 1

 SCF Done:  E(RwB97XD) =  -1321.55837531     A.U. after   15 cycles
 SCF Done:  E(RwB97XD) =  -1321.55803592     A.U. after   12 cycles
 SCF Done:  E(RwB97XD) =  -1321.55807566     A.U. after   12 cycles
 SCF Done:  E(RwB97XD) =  -1321.55849273     A.U. after   12 cycles
 SCF Done:  E(RwB97XD) =  -1321.55921127     A.U. after   14 cycles
 SCF Done:  E(RwB97XD) =  -1321.55963010     A.U. after   13 cycles
 SCF Done:  E(RwB97XD) =  -1321.55976598     A.U. after   12 cycles
 SCF Done:  E(RwB97XD) =  -1321.55978582     A.U. after   11 cycles
 SCF Done:  E(RwB97XD) =  -1321.55978914     A.U. after   10 cycles
 SCF Done:  E(RwB97XD) =  -1321.55978934     A.U. after    8 cycles
 SCF Done:  E(RwB97XD) =  -1321.55978939     A.U. after    6 cycles
 Optimization completed.
    -- Stationary point found.
 Normal termination of Gaussian 16 at Fri Feb 12 12:45:38 2021.

 ---------------------------------------------------------------------
 #N Geom=AllCheck Guess=TCheck SCRF=Check GenChk RwB97XD/def2TZVP Freq
 ---------------------------------------------------------------------

 Structure from the checkpoint file:  "/beegfs/scratch/user/q/tla25/Gau-116995.chk"
 ------------------------
 0_iteration/TS-396-0.out
 ------------------------
 Charge =  0 Multiplicity = 1

                         Standard orientation:
 ---------------------------------------------------------------------
 Center     Atomic      Atomic             Coordinates (Angstroms)
 Number     Number       Type             X           Y           Z
 ---------------------------------------------------------------------
      1          6           0       -0.321157    0.466354   -0.372154
      2          6           0       -1.288780   -0.483940    0.107872
      3          8           0       -1.028141   -1.627189    0.443727
      4          6           0        1.023051    0.213826   -0.550014
      5          6           0        3.434800    0.305929    1.132813
      6          1           0        3.860905    0.417589    2.130761
      7          1           0        3.782427   -0.630139    0.700767
      8          1           0        3.773923    1.131238    0.508327
      9          7           0        1.974487    0.302513    1.165447
     10          1           0        1.604914   -0.483049    1.688594
     11          1           0        1.605162    1.152513    1.575221
     12          1           0        1.616161    1.004102   -0.987946
     13         17           0        1.593652   -1.349067   -1.097012
     14         17           0       -0.766973    2.164643   -0.469755
     15          8           0       -2.541033    0.004115    0.157041
     16          6           0       -3.540517   -0.885496    0.642629
     17          1           0       -4.470126   -0.322987    0.622787
     18          1           0       -3.622183   -1.764923    0.003877
     19          1           0       -3.317136   -1.202156    1.661508
 ---------------------------------------------------------------------

 SCF Done:  E(RwB97XD) =  -1321.55978939     A.U. after    1 cycles

 The electronic state is 1-A.
 Alpha  occ. eigenvalues -- -101.70515-101.69250 -19.28961 -19.22227 -14.48285
 Alpha  occ. eigenvalues --  -10.41007 -10.39733 -10.32960 -10.32050 -10.31844
 Alpha  occ. eigenvalues --   -9.59087  -9.57767  -7.33751  -7.32875  -7.32809
 Alpha  occ. eigenvalues --   -7.32415  -7.31552  -7.31530  -1.20589  -1.10974
 Alpha  occ. eigenvalues --   -1.04018  -0.98683  -0.95295  -0.84367  -0.82006
 Alpha  occ. eigenvalues --   -0.78675  -0.72706  -0.64823  -0.63135  -0.59702
 Alpha  occ. eigenvalues --   -0.57671  -0.57371  -0.56173  -0.54541  -0.54401
 Alpha  occ. eigenvalues --   -0.51214  -0.49271  -0.48841  -0.48079  -0.46369
 Alpha  occ. eigenvalues --   -0.44190  -0.42639  -0.41048  -0.40510  -0.38829
 Alpha  occ. eigenvalues --   -0.38328  -0.35399  -0.28177
 Alpha virt. eigenvalues --    0.03685   0.08161   0.10108   0.12529   0.13454
 Alpha virt. eigenvalues --    0.14978   0.15726   0.16982   0.17321   0.18080
 Alpha virt. eigenvalues --    0.19518   0.19548   0.20341   0.21073   0.22499

 Mulliken charges:
               1
     1  C   -0.135504
     2  C    0.395557
     3  O   -0.479705
     4  C   -0.031669
     5  C   -0.269028
     6  H    0.151942
     7  H    0.148024
     8  H    0.150962
     9  N   -0.364934
    10  H    0.286275
    11  H    0.283432
    12  H    0.192386
    13  Cl  -0.081121
    14  Cl  -0.159478
    15  O   -0.299746
    16  C   -0.190023
    17  H    0.141504
    18  H    0.130762
    19  H    0.130363
 Sum of Mulliken charges =  -0.00000

 Dipole moment (field-independent basis, Debye):
    X=              5.1665    Y=              1.9011    Z=              3.9044  Tot=              6.7492
 Quadrupole moment (field-independent basis, Debye-Ang):
   XX=            -54.1905   YY=            -80.5919   ZZ=            -68.5677
   XY=              6.3728   XZ=              4.7240   YZ=              2.0379

  Exact polarizability: 182.218  -4.460 141.647   7.161   0.848 111.956
 Approx polarizability: 132.563  -5.763 124.950   4.142  -0.502  98.591

 ******    1 imaginary frequencies (negative Signs) ******

                      1                      2                      3
                      A                      A                      A
 Frequencies --   -344.1122                34.6401                55.5388
 Red. masses --      6.6771                 3.3732                 4.0134
 Frc consts  --      0.4658                 0.0024                 0.0073
 IR Inten    --    956.6773                 2.3626                 6.5899

                      4                      5                      6
                      A                      A                      A
 Frequencies --     72.9458               110.6792               130.5000
 Red. masses --      2.5677                 3.6205                 2.6211
 Frc consts  --      0.0080                 0.0261                 0.0263
 IR Inten    --     10.2432                 1.8200                 5.9048

                      7                      8                      9
                      A                      A                      A
 Frequencies --    156.7825               162.8394               168.6906
 Red. masses --      3.9487                 1.3986                 1.3969
 Frc consts  --      0.0572                 0.0219                 0.0234
 IR Inten    --      5.5457                 0.6008                 5.3099

                     10                     11                     12
                      A                      A                      A
 Frequencies --    200.6043               217.9233               270.9185
 Red. masses --      5.3559                 7.2791                 4.3386
 Frc consts  --      0.1270                 0.2037                 0.1876
 IR Inten    --     34.7280                 4.7866                10.5767

                     13                     14                     15
                      A                      A                      A
 Frequencies --    328.0015               361.4612               432.2784
 Red. masses --      4.2566                 7.3895                 7.4866
 Frc consts  --      0.2698                 0.5688                 0.8243
 IR Inten    --     38.8196                 9.8028                93.0256

                     16                     17                     18
                      A                      A                      A
 Frequencies --    467.3103               584.8959               646.5741
 Red. masses --     12.0572                 3.3283                 1.6655
 Frc consts  --      1.5513                 0.6709                 0.4102
 IR Inten    --     66.4423                 8.5198                14.0346

                     19                     20                     21
                      A                      A                      A
 Frequencies --    785.2007               801.4719               815.8298
 Red. masses --     11.2442                 6.7864                 4.6305
 Frc consts  --      4.0845                 2.5684                 1.8158
 IR Inten    --     72.2235               190.1835                42.4150

                     22                     23                     24
                      A                      A                      A
 Frequencies --    991.7426              1012.0474              1027.6112
 Red. masses --      2.1604                 1.4186                 1.2174
 Frc consts  --      1.2520                 0.8561                 0.7574
 IR Inten    --     13.1492                42.1595                83.6400

                     25                     26                     27
                      A                      A                      A
 Frequencies --   1072.6029              1083.3265              1130.3922
 Red. masses --      4.3485                 5.0103                 1.1310
 Frc consts  --      2.9476                 3.4645                 0.8515
 IR Inten    --    224.3274               169.8049               122.8100

                     28                     29                     30
                      A                      A                      A
 Frequencies --   1182.7507              1213.1773              1216.9091
 Red. masses --      1.2819                 1.4345                 1.4567
 Frc consts  --      1.0566                 1.2440                 1.2710
 IR Inten    --      1.9488                10.9087                31.0613

                     31                     32                     33
                      A                      A                      A
 Frequencies --   1247.2107              1342.1143              1355.5761
 Red. masses --      2.2218                 1.3293                 2.1523
 Frc consts  --      2.0363                 1.4108                 2.3302
 IR Inten    --    519.5668                 9.2578               395.7637

                     34                     35                     36
                      A                      A                      A
 Frequencies --   1444.7155              1466.9938              1480.4658
 Red. masses --      3.1458                 1.3770                 1.1438
 Frc consts  --      3.8685                 1.7460                 1.4771
 IR Inten    --    662.0679               113.3241               108.6959

                     37                     38                     39
                      A                      A                      A
 Frequencies --   1483.3721              1491.5051              1496.7310
 Red. masses --      1.1240                 1.0397                 1.1038
 Frc consts  --      1.4572                 1.3627                 1.4569
 IR Inten    --     91.7007                15.8554                21.9833

                     40                     41                     42
                      A                      A                      A
 Frequencies --   1505.0790              1642.6115              1710.6503
 Red. masses --      1.0340                 1.0886                11.1071
 Frc consts  --      1.3800                 1.7306                19.1502
 IR Inten    --     23.6662                51.2614               487.7546

                     43                     44                     45
                      A                      A                      A
 Frequencies --   3065.3104              3066.5269              3142.0680
 Red. masses --      1.0309                 1.0346                 1.1069
 Frc consts  --      5.7073                 5.7321                 6.4387
 IR Inten    --     63.4643                43.8504                34.6675

                     46                     47                     48
                      A                      A                      A
 Frequencies --   3142.7722              3168.5494              3177.5523
 Red. masses --      1.1040                 1.1051                 1.1055
 Frc consts  --      6.4248                 6.5369                 6.5764
 IR Inten    --     17.9507                13.5477                23.6936

                     49                     50                     51
                      A                      A                      A
 Frequencies --   3221.1544              3525.1964              3608.4995
 Red. masses --      1.0922                 1.0506                 1.0967
 Frc consts  --      6.6769                 7.6920                 8.4139
 IR Inten    --      1.5404                25.9169                48.0195

 - Thermochemistry -
 -------------------
 Temperature   298.150 Kelvin.  Pressure   1.00000 Atm.
 Atom     1 has atomic number  6 and mass  12.00000

 Molecular mass:   185.00103 amu.
 Principal axes and moments of inertia in atomic units:
                           1         2         3
     Eigenvalues --  1457.075842926.606383581.09806
           X            0.99849   0.05260   0.01590
           Y           -0.05249   0.99859  -0.00733
           Z           -0.01627   0.00648   0.99985
 This molecule is an asymmetric top.
 Rotational symmetry number  1.
 Warning -- assumption of classical behavior for rotation
           may cause significant error
 Rotational temperatures (Kelvin)      0.05944     0.02960     0.02419
 Rotational constants (GHZ):           1.23860     0.61667     0.50396
    1 imaginary frequencies ignored.
 Zero-point vibrational energy     379935.8 (Joules/Mol)
                                   90.80683 (Kcal/Mol)
 Warning -- explicit consideration of  16 degrees of freedom as
           vibrations may cause significant error
 Vibrational temperatures:     49.84    79.91   104.95   159.24   187.76
          (Kelvin)            225.57   234.29   242.71   288.62   313.54
                              389.79   471.92   520.06   621.95   672.36
                              841.53   930.28  1129.73  1153.14  1173.80
                             1426.90  1456.11  1478.50  1543.24  1558.67
                             1626.38  1701.71  1745.49  1750.86  1794.46
                             1931.00  1950.37  2078.62  2110.68  2130.06
                             2134.24  2145.94  2153.46  2165.47  2363.35
                             2461.24  4410.30  4412.05  4520.74  4521.75
                             4558.84  4571.79  4634.52  5071.97  5191.83

 Zero-point correction=                           0.144710 (Hartree/Particle)
 Thermal correction to Energy=                    0.156938
 Thermal correction to Enthalpy=                  0.157882
 Thermal correction to Gibbs Free Energy=         0.104410
 Sum of electronic and zero-point Energies=          -1321.415079
 Sum of electronic and thermal Energies=             -1321.402851
 Sum of electronic and thermal Enthalpies=           -1321.401907
 Sum of electronic and thermal Free Energies=        -1321.455380

                     E (Thermal)             CV                S
                      KCal/Mol        Cal/Mol-Kelvin    Cal/Mol-Kelvin
 Total                   98.480             40.264            112.542
 Electronic               0.000              0.000              0.000
 Translational            0.889              2.981             41.552
 Rotational               0.889              2.981             31.102
 Vibrational             96.703             34.302             39.888
 Vibration     1          0.594              1.983              5.544
 Vibration     2          0.596              1.975              4.610
 Vibration     3          0.599              1.967              4.072
 Vibration     4          0.607              1.941              3.257
 Vibration     5          0.612              1.923              2.939
 Vibration     6          0.620              1.895              2.588
 Vibration     7          0.623              1.888              2.517
 Vibration     8          0.625              1.881              2.450
 Vibration     9          0.638              1.839              2.128
 Vibration    10          0.646              1.814              1.976
 Vibration    11          0.675              1.727              1.590
 Vibration    12          0.711              1.620              1.270
 Vibration    13          0.736              1.552              1.116
 Vibration    14          0.793              1.400              0.851
 Vibration    15          0.825              1.323              0.745
 Vibration    16          0.942              1.064              0.476

 Optimization completed.
    -- Stationary point found.
 Normal termination of Gaussian 16 at Fri Feb 12 12:56:22 2021.
