 Gaussian 16, Revision A.03,
 Gaussian 16:  ES64L-G16RevA.03 25-Dec-2016

 ----------------------------------------------------------------------
 # wB97XD def2tzvp, opt=(ts, noeigen, calcfc, maxcycles=70, maxstep=3),
  freq=noraman, scrf=(iefpcm, solvent=water)
 ----------------------------------------------------------------------

 ------------------------
 0_iteration/TS-380-0.out
 ------------------------
 Symbolic Z-matrix:
 Charge =  0 Multiplicity = 1

 SCF Done:  E(RwB97XD) =  -901.265175873     A.U. after   14 cycles
 SCF Done:  E(RwB97XD) =  -901.265096046     A.U. after   12 cycles
 SCF Done:  E(RwB97XD) =  -901.265091346     A.U. after   12 cycles
 SCF Done:  E(RwB97XD) =  -901.265157100     A.U. after   11 cycles
 SCF Done:  E(RwB97XD) =  -901.265340317     A.U. after   11 cycles
 SCF Done:  E(RwB97XD) =  -901.265598218     A.U. after   11 cycles
 SCF Done:  E(RwB97XD) =  -901.265898905     A.U. after   12 cycles
 SCF Done:  E(RwB97XD) =  -901.266204364     A.U. after   11 cycles
 SCF Done:  E(RwB97XD) =  -901.266487445     A.U. after   11 cycles
 SCF Done:  E(RwB97XD) =  -901.266708569     A.U. after   11 cycles
 SCF Done:  E(RwB97XD) =  -901.266883610     A.U. after   11 cycles
 SCF Done:  E(RwB97XD) =  -901.267027989     A.U. after   10 cycles
 SCF Done:  E(RwB97XD) =  -901.267118785     A.U. after   10 cycles
 SCF Done:  E(RwB97XD) =  -901.267176640     A.U. after   10 cycles
 SCF Done:  E(RwB97XD) =  -901.267187075     A.U. after   11 cycles
 SCF Done:  E(RwB97XD) =  -901.267189287     A.U. after   10 cycles
 SCF Done:  E(RwB97XD) =  -901.267189342     A.U. after    9 cycles
 SCF Done:  E(RwB97XD) =  -901.267189278     A.U. after    8 cycles
 SCF Done:  E(RwB97XD) =  -901.267189343     A.U. after    6 cycles
 Optimization completed.
    -- Stationary point found.
 Normal termination of Gaussian 16 at Mon Apr 12 20:16:05 2021.

 ---------------------------------------------------------------------
 #N Geom=AllCheck Guess=TCheck SCRF=Check GenChk RwB97XD/def2TZVP Freq
 ---------------------------------------------------------------------

 Structure from the checkpoint file:  "/beegfs/scratch/user/q/tla25/Gau-119914.chk"
 ------------------------
 0_iteration/TS-380-0.out
 ------------------------
 Charge =  0 Multiplicity = 1

                         Standard orientation:
 ---------------------------------------------------------------------
 Center     Atomic      Atomic             Coordinates (Angstroms)
 Number     Number       Type             X           Y           Z
 ---------------------------------------------------------------------
      1          6           0       -0.431031    1.088961   -0.237643
      2          6           0       -1.545920    0.245425    0.072271
      3          8           0       -2.699394    0.630715    0.215289
      4          6           0        0.853410    0.635072   -0.472836
      5          6           0        3.122428   -0.262161    1.149991
      6          1           0        3.482671   -0.508051    2.149845
      7          1           0        3.296390   -1.108848    0.489886
      8          1           0        3.673666    0.599092    0.775141
      9          7           0        1.695763    0.052690    1.154317
     10          1           0        1.125368   -0.739751    1.428884
     11          1           0        1.481196    0.821429    1.778424
     12          1           0        1.597590    1.385242   -0.705638
     13         17           0        1.203503   -0.808339   -1.456571
     14          6           0       -0.659461    2.576976   -0.118560
     15          1           0        0.251089    3.129984   -0.354108
     16          1           0       -1.437157    2.917684   -0.806818
     17          1           0       -0.974536    2.870868    0.887515
     18          8           0       -1.224446   -1.060898    0.253788
     19          6           0       -2.298491   -1.948970    0.524321
     20          1           0       -1.852881   -2.937243    0.609321
     21          1           0       -2.799572   -1.687262    1.456885
     22          1           0       -3.028608   -1.940568   -0.285717
 ---------------------------------------------------------------------

 SCF Done:  E(RwB97XD) =  -901.267189343     A.U. after    1 cycles

 The electronic state is 1-A.
 Alpha  occ. eigenvalues -- -101.69224 -19.27929 -19.20997 -14.48308 -10.39122
 Alpha  occ. eigenvalues --  -10.38479 -10.32516 -10.31749 -10.27097 -10.26105
 Alpha  occ. eigenvalues --   -9.57816  -7.32446  -7.31614  -7.31562  -1.19191
 Alpha  occ. eigenvalues --   -1.09535  -1.03924  -0.96195  -0.88388  -0.81731
 Alpha  occ. eigenvalues --   -0.79256  -0.76099  -0.71093  -0.63565  -0.62926
 Alpha  occ. eigenvalues --   -0.59055  -0.56731  -0.56345  -0.55414  -0.53943
 Alpha  occ. eigenvalues --   -0.52683  -0.50979  -0.49771  -0.48066  -0.46176
 Alpha  occ. eigenvalues --   -0.45799  -0.45565  -0.44694  -0.43589  -0.39357
 Alpha  occ. eigenvalues --   -0.38366  -0.37333  -0.35120  -0.26936
 Alpha virt. eigenvalues --    0.05351   0.08920   0.10742   0.13116   0.13882
 Alpha virt. eigenvalues --    0.14938   0.16270   0.16941   0.17689   0.18156
 Alpha virt. eigenvalues --    0.19549   0.20099   0.20649   0.20903   0.21157

 Mulliken charges:
               1
     1  C   -0.245659
     2  C    0.401839
     3  O   -0.512977
     4  C    0.020740
     5  C   -0.270727
     6  H    0.151343
     7  H    0.146895
     8  H    0.150007
     9  N   -0.335277
    10  H    0.281357
    11  H    0.282119
    12  H    0.177824
    13  Cl  -0.136760
    14  C   -0.338570
    15  H    0.117613
    16  H    0.117142
    17  H    0.113480
    18  O   -0.309930
    19  C   -0.197037
    20  H    0.135982
    21  H    0.124594
    22  H    0.126001
 Sum of Mulliken charges =  -0.00000

 Dipole moment (field-independent basis, Debye):
    X=              7.9141    Y=             -1.2528    Z=              4.4060  Tot=              9.1442
 Quadrupole moment (field-independent basis, Debye-Ang):
   XX=            -70.2413   YY=            -63.9560   ZZ=            -64.5751
   XY=              9.9641   XZ=              7.0943   YZ=             -1.8114

  Exact polarizability: 183.084 -12.746 138.710   4.180   1.989 120.653
 Approx polarizability: 137.819  -9.327 113.648   1.730   2.382 102.682

 ******    1 imaginary frequencies (negative Signs) ******

                      1                      2                      3
                      A                      A                      A
 Frequencies --   -378.2805                46.9095                72.0596
 Red. masses --      6.7693                 3.8619                 3.8240
 Frc consts  --      0.5707                 0.0050                 0.0117
 IR Inten    --    965.9247                 4.5980                 2.5570

                      4                      5                      6
                      A                      A                      A
 Frequencies --     83.6100               111.2457               131.3071
 Red. masses --      1.8664                 2.6065                 1.5523
 Frc consts  --      0.0077                 0.0190                 0.0158
 IR Inten    --      6.1407                 7.7120                 7.3640

                      7                      8                      9
                      A                      A                      A
 Frequencies --    143.1296               153.2124               169.0416
 Red. masses --      1.6816                 1.4258                 1.4107
 Frc consts  --      0.0203                 0.0197                 0.0238
 IR Inten    --      2.3028                 1.1127                 4.2363

                     10                     11                     12
                      A                      A                      A
 Frequencies --    178.3146               208.3443               273.9300
 Red. masses --      2.4209                 4.7354                 3.1718
 Frc consts  --      0.0454                 0.1211                 0.1402
 IR Inten    --      3.5966                20.7674                10.0805

                     13                     14                     15
                      A                      A                      A
 Frequencies --    292.5632               347.2319               376.6555
 Red. masses --      3.5795                 3.7521                 5.8805
 Frc consts  --      0.1805                 0.2665                 0.4915
 IR Inten    --     12.4353                15.3713                24.6121

                     16                     17                     18
                      A                      A                      A
 Frequencies --    437.5113               528.1930               625.4604
 Red. masses --      5.5833                 5.0766                 2.3490
 Frc consts  --      0.6297                 0.8345                 0.5414
 IR Inten    --    167.5155                53.4899                 5.4130

                     19                     20                     21
                      A                      A                      A
 Frequencies --    664.3034               793.4503               798.8125
 Red. masses --      2.2558                 5.2736                 4.1101
 Frc consts  --      0.5865                 1.9561                 1.5452
 IR Inten    --     13.0520                71.7632               144.5320

                     22                     23                     24
                      A                      A                      A
 Frequencies --    851.8336               997.8298              1009.7054
 Red. masses --      4.8245                 2.3795                 1.1095
 Frc consts  --      2.0626                 1.3959                 0.6665
 IR Inten    --     22.9785               101.7773                29.7180

                     25                     26                     27
                      A                      A                      A
 Frequencies --   1038.7295              1048.0541              1062.4978
 Red. masses --      1.4025                 1.6955                 1.3446
 Frc consts  --      0.8916                 1.0973                 0.8944
 IR Inten    --     47.7370               141.0459                13.5786

                     28                     29                     30
                      A                      A                      A
 Frequencies --   1075.3269              1141.6046              1167.7835
 Red. masses --      4.1353                 1.1468                 4.6702
 Frc consts  --      2.8173                 0.8806                 3.7524
 IR Inten    --    189.1642                39.3245               269.0457

                     31                     32                     33
                      A                      A                      A
 Frequencies --   1181.1721              1215.4331              1219.9099
 Red. masses --      1.2952                 1.5752                 1.3976
 Frc consts  --      1.0646                 1.3710                 1.2254
 IR Inten    --      5.2703                99.3870                25.6683

                     34                     35                     36
                      A                      A                      A
 Frequencies --   1258.1161              1342.0905              1391.2173
 Red. masses --      1.5348                 1.3199                 2.6359
 Frc consts  --      1.4313                 1.4008                 3.0058
 IR Inten    --    198.6199                 4.3712               318.8737

                     37                     38                     39
                      A                      A                      A
 Frequencies --   1418.3928              1452.9296              1465.7333
 Red. masses --      1.2992                 1.3360                 1.4075
 Frc consts  --      1.5400                 1.6616                 1.7816
 IR Inten    --     32.2424               147.8490               202.1907

                     40                     41                     42
                      A                      A                      A
 Frequencies --   1470.8836              1480.5937              1482.3301
 Red. masses --      1.1901                 1.1109                 1.1776
 Frc consts  --      1.5170                 1.4348                 1.5246
 IR Inten    --    113.0557                35.8999                53.7844

                     43                     44                     45
                      A                      A                      A
 Frequencies --   1491.3222              1496.7101              1500.9363
 Red. masses --      1.0408                 1.0703                 1.0368
 Frc consts  --      1.3638                 1.4126                 1.3761
 IR Inten    --     15.5752                 3.2102                13.6599

                     46                     47                     48
                      A                      A                      A
 Frequencies --   1514.0767              1643.3354              1686.0430
 Red. masses --      1.4496                 1.0919                10.6060
 Frc consts  --      1.9580                 1.7374                17.7640
 IR Inten    --    340.5439                88.7243              1095.4056

                     49                     50                     51
                      A                      A                      A
 Frequencies --   3027.6303              3058.8795              3066.8228
 Red. masses --      1.0395                 1.0311                 1.0349
 Frc consts  --      5.6142                 5.6841                 5.7348
 IR Inten    --     99.5990                64.4852                52.7271

                     52                     53                     54
                      A                      A                      A
 Frequencies --   3080.0872              3120.4919              3132.6393
 Red. masses --      1.0991                 1.1000                 1.1065
 Frc consts  --      6.1432                 6.3107                 6.3978
 IR Inten    --     49.9922                35.8405                41.6084

                     55                     56                     57
                      A                      A                      A
 Frequencies --   3143.4557              3167.9113              3170.8638
 Red. masses --      1.1039                 1.1049                 1.1049
 Frc consts  --      6.4266                 6.5333                 6.5455
 IR Inten    --     18.2662                25.9925                13.3289

                     58                     59                     60
                      A                      A                      A
 Frequencies --   3204.7011              3523.1442              3607.2860
 Red. masses --      1.0917                 1.0508                 1.0967
 Frc consts  --      6.6058                 7.6847                 8.4083
 IR Inten    --      9.2720                24.0928                51.3857

 - Thermochemistry -
 -------------------
 Temperature   298.150 Kelvin.  Pressure   1.00000 Atm.
 Atom     1 has atomic number  6 and mass  12.00000

 Molecular mass:   165.05566 amu.
 Principal axes and moments of inertia in atomic units:
                           1         2         3
     Eigenvalues --  1327.558802340.642372729.13333
           X            0.99878   0.03862   0.03074
           Y           -0.03660   0.99730  -0.06369
           Z           -0.03312   0.06249   0.99750
 This molecule is an asymmetric top.
 Rotational symmetry number  1.
 Warning -- assumption of classical behavior for rotation
           may cause significant error
 Rotational temperatures (Kelvin)      0.06524     0.03700     0.03174
 Rotational constants (GHZ):           1.35944     0.77105     0.66129
    1 imaginary frequencies ignored.
 Zero-point vibrational energy     477571.9 (Joules/Mol)
                                  114.14243 (Kcal/Mol)
 Warning -- explicit consideration of  16 degrees of freedom as
           vibrations may cause significant error
 Vibrational temperatures:     67.49   103.68   120.30   160.06   188.92
          (Kelvin)            205.93   220.44   243.21   256.55   299.76
                              394.12   420.93   499.59   541.92   629.48
                              759.95   899.90   955.78  1141.60  1149.31
                             1225.60  1435.65  1452.74  1494.50  1507.92
                             1528.70  1547.16  1642.51  1680.18  1699.44
                             1748.74  1755.18  1810.15  1930.97  2001.65
                             2040.75  2090.44  2108.86  2116.27  2130.24
                             2132.74  2145.68  2153.43  2159.51  2178.42
                             2364.39  2425.84  4356.08  4401.05  4412.47
                             4431.56  4489.69  4507.17  4522.73  4557.92
                             4562.17  4610.85  5069.02  5190.08

 Zero-point correction=                           0.181898 (Hartree/Particle)
 Thermal correction to Energy=                    0.194492
 Thermal correction to Enthalpy=                  0.195436
 Thermal correction to Gibbs Free Energy=         0.142246
 Sum of electronic and zero-point Energies=           -901.085292
 Sum of electronic and thermal Energies=              -901.072697
 Sum of electronic and thermal Enthalpies=            -901.071753
 Sum of electronic and thermal Free Energies=         -901.124943

                     E (Thermal)             CV                S
                      KCal/Mol        Cal/Mol-Kelvin    Cal/Mol-Kelvin
 Total                  122.046             42.374            111.948
 Electronic               0.000              0.000              0.000
 Translational            0.889              2.981             41.212
 Rotational               0.889              2.981             30.518
 Vibrational            120.268             36.412             40.219
 Vibration     1          0.595              1.979              4.944
 Vibration     2          0.598              1.967              4.096
 Vibration     3          0.601              1.960              3.804
 Vibration     4          0.607              1.940              3.247
 Vibration     5          0.612              1.922              2.927
 Vibration     6          0.616              1.910              2.762
 Vibration     7          0.619              1.899              2.632
 Vibration     8          0.625              1.881              2.446
 Vibration     9          0.629              1.869              2.346
 Vibration    10          0.642              1.828              2.058
 Vibration    11          0.676              1.721              1.571
 Vibration    12          0.688              1.688              1.459
 Vibration    13          0.725              1.581              1.179
 Vibration    14          0.747              1.520              1.053
 Vibration    15          0.798              1.388              0.834
 Vibration    16          0.883              1.188              0.591

 Optimization completed.
    -- Stationary point found.
 Normal termination of Gaussian 16 at Mon Apr 12 20:22:18 2021.
