 Gaussian 16, Revision A.03,
 Gaussian 16:  ES64L-G16RevA.03 25-Dec-2016

 ----------------------------------------------------------------------
 # wB97XD def2tzvp, opt=(ts, noeigen, calcfc, maxcycles=70, maxstep=8),
  freq=noraman, scrf=(iefpcm, solvent=water)
 ----------------------------------------------------------------------

 ------------------------
 0_iteration/TS-310-0.out
 ------------------------
 Symbolic Z-matrix:
 Charge =  0 Multiplicity = 1

 SCF Done:  E(RwB97XD) =  -3034.70556914     A.U. after   16 cycles
 SCF Done:  E(RwB97XD) =  -3034.70499538     A.U. after   13 cycles
 SCF Done:  E(RwB97XD) =  -3034.70494453     A.U. after   13 cycles
 SCF Done:  E(RwB97XD) =  -3034.70580006     A.U. after   13 cycles
 SCF Done:  E(RwB97XD) =  -3034.70850819     A.U. after   14 cycles
 SCF Done:  E(RwB97XD) =  -3034.71063987     A.U. after   14 cycles
 SCF Done:  E(RwB97XD) =  -3034.71250645     A.U. after   14 cycles
 SCF Done:  E(RwB97XD) =  -3034.71362929     A.U. after   14 cycles
 SCF Done:  E(RwB97XD) =  -3034.71388862     A.U. after   13 cycles
 SCF Done:  E(RwB97XD) =  -3034.71415895     A.U. after   13 cycles
 SCF Done:  E(RwB97XD) =  -3034.71452067     A.U. after    9 cycles
 SCF Done:  E(RwB97XD) =  -3034.71446314     A.U. after   10 cycles
 SCF Done:  E(RwB97XD) =  -3034.71438295     A.U. after   12 cycles
 SCF Done:  E(RwB97XD) =  -3034.71450611     A.U. after   12 cycles
 SCF Done:  E(RwB97XD) =  -3034.71446408     A.U. after   12 cycles
 SCF Done:  E(RwB97XD) =  -3034.71451966     A.U. after   11 cycles
 SCF Done:  E(RwB97XD) =  -3034.71452052     A.U. after    9 cycles
 SCF Done:  E(RwB97XD) =  -3034.71452070     A.U. after    7 cycles
 SCF Done:  E(RwB97XD) =  -3034.71452064     A.U. after    6 cycles
 Optimization completed.
    -- Stationary point found.
 Normal termination of Gaussian 16 at Fri Feb 12 17:58:02 2021.

 ---------------------------------------------------------------------
 #N Geom=AllCheck Guess=TCheck SCRF=Check GenChk RwB97XD/def2TZVP Freq
 ---------------------------------------------------------------------

 Structure from the checkpoint file:  "/beegfs/scratch/user/q/tla25/Gau-67972.chk"
 ------------------------
 0_iteration/TS-310-0.out
 ------------------------
 Charge =  0 Multiplicity = 1

                         Standard orientation:
 ---------------------------------------------------------------------
 Center     Atomic      Atomic             Coordinates (Angstroms)
 Number     Number       Type             X           Y           Z
 ---------------------------------------------------------------------
      1          6           0       -0.076851    0.130128    0.478831
      2          6           0        0.659410   -1.007833   -0.057934
      3          8           0        0.051770   -1.996053   -0.512384
      4          6           0       -1.417132    0.017230    0.849219
      5          6           0       -3.871550   -0.540565   -0.723047
      6          1           0       -4.287415   -0.608921   -1.729981
      7          1           0       -4.088652   -1.466119   -0.194245
      8          1           0       -4.352089    0.284685   -0.198101
      9          7           0       -2.428615   -0.322365   -0.746503
     10          1           0       -1.903175   -1.132634   -1.066389
     11          1           0       -2.180393    0.463923   -1.334049
     12          1           0       -1.904284    0.955707    1.092204
     13          6           0       -1.880960   -1.122278    1.720104
     14          1           0       -1.504268   -0.955377    2.730458
     15          1           0       -2.968114   -1.156813    1.777347
     16          1           0       -1.506614   -2.078447    1.362781
     17         35           0        0.439795    1.877305   -0.182272
     18          7           0        2.020058   -0.983198   -0.076957
     19          6           0        2.824757   -0.162790    0.802058
     20          6           0        2.736695   -2.013499   -0.795481
     21          1           0        2.193777    0.332466    1.534844
     22          1           0        3.536743   -0.799896    1.333894
     23          1           0        3.386624    0.593537    0.247702
     24          1           0        2.135566   -2.372203   -1.626506
     25          1           0        3.668890   -1.596232   -1.179646
     26          1           0        2.980096   -2.864339   -0.150016
 ---------------------------------------------------------------------

 SCF Done:  E(RwB97XD) =  -3034.71452064     A.U. after    1 cycles

 The electronic state is 1-A.
 Alpha  occ. eigenvalues -- -483.11420 -62.66253 -56.45346 -56.45029 -56.45020
 Alpha  occ. eigenvalues --  -19.20224 -14.46916 -14.45367 -10.37699 -10.33575
 Alpha  occ. eigenvalues --  -10.31395 -10.30485 -10.30271 -10.29009 -10.27588
 Alpha  occ. eigenvalues --   -8.80362  -6.62437  -6.61425  -6.61395  -2.72835
 Alpha  occ. eigenvalues --   -2.72547  -2.72523  -2.71703  -2.71703  -1.12819
 Alpha  occ. eigenvalues --   -1.02921  -1.02459  -0.91848  -0.85887  -0.81650
 Alpha  occ. eigenvalues --   -0.79789  -0.78713  -0.75518  -0.68867  -0.62733
 Alpha  occ. eigenvalues --   -0.61411  -0.57368  -0.56352  -0.55758  -0.54762
 Alpha  occ. eigenvalues --   -0.53679  -0.53247  -0.49710  -0.48849  -0.48297
 Alpha  occ. eigenvalues --   -0.48050  -0.47367  -0.46575  -0.45621  -0.45061
 Alpha  occ. eigenvalues --   -0.43730  -0.41171  -0.37965  -0.36650  -0.33985
 Alpha  occ. eigenvalues --   -0.31549  -0.25891
 Alpha virt. eigenvalues --    0.05555   0.08859   0.10474   0.12245   0.14100
 Alpha virt. eigenvalues --    0.14798   0.15322   0.16404   0.17070   0.17678
 Alpha virt. eigenvalues --    0.18528   0.19017   0.19211   0.19885   0.20166

 Mulliken charges:
               1
     1  C   -0.259174
     2  C    0.329519
     3  O   -0.573957
     4  C    0.020539
     5  C   -0.292956
     6  H    0.148276
     7  H    0.154576
     8  H    0.150970
     9  N   -0.330857
    10  H    0.268041
    11  H    0.271328
    12  H    0.151850
    13  C   -0.396070
    14  H    0.138164
    15  H    0.137085
    16  H    0.147530
    17  Br  -0.203710
    18  N   -0.113250
    19  C   -0.296504
    20  C   -0.290789
    21  H    0.155349
    22  H    0.135902
    23  H    0.139321
    24  H    0.138356
    25  H    0.137912
    26  H    0.132550
 Sum of Mulliken charges =  -0.00000

 Dipole moment (field-independent basis, Debye):
    X=             -3.9783    Y=             -0.0974    Z=             -0.2812  Tot=              3.9894
 Quadrupole moment (field-independent basis, Debye-Ang):
   XX=            -55.5429   YY=            -90.5459   ZZ=            -78.4543
   XY=             -2.2099   XZ=              3.3881   YZ=             -1.6557

  Exact polarizability: 221.408   5.028 174.141   6.421  -0.057 144.778
 Approx polarizability: 161.224   6.163 143.627   4.763   1.288 124.184

 ******    1 imaginary frequencies (negative Signs) ******

                      1                      2                      3
                      A                      A                      A
 Frequencies --   -378.8080                47.4944                64.2875
 Red. masses --      6.2762                 3.3960                 3.9766
 Frc consts  --      0.5306                 0.0045                 0.0097
 IR Inten    --    921.2550                 3.9451                 9.4931

                      4                      5                      6
                      A                      A                      A
 Frequencies --     97.6079               105.5775               116.4432
 Red. masses --      3.3157                 4.8845                 1.7227
 Frc consts  --      0.0186                 0.0321                 0.0138
 IR Inten    --      0.3955                17.2095                 8.5929

                      7                      8                      9
                      A                      A                      A
 Frequencies --    136.4702               166.0685               168.0672
 Red. masses --      1.5338                 1.4800                 1.2602
 Frc consts  --      0.0168                 0.0240                 0.0210
 IR Inten    --      4.5291                 0.9840                 1.2734

                     10                     11                     12
                      A                      A                      A
 Frequencies --    189.8025               202.0674               220.4575
 Red. masses --      2.7944                 3.1888                 2.1079
 Frc consts  --      0.0593                 0.0767                 0.0604
 IR Inten    --     11.5775                15.9204                 8.0414

                     13                     14                     15
                      A                      A                      A
 Frequencies --    238.7562               267.4941               289.5437
 Red. masses --      1.7502                 2.0251                 1.9447
 Frc consts  --      0.0588                 0.0854                 0.0961
 IR Inten    --     24.3265                 7.2221                36.4249

                     16                     17                     18
                      A                      A                      A
 Frequencies --    320.0624               395.1550               405.2519
 Red. masses --      2.7404                 3.3227                 2.8183
 Frc consts  --      0.1654                 0.3057                 0.2727
 IR Inten    --      4.4148                20.8524                 8.2583

                     19                     20                     21
                      A                      A                      A
 Frequencies --    454.9352               484.3969               577.9249
 Red. masses --      3.0975                 5.5072                 4.1611
 Frc consts  --      0.3777                 0.7613                 0.8188
 IR Inten    --     66.5105                51.8817                 5.3994

                     22                     23                     24
                      A                      A                      A
 Frequencies --    661.9834               691.4848               780.2742
 Red. masses --      2.5453                 1.6251                 9.1094
 Frc consts  --      0.6572                 0.4578                 3.2677
 IR Inten    --     36.2243                21.4752                63.7203

                     25                     26                     27
                      A                      A                      A
 Frequencies --    878.4295               946.6664              1002.5895
 Red. masses --      3.4877                 2.2838                 1.2784
 Frc consts  --      1.5856                 1.2058                 0.7571
 IR Inten    --     23.0510                70.7301                17.5371

                     28                     29                     30
                      A                      A                      A
 Frequencies --   1021.4516              1043.4126              1055.0610
 Red. masses --      1.7521                 1.2514                 1.4047
 Frc consts  --      1.0771                 0.8027                 0.9213
 IR Inten    --      2.8847                88.6990                86.4996

                     31                     32                     33
                      A                      A                      A
 Frequencies --   1085.0293              1092.2644              1133.9985
 Red. masses --      2.3100                 1.4466                 1.2319
 Frc consts  --      1.6023                 1.0168                 0.9334
 IR Inten    --    306.7229                29.7260                 2.2618

                     34                     35                     36
                      A                      A                      A
 Frequencies --   1139.5746              1165.1203              1171.3103
 Red. masses --      2.0001                 1.4572                 1.3941
 Frc consts  --      1.5303                 1.1655                 1.1269
 IR Inten    --     17.5615               155.4243                34.7547

                     37                     38                     39
                      A                      A                      A
 Frequencies --   1199.0387              1209.9980              1310.1985
 Red. masses --      1.7638                 1.4079                 3.4217
 Frc consts  --      1.4940                 1.2145                 3.4608
 IR Inten    --     24.5241                45.9912                38.9945

                     40                     41                     42
                      A                      A                      A
 Frequencies --   1333.5348              1345.0726              1399.0278
 Red. masses --      2.2221                 1.3045                 1.2902
 Frc consts  --      2.3282                 1.3905                 1.4879
 IR Inten    --    205.6015                 7.4672                65.2610

                     43                     44                     45
                      A                      A                      A
 Frequencies --   1429.4703              1444.9197              1448.1312
 Red. masses --      2.1770                 1.5771                 1.2326
 Frc consts  --      2.6210                 1.9399                 1.5230
 IR Inten    --    636.4237                25.0026                 3.1764

                     46                     47                     48
                      A                      A                      A
 Frequencies --   1467.3318              1474.3884              1484.0797
 Red. masses --      1.2659                 1.2135                 1.0765
 Frc consts  --      1.6059                 1.5542                 1.3969
 IR Inten    --     25.6409                58.2059                 7.8671

                     49                     50                     51
                      A                      A                      A
 Frequencies --   1490.5028              1492.7349              1498.7444
 Red. masses --      1.0561                 1.1141                 1.0535
 Frc consts  --      1.3823                 1.4626                 1.3943
 IR Inten    --     14.7208                37.8864                17.3623

                     52                     53                     54
                      A                      A                      A
 Frequencies --   1502.3319              1503.3372              1513.0144
 Red. masses --      1.1437                 1.0591                 1.0845
 Frc consts  --      1.5208                 1.4103                 1.4627
 IR Inten    --     25.5849                28.5528                27.8907

                     55                     56                     57
                      A                      A                      A
 Frequencies --   1534.4869              1612.0912              1659.4521
 Red. masses --      1.6022                 5.8432                 1.0897
 Frc consts  --      2.2228                 8.9470                 1.7680
 IR Inten    --    220.1761               678.6061                43.2478

                     58                     59                     60
                      A                      A                      A
 Frequencies --   3027.3998              3036.0685              3060.3041
 Red. masses --      1.0454                 1.0390                 1.0361
 Frc consts  --      5.6452                 5.6430                 5.7173
 IR Inten    --     88.0804               118.3810                70.0504

                     61                     62                     63
                      A                      A                      A
 Frequencies --   3071.8232              3089.3965              3101.4497
 Red. masses --      1.0379                 1.1028                 1.0947
 Frc consts  --      5.7703                 6.2015                 6.2041
 IR Inten    --     29.2592                70.4037                27.6716

                     64                     65                     66
                      A                      A                      A
 Frequencies --   3133.0484              3139.4939              3164.9865
 Red. masses --      1.1029                 1.0999                 1.1032
 Frc consts  --      6.3785                 6.3876                 6.5113
 IR Inten    --     26.7463                27.2238                19.5763

                     67                     68                     69
                      A                      A                      A
 Frequencies --   3166.3114              3171.0340              3173.2042
 Red. masses --      1.0959                 1.0998                 1.0979
 Frc consts  --      6.4732                 6.5157                 6.5135
 IR Inten    --      3.7588                11.9941                11.7699

                     70                     71                     72
                      A                      A                      A
 Frequencies --   3182.8047              3479.9383              3591.1022
 Red. masses --      1.0973                 1.0581                 1.0902
 Frc consts  --      6.5491                 7.5498                 8.2836
 IR Inten    --     17.9150                64.1158                54.2121

 - Thermochemistry -
 -------------------
 Temperature   298.150 Kelvin.  Pressure   1.00000 Atm.
 Atom     1 has atomic number  6 and mass  12.00000

 Molecular mass:   222.03677 amu.
 Principal axes and moments of inertia in atomic units:
                           1         2         3
     Eigenvalues --  2046.840722998.587864250.87850
           X            0.99917  -0.04055   0.00253
           Y            0.04053   0.99912   0.01039
           Z           -0.00294  -0.01028   0.99994
 This molecule is an asymmetric top.
 Rotational symmetry number  1.
 Warning -- assumption of classical behavior for rotation
           may cause significant error
 Rotational temperatures (Kelvin)      0.04232     0.02888     0.02038
 Rotational constants (GHZ):           0.88172     0.60186     0.42456
    1 imaginary frequencies ignored.
 Zero-point vibrational energy     584715.3 (Joules/Mol)
                                  139.75031 (Kcal/Mol)
 Warning -- explicit consideration of  20 degrees of freedom as
           vibrations may cause significant error
 Vibrational temperatures:     68.33    92.50   140.44   151.90   167.54
          (Kelvin)            196.35   238.94   241.81   273.08   290.73
                              317.19   343.52   384.86   416.59   460.50
                              568.54   583.07   654.55   696.94   831.50
                              952.45   994.89  1122.64  1263.86  1362.04
                             1442.50  1469.64  1501.24  1518.00  1561.12
                             1571.52  1631.57  1639.59  1676.35  1685.25
                             1725.15  1740.92  1885.08  1918.66  1935.26
                             2012.89  2056.69  2078.92  2083.54  2111.16
                             2121.32  2135.26  2144.50  2147.71  2156.36
                             2161.52  2162.97  2176.89  2207.78  2319.44
                             2387.58  4355.75  4368.23  4403.09  4419.67
                             4444.95  4462.29  4507.76  4517.03  4553.71
                             4555.62  4562.41  4565.53  4579.35  5006.86
                             5166.80

 Zero-point correction=                           0.222706 (Hartree/Particle)
 Thermal correction to Energy=                    0.236833
 Thermal correction to Enthalpy=                  0.237777
 Thermal correction to Gibbs Free Energy=         0.181071
 Sum of electronic and zero-point Energies=          -3034.491814
 Sum of electronic and thermal Energies=             -3034.477687
 Sum of electronic and thermal Enthalpies=           -3034.476743
 Sum of electronic and thermal Free Energies=        -3034.533449

                     E (Thermal)             CV                S
                      KCal/Mol        Cal/Mol-Kelvin    Cal/Mol-Kelvin
 Total                  148.615             48.783            119.348
 Electronic               0.000              0.000              0.000
 Translational            0.889              2.981             42.096
 Rotational               0.889              2.981             31.634
 Vibrational            146.838             42.822             45.618
 Vibration     1          0.595              1.979              4.919
 Vibration     2          0.597              1.971              4.321
 Vibration     3          0.603              1.951              3.502
 Vibration     4          0.605              1.945              3.349
 Vibration     5          0.608              1.936              3.159
 Vibration     6          0.614              1.917              2.853
 Vibration     7          0.624              1.884              2.480
 Vibration     8          0.625              1.882              2.457
 Vibration     9          0.633              1.854              2.230
 Vibration    10          0.639              1.837              2.114
 Vibration    11          0.647              1.810              1.955
 Vibration    12          0.657              1.781              1.812
 Vibration    13          0.673              1.733              1.612
 Vibration    14          0.686              1.693              1.477
 Vibration    15          0.706              1.635              1.310
 Vibration    16          0.762              1.481              0.981
 Vibration    17          0.770              1.459              0.944
 Vibration    18          0.813              1.350              0.781
 Vibration    19          0.841              1.285              0.698
 Vibration    20          0.934              1.079              0.489

 Optimization completed.
    -- Stationary point found.
 Normal termination of Gaussian 16 at Fri Feb 12 18:26:25 2021.
