 Gaussian 16, Revision A.03,
 Gaussian 16:  ES64L-G16RevA.03 25-Dec-2016

 ----------------------------------------------------------------------
 # wB97XD def2tzvp, opt=(ts, noeigen, calcfc, maxcycles=70, maxstep=3),
  freq=noraman, scrf=(iefpcm, solvent=water)
 ----------------------------------------------------------------------

 ------------------------
 0_iteration/TS-348-0.out
 ------------------------
 Symbolic Z-matrix:
 Charge =  0 Multiplicity = 1

 SCF Done:  E(RwB97XD) =  -5549.55272348     A.U. after   16 cycles
 SCF Done:  E(RwB97XD) =  -5549.55243396     A.U. after   12 cycles
 SCF Done:  E(RwB97XD) =  -5549.55218301     A.U. after   12 cycles
 SCF Done:  E(RwB97XD) =  -5549.55197394     A.U. after   12 cycles
 SCF Done:  E(RwB97XD) =  -5549.55181455     A.U. after   12 cycles
 SCF Done:  E(RwB97XD) =  -5549.55172935     A.U. after   12 cycles
 SCF Done:  E(RwB97XD) =  -5549.55180195     A.U. after   13 cycles
 SCF Done:  E(RwB97XD) =  -5549.55258358     A.U. after   14 cycles
 SCF Done:  E(RwB97XD) =  -5549.55327938     A.U. after   13 cycles
 SCF Done:  E(RwB97XD) =  -5549.55406048     A.U. after   12 cycles
 SCF Done:  E(RwB97XD) =  -5549.56973468     A.U. after   12 cycles
 SCF Done:  E(RwB97XD) =  -5549.56997441     A.U. after   12 cycles
 SCF Done:  E(RwB97XD) =  -5549.57007825     A.U. after   12 cycles
 SCF Done:  E(RwB97XD) =  -5549.57009141     A.U. after   12 cycles
 SCF Done:  E(RwB97XD) =  -5549.57007907     A.U. after   12 cycles
 SCF Done:  E(RwB97XD) =  -5549.57009231     A.U. after   11 cycles
 SCF Done:  E(RwB97XD) =  -5549.57009224     A.U. after   10 cycles
 SCF Done:  E(RwB97XD) =  -5549.57008593     A.U. after   10 cycles
 SCF Done:  E(RwB97XD) =  -5549.57009229     A.U. after   10 cycles
 Optimization completed.
    -- Stationary point found.
 Normal termination of Gaussian 16 at Tue Apr 13 13:54:32 2021.

 ---------------------------------------------------------------------
 #N Geom=AllCheck Guess=TCheck SCRF=Check GenChk RwB97XD/def2TZVP Freq
 ---------------------------------------------------------------------

 Structure from the checkpoint file:  "/beegfs/scratch/user/q/tla25/Gau-279004.chk"
 ------------------------
 0_iteration/TS-348-0.out
 ------------------------
 Charge =  0 Multiplicity = 1

                         Standard orientation:
 ---------------------------------------------------------------------
 Center     Atomic      Atomic             Coordinates (Angstroms)
 Number     Number       Type             X           Y           Z
 ---------------------------------------------------------------------
      1          6           0        0.581331    0.071374   -0.239335
      2          6           0        0.429448    1.494203   -0.025391
      3          8           0        1.273185    2.341775   -0.237539
      4          6           0       -0.374252   -0.905815   -0.156069
      5          6           0        0.325086   -1.252085    2.606562
      6          1           0        0.070651   -1.260975    3.667048
      7          1           0        0.974344   -2.096858    2.384772
      8          1           0        0.862440   -0.329979    2.380909
      9          7           0       -0.857563   -1.317496    1.761543
     10          1           0       -1.319015   -2.217976    1.805572
     11          1           0       -1.531188   -0.601573    2.005743
     12          1           0       -0.069522   -1.919599   -0.364890
     13         35           0       -2.171694   -0.658423   -0.797390
     14         35           0        2.374796   -0.527893   -0.501323
     15          8           0       -0.778394    1.794855    0.483356
     16          6           0       -1.062547    3.178646    0.667660
     17          1           0       -2.080424    3.221509    1.045392
     18          1           0       -0.375684    3.620387    1.389179
     19          1           0       -0.989959    3.717632   -0.276684
 ---------------------------------------------------------------------

 SCF Done:  E(RwB97XD) =  -5549.57009229     A.U. after    1 cycles

 The electronic state is 1-A.
 Alpha  occ. eigenvalues -- -483.13621-483.12773 -62.68472 -62.67603 -56.47596
 Alpha  occ. eigenvalues --  -56.47232 -56.47214 -56.46721 -56.46364 -56.46357
 Alpha  occ. eigenvalues --  -19.29433 -19.22750 -14.47722 -10.41490 -10.39079
 Alpha  occ. eigenvalues --  -10.33189 -10.32276 -10.31519  -8.82588  -8.81715
 Alpha  occ. eigenvalues --   -6.64769  -6.63873  -6.63609  -6.63549  -6.62730
 Alpha  occ. eigenvalues --   -6.62707  -2.75152  -2.74827  -2.74778  -2.74261
 Alpha  occ. eigenvalues --   -2.73928  -2.73910  -2.73841  -2.73840  -2.72985
 Alpha  occ. eigenvalues --   -2.72985  -1.21070  -1.11545  -1.03245  -0.95178
 Alpha  occ. eigenvalues --   -0.89785  -0.84502  -0.80069  -0.78551  -0.72615
 Alpha  occ. eigenvalues --   -0.64669  -0.62881  -0.58979  -0.57789  -0.57377
 Alpha  occ. eigenvalues --   -0.56593  -0.53525  -0.53115  -0.51526  -0.48918
 Alpha  occ. eigenvalues --   -0.47747  -0.45717  -0.44786  -0.44567  -0.40172
 Alpha  occ. eigenvalues --   -0.39321  -0.38031  -0.37308  -0.36730  -0.36214
 Alpha  occ. eigenvalues --   -0.28681
 Alpha virt. eigenvalues --    0.01992   0.05322   0.08608   0.10880   0.13129
 Alpha virt. eigenvalues --    0.14188   0.15613   0.16283   0.17071   0.17684
 Alpha virt. eigenvalues --    0.19168   0.20236   0.20456   0.21020   0.21993

 Mulliken charges:
               1
     1  C   -0.255701
     2  C    0.419489
     3  O   -0.464114
     4  C    0.005408
     5  C   -0.279886
     6  H    0.153803
     7  H    0.156204
     8  H    0.147889
     9  N   -0.383011
    10  H    0.287648
    11  H    0.280814
    12  H    0.201866
    13  Br  -0.079910
    14  Br  -0.116563
    15  O   -0.288995
    16  C   -0.195628
    17  H    0.142777
    18  H    0.133686
    19  H    0.134225
 Sum of Mulliken charges =  -0.00000

 Dipole moment (field-independent basis, Debye):
    X=             -5.4669    Y=             -4.4354    Z=              6.1641  Tot=              9.3572
 Quadrupole moment (field-independent basis, Debye-Ang):
   XX=            -90.4658   YY=            -78.5307   ZZ=            -75.7370
   XY=             -7.1365   XZ=             -2.5360   YZ=             -3.1713

  Exact polarizability: 194.200  11.225 165.135  -6.559 -12.849 145.279
 Approx polarizability: 155.346   8.513 134.523  -5.240  -8.299 119.899

 ******    1 imaginary frequencies (negative Signs) ******

                      1                      2                      3
                      A                      A                      A
 Frequencies --   -351.1689                48.2318                63.9346
 Red. masses --      5.9315                 3.8599                 4.8400
 Frc consts  --      0.4310                 0.0053                 0.0117
 IR Inten    --    723.6180                 3.3254                 3.0244

                      4                      5                      6
                      A                      A                      A
 Frequencies --     78.3480                93.0492               103.4268
 Red. masses --      2.3795                 4.7044                 4.1352
 Frc consts  --      0.0086                 0.0240                 0.0261
 IR Inten    --     10.8057                 4.5659                 1.8758

                      7                      8                      9
                      A                      A                      A
 Frequencies --    139.5790               152.8055               172.6305
 Red. masses --      3.4602                 2.1186                 1.9579
 Frc consts  --      0.0397                 0.0291                 0.0344
 IR Inten    --      2.5462                 5.0202                 6.0269

                     10                     11                     12
                      A                      A                      A
 Frequencies --    181.7427               191.8401               254.2537
 Red. masses --      1.2520                 5.2617                 3.7552
 Frc consts  --      0.0244                 0.1141                 0.1430
 IR Inten    --      1.1997                 3.3264                25.3314

                     13                     14                     15
                      A                      A                      A
 Frequencies --    262.0036               291.0708               380.5137
 Red. masses --      9.4014                 5.5619                 4.9991
 Frc consts  --      0.3802                 0.2776                 0.4265
 IR Inten    --     10.2727                16.2976                24.4727

                     16                     17                     18
                      A                      A                      A
 Frequencies --    429.6917               562.4182               659.4952
 Red. masses --      4.2729                 2.3682                 2.3692
 Frc consts  --      0.4648                 0.4414                 0.6071
 IR Inten    --     58.1282                11.1922                22.1406

                     19                     20                     21
                      A                      A                      A
 Frequencies --    703.4938               788.0789               815.0536
 Red. masses --      6.3550                11.2247                 5.7873
 Frc consts  --      1.8530                 4.1074                 2.2652
 IR Inten    --    161.4380                60.0144                24.2440

                     22                     23                     24
                      A                      A                      A
 Frequencies --    921.1655               981.2358              1008.4804
 Red. masses --      5.1767                 1.1042                 1.0905
 Frc consts  --      2.5881                 0.6264                 0.6535
 IR Inten    --     15.7857                97.4701                37.2009

                     25                     26                     27
                      A                      A                      A
 Frequencies --   1069.2653              1090.4638              1098.3462
 Red. masses --      1.3568                 2.7634                 4.4315
 Frc consts  --      0.9139                 1.9360                 3.1498
 IR Inten    --     94.9727                 8.7380               144.2286

                     28                     29                     30
                      A                      A                      A
 Frequencies --   1181.3489              1198.2729              1214.6335
 Red. masses --      1.2810                 1.4289                 1.4589
 Frc consts  --      1.0533                 1.2088                 1.2681
 IR Inten    --      1.4666                24.8560                 1.1950

                     31                     32                     33
                      A                      A                      A
 Frequencies --   1230.8449              1342.1977              1348.1810
 Red. masses --      2.0191                 1.5861                 1.8136
 Frc consts  --      1.8022                 1.6835                 1.9422
 IR Inten    --    361.8720               152.7303               200.9614

                     34                     35                     36
                      A                      A                      A
 Frequencies --   1444.5764              1473.4274              1479.7815
 Red. masses --      1.8473                 2.0904                 1.2043
 Frc consts  --      2.2712                 2.6739                 1.5537
 IR Inten    --    373.4443               239.1699                97.9915

                     37                     38                     39
                      A                      A                      A
 Frequencies --   1482.6215              1490.2314              1496.0188
 Red. masses --      1.0726                 1.0405                 1.0964
 Frc consts  --      1.3891                 1.3615                 1.4457
 IR Inten    --     26.3988                19.8019                58.2636

                     40                     41                     42
                      A                      A                      A
 Frequencies --   1502.4788              1645.9711              1726.5720
 Red. masses --      1.0357                 1.0905                11.6616
 Frc consts  --      1.3775                 1.7407                20.4823
 IR Inten    --     17.8906                61.0028               949.0739

                     43                     44                     45
                      A                      A                      A
 Frequencies --   3061.0916              3066.8789              3134.1188
 Red. masses --      1.0333                 1.0306                 1.1044
 Frc consts  --      5.7047                 5.7115                 6.3918
 IR Inten    --     35.0617                51.8838                16.9491

                     46                     47                     48
                      A                      A                      A
 Frequencies --   3145.4890              3158.9270              3179.8564
 Red. masses --      1.1071                 1.1053                 1.1058
 Frc consts  --      6.4540                 6.4985                 6.5877
 IR Inten    --     31.6141                16.8771                18.9598

                     49                     50                     51
                      A                      A                      A
 Frequencies --   3242.1634              3531.1260              3618.1178
 Red. masses --      1.0924                 1.0501                 1.0969
 Frc consts  --      6.7654                 7.7146                 8.4603
 IR Inten    --      2.3985                49.1889                46.7228

 - Thermochemistry -
 -------------------
 Temperature   298.150 Kelvin.  Pressure   1.00000 Atm.
 Atom     1 has atomic number  6 and mass  12.00000

 Molecular mass:   272.90000 amu.
 Principal axes and moments of inertia in atomic units:
                           1         2         3
     Eigenvalues --  2454.883674056.085584809.40444
           X            0.99954  -0.02783  -0.01188
           Y            0.02703   0.99767  -0.06258
           Z            0.01360   0.06223   0.99797
 This molecule is an asymmetric top.
 Rotational symmetry number  1.
 Warning -- assumption of classical behavior for rotation
           may cause significant error
 Rotational temperatures (Kelvin)      0.03528     0.02135     0.01801
 Rotational constants (GHZ):           0.73516     0.44495     0.37525
    1 imaginary frequencies ignored.
 Zero-point vibrational energy     376438.2 (Joules/Mol)
                                   89.97088 (Kcal/Mol)
 Warning -- explicit consideration of  16 degrees of freedom as
           vibrations may cause significant error
 Vibrational temperatures:     69.39    91.99   112.73   133.88   148.81
          (Kelvin)            200.82   219.85   248.38   261.49   276.02
                              365.81   376.96   418.79   547.47   618.23
                              809.19   948.87  1012.17  1133.87  1172.68
                             1325.35  1411.78  1450.98  1538.43  1568.93
                             1580.28  1699.70  1724.05  1747.59  1770.91
                             1931.12  1939.73  2078.42  2119.93  2129.08
                             2133.16  2144.11  2152.44  2161.73  2368.19
                             2484.15  4404.23  4412.55  4509.30  4525.66
                             4544.99  4575.10  4664.75  5080.50  5205.66

 Zero-point correction=                           0.143378 (Hartree/Particle)
 Thermal correction to Energy=                    0.156078
 Thermal correction to Enthalpy=                  0.157022
 Thermal correction to Gibbs Free Energy=         0.101627
 Sum of electronic and zero-point Energies=          -5549.426715
 Sum of electronic and thermal Energies=             -5549.414014
 Sum of electronic and thermal Enthalpies=           -5549.413070
 Sum of electronic and thermal Free Energies=        -5549.468465

                     E (Thermal)             CV                S
                      KCal/Mol        Cal/Mol-Kelvin    Cal/Mol-Kelvin
 Total                   97.940             41.241            116.588
 Electronic               0.000              0.000              0.000
 Translational            0.889              2.981             42.711
 Rotational               0.889              2.981             32.238
 Vibrational             96.163             35.279             41.640
 Vibration     1          0.595              1.978              4.889
 Vibration     2          0.597              1.972              4.332
 Vibration     3          0.600              1.964              3.932
 Vibration     4          0.602              1.954              3.595
 Vibration     5          0.605              1.946              3.389
 Vibration     6          0.615              1.914              2.810
 Vibration     7          0.619              1.900              2.637
 Vibration     8          0.626              1.876              2.407
 Vibration     9          0.630              1.865              2.310
 Vibration    10          0.634              1.851              2.210
 Vibration    11          0.665              1.756              1.701
 Vibration    12          0.669              1.742              1.648
 Vibration    13          0.687              1.690              1.468
 Vibration    14          0.750              1.512              1.037
 Vibration    15          0.791              1.406              0.860
 Vibration    16          0.918              1.113              0.519

 Optimization completed.
    -- Stationary point found.
 Normal termination of Gaussian 16 at Tue Apr 13 14:01:16 2021.
