 Gaussian 16, Revision A.03,
 Gaussian 16:  ES64L-G16RevA.03 25-Dec-2016

 ----------------------------------------------------------------------
 # wB97XD def2tzvp, opt=(ts, noeigen, calcfc, maxcycles=70, maxstep=5),
  freq=noraman, scrf=(iefpcm, solvent=water)
 ----------------------------------------------------------------------

 ------------------------
 2_iteration/TS-304-2.out
 ------------------------
 Symbolic Z-matrix:
 Charge =  0 Multiplicity = 1

 SCF Done:  E(RwB97XD) =  -597.473366462     A.U. after   15 cycles
 SCF Done:  E(RwB97XD) =  -597.473366457     A.U. after    7 cycles
 Optimization completed.
    -- Stationary point found.
 Normal termination of Gaussian 16 at Wed Mar 31 06:28:31 2021.

 ---------------------------------------------------------------------
 #N Geom=AllCheck Guess=TCheck SCRF=Check GenChk RwB97XD/def2TZVP Freq
 ---------------------------------------------------------------------

 Structure from the checkpoint file:  "/beegfs/scratch/user/q/tla25/Gau-71815.chk"
 ------------------------
 2_iteration/TS-304-2.out
 ------------------------
 Charge =  0 Multiplicity = 1

                         Standard orientation:
 ---------------------------------------------------------------------
 Center     Atomic      Atomic             Coordinates (Angstroms)
 Number     Number       Type             X           Y           Z
 ---------------------------------------------------------------------
      1          6           0       -1.275724    1.172566    0.197444
      2          6           0        0.021541    1.536966   -0.227491
      3          8           0        0.291232    2.663844   -0.692810
      4          6           0       -1.645635   -0.052209    0.787073
      5          6           0       -3.077765   -2.401841   -0.229466
      6          1           0       -3.491726   -2.912634   -1.099885
      7          1           0       -2.476492   -3.107689    0.339347
      8          1           0       -3.896971   -2.051567    0.397800
      9          7           0       -2.250154   -1.258444   -0.610080
     10          1           0       -1.404191   -1.547362   -1.087881
     11          1           0       -2.747850   -0.628461   -1.227372
     12          1           0       -2.640452   -0.015901    1.223611
     13          6           0       -0.755490   -0.994630    1.557343
     14          1           0       -0.321832   -0.458951    2.402966
     15          1           0       -1.340700   -1.823784    1.953202
     16          1           0        0.064228   -1.397029    0.967841
     17          6           0       -2.366491    2.183929   -0.073014
     18          1           0       -3.331276    1.826623    0.292708
     19          1           0       -2.161400    3.141874    0.412720
     20          1           0       -2.476221    2.398031   -1.141228
     21          6           0        1.168536    0.562847   -0.168524
     22          6           0        2.114043    0.643752    0.847340
     23          6           0        3.181855   -0.240328    0.884857
     24          6           0        3.323486   -1.205629   -0.103444
     25          6           0        2.397443   -1.274772   -1.134692
     26          6           0        1.326212   -0.392930   -1.166213
     27          1           0        2.001031    1.390623    1.624292
     28          1           0        3.904711   -0.178572    1.688953
     29          1           0        4.155601   -1.897549   -0.072400
     30          1           0        2.507786   -2.017545   -1.914946
     31          1           0        0.604911   -0.448086   -1.973962
 ---------------------------------------------------------------------

 SCF Done:  E(RwB97XD) =  -597.473366457     A.U. after    1 cycles

 The electronic state is 1-A.
 Alpha  occ. eigenvalues --  -19.19474 -14.47786 -10.33931 -10.33709 -10.31716
 Alpha  occ. eigenvalues --  -10.29286 -10.29086 -10.29030 -10.28970 -10.28859
 Alpha  occ. eigenvalues --  -10.28840 -10.27768 -10.26252 -10.25129  -1.09809
 Alpha  occ. eigenvalues --   -1.03298  -0.96500  -0.90531  -0.85729  -0.85089
 Alpha  occ. eigenvalues --   -0.82979  -0.78837  -0.75233  -0.72076  -0.70392
 Alpha  occ. eigenvalues --   -0.68574  -0.62690  -0.62552  -0.58641  -0.56677
 Alpha  occ. eigenvalues --   -0.55147  -0.54598  -0.54049  -0.53221  -0.52554
 Alpha  occ. eigenvalues --   -0.50961  -0.49609  -0.49237  -0.48571  -0.47816
 Alpha  occ. eigenvalues --   -0.47409  -0.45838  -0.44037  -0.43853  -0.43403
 Alpha  occ. eigenvalues --   -0.42338  -0.41889  -0.40695  -0.33867  -0.33574
 Alpha  occ. eigenvalues --   -0.30862  -0.26381
 Alpha virt. eigenvalues --    0.04588   0.05285   0.05811   0.09704   0.12385
 Alpha virt. eigenvalues --    0.12959   0.13809   0.14922   0.15594   0.16358
 Alpha virt. eigenvalues --    0.16975   0.17296   0.18074   0.18624   0.19049

 Mulliken charges:
               1
     1  C   -0.171908
     2  C    0.203090
     3  O   -0.544986
     4  C   -0.053522
     5  C   -0.287126
     6  H    0.152739
     7  H    0.155431
     8  H    0.150445
     9  N   -0.322775
    10  H    0.266340
    11  H    0.280861
    12  H    0.147949
    13  C   -0.361879
    14  H    0.143333
    15  H    0.150337
    16  H    0.148429
    17  C   -0.373755
    18  H    0.116112
    19  H    0.111637
    20  H    0.110103
    21  C    0.219791
    22  C   -0.248747
    23  C   -0.135797
    24  C   -0.159216
    25  C   -0.127460
    26  C   -0.296951
    27  H    0.141470
    28  H    0.142030
    29  H    0.143564
    30  H    0.142432
    31  H    0.158031
 Sum of Mulliken charges =  -0.00000

 Dipole moment (field-independent basis, Debye):
    X=             -5.6644    Y=            -10.7942    Z=              0.6949  Tot=             12.2099
 Quadrupole moment (field-independent basis, Debye-Ang):
   XX=            -68.4957   YY=            -98.1320   ZZ=            -80.9814
   XY=              4.0740   XZ=              6.1972   YZ=              9.5405

  Exact polarizability: 236.952   7.455 235.444   9.517   8.030 185.883
 Approx polarizability: 179.135   3.178 187.866   7.969   7.704 160.699

 ******    1 imaginary frequencies (negative Signs) ******

                      1                      2                      3
                      A                      A                      A
 Frequencies --   -367.2351                29.1227                39.6206
 Red. masses --      6.1055                 2.9160                 2.6995
 Frc consts  --      0.4851                 0.0015                 0.0025
 IR Inten    --   1099.4266                 4.2702                 1.5149

                      4                      5                      6
                      A                      A                      A
 Frequencies --     64.9678                71.0612                84.0289
 Red. masses --      2.3396                 2.9808                 3.4224
 Frc consts  --      0.0058                 0.0089                 0.0142
 IR Inten    --      6.0990                 2.4398                 3.6577

                      7                      8                      9
                      A                      A                      A
 Frequencies --    102.8672               143.1960               171.4041
 Red. masses --      1.3827                 2.3339                 1.2245
 Frc consts  --      0.0086                 0.0282                 0.0212
 IR Inten    --      2.1263                 2.5231                 1.6514

                     10                     11                     12
                      A                      A                      A
 Frequencies --    198.7645               217.8282               251.9236
 Red. masses --      3.0093                 2.3580                 2.4096
 Frc consts  --      0.0700                 0.0659                 0.0901
 IR Inten    --      1.9499                 6.3302                17.4846

                     13                     14                     15
                      A                      A                      A
 Frequencies --    280.1878               294.6054               317.1764
 Red. masses --      2.1893                 2.5517                 2.7607
 Frc consts  --      0.1013                 0.1305                 0.1636
 IR Inten    --     10.1057                 2.5277                 9.8438

                     16                     17                     18
                      A                      A                      A
 Frequencies --    344.2192               363.3430               416.4787
 Red. masses --      2.8216                 5.4064                 2.8715
 Frc consts  --      0.1970                 0.4205                 0.2935
 IR Inten    --      1.5459                19.8656                 0.9417

                     19                     20                     21
                      A                      A                      A
 Frequencies --    467.8115               512.3242               584.0423
 Red. masses --      4.0648                 3.1602                 3.3517
 Frc consts  --      0.5241                 0.4887                 0.6736
 IR Inten    --    164.1114                34.1905                24.7737

                     22                     23                     24
                      A                      A                      A
 Frequencies --    635.2974               636.6928               669.3315
 Red. masses --      2.4524                 3.2313                 2.3316
 Frc consts  --      0.5832                 0.7718                 0.6155
 IR Inten    --     15.6788                 8.6487                20.8675

                     25                     26                     27
                      A                      A                      A
 Frequencies --    719.9748               729.0465               783.6467
 Red. masses --      4.0397                 1.4884                 5.5677
 Frc consts  --      1.2338                 0.4661                 2.0145
 IR Inten    --      4.1554                91.8129                32.7376

                     28                     29                     30
                      A                      A                      A
 Frequencies --    809.7309               880.4658               899.2298
 Red. masses --      2.6815                 1.2497                 2.1674
 Frc consts  --      1.0359                 0.5708                 1.0326
 IR Inten    --     64.0567                 0.2063                46.4951

                     31                     32                     33
                      A                      A                      A
 Frequencies --    953.6317               982.9562              1002.9148
 Red. masses --      1.4671                 1.2452                 1.6157
 Frc consts  --      0.7861                 0.7088                 0.9575
 IR Inten    --     54.5801                39.4052                88.6276

                     34                     35                     36
                      A                      A                      A
 Frequencies --   1010.5133              1025.4642              1028.0833
 Red. masses --      1.3845                 5.1284                 1.3540
 Frc consts  --      0.8330                 3.1774                 0.8432
 IR Inten    --      4.2261                 0.6241                 7.8304

                     37                     38                     39
                      A                      A                      A
 Frequencies --   1031.7991              1037.6181              1058.0493
 Red. masses --      1.4515                 1.2202                 1.4037
 Frc consts  --      0.9105                 0.7741                 0.9258
 IR Inten    --     21.7540                42.1577                 2.1519

                     40                     41                     42
                      A                      A                      A
 Frequencies --   1061.4233              1070.5661              1091.4929
 Red. masses --      2.0519                 3.8281                 1.5517
 Frc consts  --      1.3620                 2.5850                 1.0892
 IR Inten    --      5.9022               167.0189                94.8929

                     43                     44                     45
                      A                      A                      A
 Frequencies --   1109.2232              1119.7729              1181.9529
 Red. masses --      1.5481                 2.6689                 1.2408
 Frc consts  --      1.1222                 1.9717                 1.0213
 IR Inten    --     13.1482                65.5345               158.3375

                     46                     47                     48
                      A                      A                      A
 Frequencies --   1182.8861              1205.3128              1216.4722
 Red. masses --      1.1408                 1.1227                 2.2568
 Frc consts  --      0.9405                 0.9610                 1.9676
 IR Inten    --      1.7469                 0.1379                11.7258

                     49                     50                     51
                      A                      A                      A
 Frequencies --   1223.3691              1317.5558              1322.0654
 Red. masses --      1.6365                 3.7743                 1.7771
 Frc consts  --      1.4431                 3.8604                 1.8300
 IR Inten    --     16.1234                 6.7699                50.4238

                     52                     53                     54
                      A                      A                      A
 Frequencies --   1343.5409              1357.6082              1411.2806
 Red. masses --      1.3179                 1.4717                 1.2688
 Frc consts  --      1.4017                 1.5982                 1.4890
 IR Inten    --      0.1981                 0.7949                 6.6962

                     55                     56                     57
                      A                      A                      A
 Frequencies --   1414.2985              1445.5580              1464.7215
 Red. masses --      1.2398                 2.2194                 1.3416
 Frc consts  --      1.4611                 2.7324                 1.6959
 IR Inten    --     32.6875               566.9923                40.4042

                     58                     59                     60
                      A                      A                      A
 Frequencies --   1467.6766              1479.6044              1487.8727
 Red. masses --      1.0529                 1.3314                 2.1568
 Frc consts  --      1.3363                 1.7173                 2.8131
 IR Inten    --      8.0612                42.4028                15.3744

                     61                     62                     63
                      A                      A                      A
 Frequencies --   1492.1642              1495.3163              1499.7932
 Red. masses --      1.1154                 1.1333                 1.0931
 Frc consts  --      1.4632                 1.4931                 1.4487
 IR Inten    --     26.3926                51.7718                18.7061

                     64                     65                     66
                      A                      A                      A
 Frequencies --   1507.2183              1515.1976              1543.2548
 Red. masses --      1.1253                 1.5652                 2.4908
 Frc consts  --      1.5062                 2.1172                 3.4951
 IR Inten    --    146.4262               465.5985                 5.7762

                     67                     68                     69
                      A                      A                      A
 Frequencies --   1583.1237              1644.7956              1648.2727
 Red. masses --      8.2105                 1.1542                 4.4460
 Frc consts  --     12.1242                 1.8398                 7.1167
 IR Inten    --    778.2937                36.2649                 0.0458

                     70                     71                     72
                      A                      A                      A
 Frequencies --   1675.2061              3023.2789              3065.0467
 Red. masses --      5.9187                 1.0383                 1.0345
 Frc consts  --      9.7862                 5.5916                 5.7260
 IR Inten    --      2.2013                97.3656                62.3598

                     73                     74                     75
                      A                      A                      A
 Frequencies --   3072.1003              3074.0108              3108.9376
 Red. masses --      1.0990                 1.0386                 1.1006
 Frc consts  --      6.1114                 5.7823                 6.2677
 IR Inten    --     56.8768                20.8008                34.8616

                     76                     77                     78
                      A                      A                      A
 Frequencies --   3134.0524              3139.9695              3142.6506
 Red. masses --      1.0931                 1.1036                 1.0981
 Frc consts  --      6.3258                 6.4106                 6.3897
 IR Inten    --     27.1101                13.1959                54.0597

                     79                     80                     81
                      A                      A                      A
 Frequencies --   3165.7370              3174.4133              3182.9506
 Red. masses --      1.1048                 1.1004                 1.0880
 Frc consts  --      6.5237                 6.5329                 6.4942
 IR Inten    --     19.1892                17.0839                11.3947

                     82                     83                     84
                      A                      A                      A
 Frequencies --   3189.6108              3199.5132              3207.7715
 Red. masses --      1.0872                 1.0905                 1.0948
 Frc consts  --      6.5169                 6.5775                 6.6370
 IR Inten    --      3.8434                 6.3691                43.5990

                     85                     86                     87
                      A                      A                      A
 Frequencies --   3219.5539              3527.1522              3610.2918
 Red. masses --      1.0987                 1.0510                 1.0960
 Frc consts  --      6.7097                 7.7038                 8.4168
 IR Inten    --     20.8617                11.9549                46.3049

 - Thermochemistry -
 -------------------
 Temperature   298.150 Kelvin.  Pressure   1.00000 Atm.
 Atom     1 has atomic number  6 and mass  12.00000

 Molecular mass:   191.13101 amu.
 Principal axes and moments of inertia in atomic units:
                           1         2         3
     Eigenvalues --  1996.186843484.035524534.51141
           X            0.99996   0.00706   0.00581
           Y           -0.00713   0.99990   0.01196
           Z           -0.00572  -0.01200   0.99991
 This molecule is an asymmetric top.
 Rotational symmetry number  1.
 Warning -- assumption of classical behavior for rotation
           may cause significant error
 Rotational temperatures (Kelvin)      0.04339     0.02486     0.01910
 Rotational constants (GHZ):           0.90409     0.51800     0.39800
    1 imaginary frequencies ignored.
 Zero-point vibrational energy     703793.3 (Joules/Mol)
                                  168.21064 (Kcal/Mol)
 Warning -- explicit consideration of  20 degrees of freedom as
           vibrations may cause significant error
 Vibrational temperatures:     41.90    57.01    93.47   102.24   120.90
          (Kelvin)            148.00   206.03   246.61   285.98   313.41
                              362.46   403.13   423.87   456.35   495.25
                              522.77   599.22   673.08   737.12   840.31
                              914.05   916.06   963.02  1035.88  1048.94
                             1127.49  1165.02  1266.79  1293.79  1372.06
                             1414.25  1442.97  1453.90  1475.41  1479.18
                             1484.53  1492.90  1522.30  1527.15  1540.31
                             1570.41  1595.92  1611.10  1700.57  1701.91
                             1734.18  1750.23  1760.16  1895.67  1902.16
                             1933.06  1953.30  2030.52  2034.86  2079.84
                             2107.41  2111.66  2128.82  2140.72  2146.89
                             2151.43  2157.87  2168.55  2180.03  2220.40
                             2277.76  2366.49  2371.50  2410.25  4349.82
                             4409.92  4420.07  4422.82  4473.07  4509.20
                             4517.72  4521.57  4554.79  4567.27  4579.56
                             4589.14  4603.39  4615.27  4632.22  5074.79
                             5194.40

 Zero-point correction=                           0.268061 (Hartree/Particle)
 Thermal correction to Energy=                    0.283009
 Thermal correction to Enthalpy=                  0.283954
 Thermal correction to Gibbs Free Energy=         0.224728
 Sum of electronic and zero-point Energies=           -597.205306
 Sum of electronic and thermal Energies=              -597.190357
 Sum of electronic and thermal Enthalpies=            -597.189413
 Sum of electronic and thermal Free Energies=         -597.248639

                     E (Thermal)             CV                S
                      KCal/Mol        Cal/Mol-Kelvin    Cal/Mol-Kelvin
 Total                  177.591             54.397            124.651
 Electronic               0.000              0.000              0.000
 Translational            0.889              2.981             41.649
 Rotational               0.889              2.981             31.823
 Vibrational            175.814             48.435             51.179
 Vibration     1          0.593              1.984              5.888
 Vibration     2          0.594              1.981              5.278
 Vibration     3          0.597              1.971              4.300
 Vibration     4          0.598              1.968              4.124
 Vibration     5          0.601              1.960              3.794
 Vibration     6          0.605              1.947              3.399
 Vibration     7          0.616              1.910              2.761
 Vibration     8          0.626              1.878              2.420
 Vibration     9          0.637              1.842              2.145
 Vibration    10          0.646              1.814              1.977
 Vibration    11          0.664              1.760              1.717
 Vibration    12          0.680              1.710              1.533
 Vibration    13          0.689              1.684              1.447
 Vibration    14          0.704              1.641              1.325
 Vibration    15          0.723              1.587              1.193
 Vibration    16          0.737              1.548              1.108
 Vibration    17          0.780              1.434              0.904
 Vibration    18          0.825              1.321              0.744
 Vibration    19          0.867              1.223              0.628
 Vibration    20          0.941              1.066              0.478

 Optimization completed.
    -- Stationary point found.
 Normal termination of Gaussian 16 at Wed Mar 31 07:26:27 2021.
