 Gaussian 16, Revision A.03,
 Gaussian 16:  ES64L-G16RevA.03 25-Dec-2016

 ----------------------------------------------------------------------
 # wB97XD def2tzvp, opt=(ts, noeigen, calcfc, maxcycles=70, maxstep=3),
  freq=noraman, scrf=(iefpcm, solvent=water)
 ----------------------------------------------------------------------

 ------------------------
 0_iteration/TS-374-0.out
 ------------------------
 Symbolic Z-matrix:
 Charge =  0 Multiplicity = 1

 SCF Done:  E(RwB97XD) =  -881.379122450     A.U. after   15 cycles
 SCF Done:  E(RwB97XD) =  -881.378674408     A.U. after   11 cycles
 SCF Done:  E(RwB97XD) =  -881.378259178     A.U. after   11 cycles
 SCF Done:  E(RwB97XD) =  -881.377874998     A.U. after   11 cycles
 SCF Done:  E(RwB97XD) =  -881.377539384     A.U. after   11 cycles
 SCF Done:  E(RwB97XD) =  -881.377247674     A.U. after   11 cycles
 SCF Done:  E(RwB97XD) =  -881.377057345     A.U. after   12 cycles
 SCF Done:  E(RwB97XD) =  -881.376934588     A.U. after   12 cycles
 SCF Done:  E(RwB97XD) =  -881.376972917     A.U. after   12 cycles
 SCF Done:  E(RwB97XD) =  -881.377511360     A.U. after   12 cycles
 SCF Done:  E(RwB97XD) =  -881.393777183     A.U. after   10 cycles
 SCF Done:  E(RwB97XD) =  -881.393764946     A.U. after   10 cycles
 SCF Done:  E(RwB97XD) =  -881.393780176     A.U. after    9 cycles
 SCF Done:  E(RwB97XD) =  -881.393776589     A.U. after    9 cycles
 SCF Done:  E(RwB97XD) =  -881.393785922     A.U. after   10 cycles
 SCF Done:  E(RwB97XD) =  -881.393785762     A.U. after    9 cycles
 SCF Done:  E(RwB97XD) =  -881.393786355     A.U. after    8 cycles
 SCF Done:  E(RwB97XD) =  -881.393783036     A.U. after    9 cycles
 SCF Done:  E(RwB97XD) =  -881.393785923     A.U. after    9 cycles
 Optimization completed.
    -- Stationary point found.
 Normal termination of Gaussian 16 at Mon Apr 12 14:36:11 2021.

 ---------------------------------------------------------------------
 #N Geom=AllCheck Guess=TCheck SCRF=Check GenChk RwB97XD/def2TZVP Freq
 ---------------------------------------------------------------------

 Structure from the checkpoint file:  "/beegfs/scratch/user/q/tla25/Gau-64393.chk"
 ------------------------
 0_iteration/TS-374-0.out
 ------------------------
 Charge =  0 Multiplicity = 1

                         Standard orientation:
 ---------------------------------------------------------------------
 Center     Atomic      Atomic             Coordinates (Angstroms)
 Number     Number       Type             X           Y           Z
 ---------------------------------------------------------------------
      1          6           0        0.000301    0.051087    0.918377
      2          6           0       -0.900404    0.076677   -0.217274
      3          8           0       -0.474733    0.094721   -1.387012
      4          6           0        1.339706    0.313522    0.796795
      5          6           0        1.936590   -2.371733    0.142880
      6          1           0        2.055790   -3.137853   -0.624231
      7          1           0        2.622649   -2.575910    0.963387
      8          1           0        0.912399   -2.408825    0.521732
      9          7           0        2.176677   -1.035443   -0.370225
     10          1           0        3.152371   -0.846919   -0.559884
     11          1           0        1.617443   -0.836984   -1.194710
     12          1           0        1.973623    0.159522    1.658229
     13         17           0        1.940800    1.717308   -0.125647
     14          1           0       -0.307461   -0.416072    1.842668
     15          7           0       -2.241734    0.037240    0.031648
     16          6           0       -2.798354    0.075337    1.366026
     17          6           0       -3.180822   -0.207066   -1.039753
     18          1           0       -2.206170    0.718926    2.013317
     19          1           0       -3.806880    0.486444    1.313314
     20          1           0       -2.860653   -0.920654    1.818274
     21          1           0       -2.638553   -0.301906   -1.975192
     22          1           0       -3.742001   -1.127939   -0.853656
     23          1           0       -3.894991    0.616635   -1.123419
 ---------------------------------------------------------------------

 SCF Done:  E(RwB97XD) =  -881.393785923     A.U. after    1 cycles

 The electronic state is 1-A.
 Alpha  occ. eigenvalues -- -101.68926 -19.19538 -14.46751 -14.45131 -10.37800
 Alpha  occ. eigenvalues --  -10.37174 -10.31017 -10.30629 -10.30077 -10.25191
 Alpha  occ. eigenvalues --   -9.57514  -7.32135  -7.31311  -7.31271  -1.12203
 Alpha  occ. eigenvalues --   -1.02836  -1.02389  -0.95570  -0.85430  -0.81259
 Alpha  occ. eigenvalues --   -0.78672  -0.77943  -0.69699  -0.63005  -0.61307
 Alpha  occ. eigenvalues --   -0.58495  -0.56534  -0.56091  -0.55796  -0.53267
 Alpha  occ. eigenvalues --   -0.52893  -0.49508  -0.48331  -0.47864  -0.47297
 Alpha  occ. eigenvalues --   -0.47105  -0.45889  -0.45288  -0.44273  -0.39344
 Alpha  occ. eigenvalues --   -0.37485  -0.33370  -0.31523  -0.27752
 Alpha virt. eigenvalues --    0.05525   0.09445   0.10676   0.12705   0.14340
 Alpha virt. eigenvalues --    0.15577   0.16465   0.16951   0.17465   0.17866
 Alpha virt. eigenvalues --    0.18997   0.19957   0.20389   0.20794   0.21396

 Mulliken charges:
               1
     1  C   -0.524861
     2  C    0.348529
     3  O   -0.580746
     4  C    0.056179
     5  C   -0.271103
     6  H    0.144996
     7  H    0.146821
     8  H    0.138899
     9  N   -0.351286
    10  H    0.276585
    11  H    0.269839
    12  H    0.183354
    13  Cl  -0.149771
    14  H    0.172841
    15  N   -0.105933
    16  C   -0.305012
    17  C   -0.279989
    18  H    0.148929
    19  H    0.141478
    20  H    0.137579
    21  H    0.142686
    22  H    0.128197
    23  H    0.131789
 Sum of Mulliken charges =  -0.00000

 Dipole moment (field-independent basis, Debye):
    X=              1.4233    Y=             -4.8367    Z=              3.0663  Tot=              5.9009
 Quadrupole moment (field-independent basis, Debye-Ang):
   XX=            -49.6055   YY=            -67.9780   ZZ=            -69.8111
   XY=             -7.8838   XZ=             -2.4031   YZ=              0.5407

  Exact polarizability: 190.225  -2.490 136.284  -8.942  -0.539 131.187
 Approx polarizability: 140.041  -0.580 111.413  -8.000  -1.679 115.202

 ******    1 imaginary frequencies (negative Signs) ******

                      1                      2                      3
                      A                      A                      A
 Frequencies --   -408.8422                41.1069                59.7464
 Red. masses --      5.1127                 2.5302                 2.5486
 Frc consts  --      0.5035                 0.0025                 0.0054
 IR Inten    --    808.9788                 6.0036                 1.4750

                      4                      5                      6
                      A                      A                      A
 Frequencies --     87.7711               101.0554               122.6832
 Red. masses --      1.9205                 2.3434                 2.0350
 Frc consts  --      0.0087                 0.0141                 0.0180
 IR Inten    --      7.5650                 2.1264                25.3918

                      7                      8                      9
                      A                      A                      A
 Frequencies --    135.1565               155.8549               174.0409
 Red. masses --      1.2494                 4.4059                 3.2963
 Frc consts  --      0.0134                 0.0631                 0.0588
 IR Inten    --     18.8694                 7.9427                 2.4878

                     10                     11                     12
                      A                      A                      A
 Frequencies --    194.9501               215.7982               273.2444
 Red. masses --      1.2802                 2.5650                 2.7745
 Frc consts  --      0.0287                 0.0704                 0.1220
 IR Inten    --     10.3797                 3.7344                 3.2441

                     13                     14                     15
                      A                      A                      A
 Frequencies --    303.6856               376.4533               418.5342
 Red. masses --      5.1879                 3.5017                 4.5535
 Frc consts  --      0.2819                 0.2924                 0.4700
 IR Inten    --     63.1506                23.5545                35.2038

                     16                     17                     18
                      A                      A                      A
 Frequencies --    433.7101               541.8672               617.6991
 Red. masses --      2.9508                 3.5939                 2.7941
 Frc consts  --      0.3270                 0.6217                 0.6281
 IR Inten    --     10.0334                25.3585                16.1727

                     19                     20                     21
                      A                      A                      A
 Frequencies --    642.8937               689.0772               713.6798
 Red. masses --      1.1951                 4.2130                 2.2540
 Frc consts  --      0.2910                 1.1786                 0.6764
 IR Inten    --     64.0058               157.7462                36.2882

                     22                     23                     24
                      A                      A                      A
 Frequencies --    790.3943               903.6342               970.4635
 Red. masses --      8.3667                 4.1303                 1.0985
 Frc consts  --      3.0796                 1.9871                 0.6096
 IR Inten    --     95.0310                 2.4343               118.8284

                     25                     26                     27
                      A                      A                      A
 Frequencies --   1002.8206              1034.6667              1079.8304
 Red. masses --      2.1959                 1.1556                 1.3941
 Frc consts  --      1.3011                 0.7289                 0.9578
 IR Inten    --     59.7371                48.5230                11.8366

                     28                     29                     30
                      A                      A                      A
 Frequencies --   1088.2589              1099.8056              1131.8965
 Red. masses --      1.4619                 2.3015                 1.2324
 Frc consts  --      1.0201                 1.6402                 0.9303
 IR Inten    --    147.6980                 7.1180                 2.7251

                     31                     32                     33
                      A                      A                      A
 Frequencies --   1161.7190              1181.3171              1191.7445
 Red. masses --      1.7110                 1.5900                 1.4170
 Frc consts  --      1.3605                 1.3073                 1.1857
 IR Inten    --    283.9937               107.2753                19.8875

                     34                     35                     36
                      A                      A                      A
 Frequencies --   1209.0777              1313.7224              1340.2856
 Red. masses --      1.1772                 4.8587                 1.5186
 Frc consts  --      1.0139                 4.9405                 1.6072
 IR Inten    --    105.2981                47.8140               108.9483

                     37                     38                     39
                      A                      A                      A
 Frequencies --   1346.8563              1421.9827              1431.8444
 Red. masses --      1.3565                 1.4070                 1.6360
 Frc consts  --      1.4498                 1.6762                 1.9762
 IR Inten    --     33.5909               102.5971                29.7240

                     40                     41                     42
                      A                      A                      A
 Frequencies --   1452.0703              1469.4658              1485.1119
 Red. masses --      1.2124                 1.2742                 1.1972
 Frc consts  --      1.5062                 1.6211                 1.5558
 IR Inten    --     91.3999                14.0329               225.6615

                     43                     44                     45
                      A                      A                      A
 Frequencies --   1490.3555              1490.4364              1498.1163
 Red. masses --      1.0505                 1.0443                 1.2518
 Frc consts  --      1.3748                 1.3668                 1.6553
 IR Inten    --     24.1006                17.8461               213.0309

                     46                     47                     48
                      A                      A                      A
 Frequencies --   1504.2164              1510.3835              1538.4664
 Red. masses --      1.0354                 1.6802                 1.5560
 Frc consts  --      1.3803                 2.2584                 2.1699
 IR Inten    --     14.8972               236.9813               341.7378

                     49                     50                     51
                      A                      A                      A
 Frequencies --   1624.3653              1647.1718              3024.3588
 Red. masses --      2.7507                 1.4479                 1.0458
 Frc consts  --      4.2762                 2.3146                 5.6361
 IR Inten    --    687.9880                64.1340                75.1014

                     52                     53                     54
                      A                      A                      A
 Frequencies --   3031.6111              3050.3161              3082.9934
 Red. masses --      1.0408                 1.0342                 1.1031
 Frc consts  --      5.6357                 5.6698                 6.1773
 IR Inten    --    134.8540                54.6978                66.6968

                     55                     56                     57
                      A                      A                      A
 Frequencies --   3107.0705              3120.8606              3151.6913
 Red. masses --      1.0905                 1.1031                 1.1047
 Frc consts  --      6.2027                 6.3302                 6.4650
 IR Inten    --     35.9982                15.0965                22.7997

                     58                     59                     60
                      A                      A                      A
 Frequencies --   3152.4778              3181.9178              3215.5047
 Red. masses --      1.1025                 1.0971                 1.0867
 Frc consts  --      6.4558                 6.5442                 6.6201
 IR Inten    --     16.1016                 4.2375                 0.2256

                     61                     62                     63
                      A                      A                      A
 Frequencies --   3233.2357              3503.0384              3613.6587
 Red. masses --      1.0949                 1.0536                 1.0942
 Frc consts  --      6.7438                 7.6173                 8.4189
 IR Inten    --      8.3199                36.4788                84.3247

 - Thermochemistry -
 -------------------
 Temperature   298.150 Kelvin.  Pressure   1.00000 Atm.
 Atom     1 has atomic number  6 and mass  12.00000

 Molecular mass:   164.07164 amu.
 Principal axes and moments of inertia in atomic units:
                           1         2         3
     Eigenvalues --  1160.884042744.978903107.93914
           X            0.99902  -0.04421  -0.00216
           Y            0.04422   0.99901   0.00418
           Z            0.00197  -0.00427   0.99999
 This molecule is an asymmetric top.
 Rotational symmetry number  1.
 Warning -- assumption of classical behavior for rotation
           may cause significant error
 Rotational temperatures (Kelvin)      0.07461     0.03155     0.02787
 Rotational constants (GHZ):           1.55463     0.65747     0.58069
    1 imaginary frequencies ignored.
 Zero-point vibrational energy     509478.9 (Joules/Mol)
                                  121.76838 (Kcal/Mol)
 Warning -- explicit consideration of  17 degrees of freedom as
           vibrations may cause significant error
 Vibrational temperatures:     59.14    85.96   126.28   145.40   176.51
          (Kelvin)            194.46   224.24   250.41   280.49   310.49
                              393.14   436.94   541.63   602.18   624.01
                              779.63   888.73   924.98   991.43  1026.83
                             1137.20  1300.13  1396.28  1442.84  1488.65
                             1553.64  1565.76  1582.38  1628.55  1671.45
                             1699.65  1714.65  1739.59  1890.15  1928.37
                             1937.83  2045.92  2060.10  2089.21  2114.23
                             2136.74  2144.29  2144.41  2155.46  2164.23
                             2173.10  2213.51  2337.10  2369.91  4351.38
                             4361.81  4388.72  4435.74  4470.38  4490.22
                             4534.58  4535.71  4578.07  4626.39  4651.91
                             5040.09  5199.25

 Zero-point correction=                           0.194050 (Hartree/Particle)
 Thermal correction to Energy=                    0.206735
 Thermal correction to Enthalpy=                  0.207679
 Thermal correction to Gibbs Free Energy=         0.154084
 Sum of electronic and zero-point Energies=           -881.199736
 Sum of electronic and thermal Energies=              -881.187051
 Sum of electronic and thermal Enthalpies=            -881.186107
 Sum of electronic and thermal Free Energies=         -881.239702

                     E (Thermal)             CV                S
                      KCal/Mol        Cal/Mol-Kelvin    Cal/Mol-Kelvin
 Total                  129.728             43.233            112.799
 Electronic               0.000              0.000              0.000
 Translational            0.889              2.981             41.194
 Rotational               0.889              2.981             30.672
 Vibrational            127.950             37.272             40.934
 Vibration     1          0.594              1.981              5.205
 Vibration     2          0.597              1.973              4.466
 Vibration     3          0.601              1.958              3.709
 Vibration     4          0.604              1.948              3.434
 Vibration     5          0.610              1.930              3.058
 Vibration     6          0.613              1.918              2.871
 Vibration     7          0.620              1.896              2.599
 Vibration     8          0.627              1.874              2.391
 Vibration     9          0.636              1.847              2.180
 Vibration    10          0.645              1.817              1.994
 Vibration    11          0.676              1.723              1.576
 Vibration    12          0.695              1.667              1.397
 Vibration    13          0.747              1.520              1.053
 Vibration    14          0.781              1.430              0.897
 Vibration    15          0.794              1.397              0.847
 Vibration    16          0.897              1.158              0.561
 Vibration    17          0.977              0.994              0.420

 Optimization completed.
    -- Stationary point found.
 Normal termination of Gaussian 16 at Mon Apr 12 14:42:52 2021.
