 Gaussian 16, Revision A.03,
 Gaussian 16:  ES64L-G16RevA.03 25-Dec-2016

 ----------------------------------------------------------------------
 # wB97XD def2tzvp, opt=(ts, noeigen, calcfc, maxcycles=70, maxstep=8),
  freq=noraman, scrf=(iefpcm, solvent=water)
 ----------------------------------------------------------------------

 ------------------------
 0_iteration/TS-307-0.out
 ------------------------
 Symbolic Z-matrix:
 Charge =  0 Multiplicity = 1

 SCF Done:  E(RwB97XD) =  -2956.10787992     A.U. after   15 cycles
 SCF Done:  E(RwB97XD) =  -2956.10785275     A.U. after   12 cycles
 SCF Done:  E(RwB97XD) =  -2956.10793950     A.U. after   12 cycles
 SCF Done:  E(RwB97XD) =  -2956.10778275     A.U. after   12 cycles
 SCF Done:  E(RwB97XD) =  -2956.10798951     A.U. after   12 cycles
 SCF Done:  E(RwB97XD) =  -2956.10783785     A.U. after   12 cycles
 SCF Done:  E(RwB97XD) =  -2956.10796901     A.U. after   12 cycles
 SCF Done:  E(RwB97XD) =  -2956.10790537     A.U. after   12 cycles
 SCF Done:  E(RwB97XD) =  -2956.10798788     A.U. after   11 cycles
 SCF Done:  E(RwB97XD) =  -2956.10798994     A.U. after    8 cycles
 SCF Done:  E(RwB97XD) =  -2956.10798917     A.U. after   10 cycles
 SCF Done:  E(RwB97XD) =  -2956.10799007     A.U. after    9 cycles
 Optimization completed.
    -- Stationary point found.
 Normal termination of Gaussian 16 at Fri Feb 12 13:00:14 2021.

 ---------------------------------------------------------------------
 #N Geom=AllCheck Guess=TCheck SCRF=Check GenChk RwB97XD/def2TZVP Freq
 ---------------------------------------------------------------------

 Structure from the checkpoint file:  "/beegfs/scratch/user/q/tla25/Gau-6519.chk"
 ------------------------
 0_iteration/TS-307-0.out
 ------------------------
 Charge =  0 Multiplicity = 1

                         Standard orientation:
 ---------------------------------------------------------------------
 Center     Atomic      Atomic             Coordinates (Angstroms)
 Number     Number       Type             X           Y           Z
 ---------------------------------------------------------------------
      1          6           0       -0.274679    0.317495    0.298732
      2          6           0       -0.764547    1.567212   -0.213682
      3          8           0       -0.047080    2.577709   -0.294757
      4          6           0        1.037507    0.054390    0.697836
      5          6           0        3.401771   -1.002295   -0.633952
      6          1           0        3.809050   -1.426581   -1.552376
      7          1           0        4.059198   -0.206468   -0.291693
      8          1           0        3.361560   -1.779759    0.128407
      9          7           0        2.056278   -0.465554   -0.835396
     10          1           0        2.060986    0.360368   -1.422776
     11          1           0        1.449368   -1.147700   -1.274690
     12          1           0        1.166517   -0.908446    1.181734
     13          6           0        1.939612    1.114935    1.274084
     14          1           0        1.480333    1.506915    2.182734
     15          1           0        2.905309    0.688764    1.542813
     16          1           0        2.073514    1.945435    0.587764
     17         35           0       -1.395172   -1.248597    0.122581
     18          7           0       -2.063386    1.641760   -0.645019
     19          1           0       -2.728440    0.933288   -0.391434
     20          1           0       -2.417956    2.569550   -0.797971
 ---------------------------------------------------------------------

 SCF Done:  E(RwB97XD) =  -2956.10799007     A.U. after    1 cycles

 The electronic state is 1-A.
 Alpha  occ. eigenvalues -- -483.11913 -62.66760 -56.45848 -56.45538 -56.45525
 Alpha  occ. eigenvalues --  -19.19457 -14.48117 -14.43284 -10.37779 -10.34296
 Alpha  occ. eigenvalues --  -10.31818 -10.29623 -10.27657  -8.80881  -6.62946
 Alpha  occ. eigenvalues --   -6.61957  -6.61913  -2.73348  -2.73068  -2.73031
 Alpha  occ. eigenvalues --   -2.72231  -2.72230  -1.12002  -1.03632  -0.98867
 Alpha  occ. eigenvalues --   -0.92062  -0.86123  -0.79204  -0.77602  -0.72018
 Alpha  occ. eigenvalues --   -0.64465  -0.62735  -0.60484  -0.56667  -0.54933
 Alpha  occ. eigenvalues --   -0.54233  -0.52695  -0.49960  -0.49743  -0.48514
 Alpha  occ. eigenvalues --   -0.47872  -0.45439  -0.44106  -0.42243  -0.38711
 Alpha  occ. eigenvalues --   -0.37263  -0.34780  -0.32978  -0.26601
 Alpha virt. eigenvalues --    0.06608   0.08075   0.10384   0.13212   0.14265
 Alpha virt. eigenvalues --    0.14508   0.15989   0.16763   0.18138   0.18599
 Alpha virt. eigenvalues --    0.19255   0.20415   0.20981   0.21712   0.22851

 Mulliken charges:
               1
     1  C   -0.147314
     2  C    0.279132
     3  O   -0.550241
     4  C   -0.061674
     5  C   -0.290521
     6  H    0.153901
     7  H    0.159238
     8  H    0.152135
     9  N   -0.330521
    10  H    0.282971
    11  H    0.279307
    12  H    0.158580
    13  C   -0.348505
    14  H    0.139637
    15  H    0.139830
    16  H    0.142658
    17  Br  -0.200852
    18  N   -0.482616
    19  H    0.262348
    20  H    0.262506
 Sum of Mulliken charges =   0.00000

 Dipole moment (field-independent basis, Debye):
    X=              5.1522    Y=             -4.2050    Z=             -1.4293  Tot=              6.8022
 Quadrupole moment (field-independent basis, Debye-Ang):
   XX=            -47.7194   YY=            -78.6190   ZZ=            -66.1817
   XY=             -9.2219   XZ=             -2.6819   YZ=              2.4340

  Exact polarizability: 175.359  -7.340 150.426   2.476   0.163 110.015
 Approx polarizability: 130.816  -0.039 123.399   1.395  -0.823  95.772

 ******    1 imaginary frequencies (negative Signs) ******

                      1                      2                      3
                      A                      A                      A
 Frequencies --   -358.0005                42.4231                69.6648
 Red. masses --      5.7179                 3.8773                 3.1827
 Frc consts  --      0.4318                 0.0041                 0.0091
 IR Inten    --    904.0581                 3.1926                12.7262

                      4                      5                      6
                      A                      A                      A
 Frequencies --     78.0406               114.0406               162.1718
 Red. masses --      2.4508                 4.7851                 1.2065
 Frc consts  --      0.0088                 0.0367                 0.0187
 IR Inten    --     14.4441                17.1503                 1.4364

                      7                      8                      9
                      A                      A                      A
 Frequencies --    187.3834               216.8460               229.7811
 Red. masses --      2.3179                 4.8161                 2.4524
 Frc consts  --      0.0480                 0.1334                 0.0763
 IR Inten    --     36.7201                 5.5667                 0.4082

                     10                     11                     12
                      A                      A                      A
 Frequencies --    251.0230               309.7055               331.9531
 Red. masses --      1.4130                 3.3199                 1.3129
 Frc consts  --      0.0525                 0.1876                 0.0852
 IR Inten    --      7.8222                16.0965               344.1055

                     13                     14                     15
                      A                      A                      A
 Frequencies --    378.7767               412.7847               437.4332
 Red. masses --      4.0072                 3.9614                 3.2872
 Frc consts  --      0.3387                 0.3977                 0.3706
 IR Inten    --     11.3924                 4.9774               147.0937

                     16                     17                     18
                      A                      A                      A
 Frequencies --    516.5261               551.5160               657.3722
 Red. masses --      1.1417                 3.2377                 1.3651
 Frc consts  --      0.1795                 0.5802                 0.3476
 IR Inten    --     23.0988                13.9886                46.5281

                     19                     20                     21
                      A                      A                      A
 Frequencies --    727.6756               775.3696               931.1281
 Red. masses --      2.8934                 9.8437                 4.3480
 Frc consts  --      0.9027                 3.4868                 2.2210
 IR Inten    --     28.9435                49.5107                64.4924

                     22                     23                     24
                      A                      A                      A
 Frequencies --    973.7227              1006.8020              1043.4776
 Red. masses --      1.4263                 1.2210                 1.2410
 Frc consts  --      0.7967                 0.7292                 0.7961
 IR Inten    --     42.1145                19.1428                16.5306

                     25                     26                     27
                      A                      A                      A
 Frequencies --   1054.0751              1072.9247              1106.2359
 Red. masses --      1.3835                 3.1172                 1.8457
 Frc consts  --      0.9057                 2.1143                 1.3308
 IR Inten    --     81.2385               247.9643                30.2876

                     28                     29                     30
                      A                      A                      A
 Frequencies --   1142.9070              1193.5663              1225.5401
 Red. masses --      2.3899                 1.1814                 1.4230
 Frc consts  --      1.8393                 0.9916                 1.2593
 IR Inten    --     10.7355               177.5613                19.8766

                     31                     32                     33
                      A                      A                      A
 Frequencies --   1295.8539              1345.7347              1403.4178
 Red. masses --      1.7179                 1.3081                 1.3155
 Frc consts  --      1.6996                 1.3958                 1.5266
 IR Inten    --     14.0709                 0.7427                35.4619

                     34                     35                     36
                      A                      A                      A
 Frequencies --   1416.6283              1446.9928              1470.5315
 Red. masses --      2.6144                 1.7217                 1.4334
 Frc consts  --      3.0913                 2.1239                 1.8262
 IR Inten    --    573.6390               321.5890               203.1477

                     37                     38                     39
                      A                      A                      A
 Frequencies --   1472.1423              1492.3767              1499.8042
 Red. masses --      1.0777                 1.0921                 1.1330
 Frc consts  --      1.3761                 1.4330                 1.5016
 IR Inten    --     20.5201                49.5455                42.7255

                     40                     41                     42
                      A                      A                      A
 Frequencies --   1511.8452              1609.3525              1644.4722
 Red. masses --      1.0542                 1.7252                 1.2495
 Frc consts  --      1.4197                 2.6327                 1.9909
 IR Inten    --     32.2459               405.6701                95.6378

                     43                     44                     45
                      A                      A                      A
 Frequencies --   1648.0056              3066.5480              3075.1299
 Red. masses --      2.0069                 1.0347                 1.0383
 Frc consts  --      3.2113                 5.7329                 5.7847
 IR Inten    --    424.0665                53.1840                27.4501

                     46                     47                     48
                      A                      A                      A
 Frequencies --   3140.6178              3142.6271              3158.6675
 Red. masses --      1.1042                 1.1014                 1.0907
 Frc consts  --      6.4172                 6.4090                 6.4115
 IR Inten    --     25.9780                24.8587                11.8506

                     49                     50                     51
                      A                      A                      A
 Frequencies --   3170.2912              3188.4655              3527.1447
 Red. masses --      1.1043                 1.1008                 1.0509
 Frc consts  --      6.5396                 6.5937                 7.7032
 IR Inten    --     15.8651                 8.5751                17.7171

                     52                     53                     54
                      A                      A                      A
 Frequencies --   3606.9920              3617.5937              3739.6516
 Red. masses --      1.0963                 1.0458                 1.1035
 Frc consts  --      8.4034                 8.0640                 9.0922
 IR Inten    --     44.3452                61.3089                75.0487

 - Thermochemistry -
 -------------------
 Temperature   298.150 Kelvin.  Pressure   1.00000 Atm.
 Atom     1 has atomic number  6 and mass  12.00000

 Molecular mass:   194.00547 amu.
 Principal axes and moments of inertia in atomic units:
                           1         2         3
     Eigenvalues --  1466.157672218.481383215.10905
           X            0.99087  -0.13471   0.00532
           Y            0.13456   0.99067   0.02154
           Z           -0.00818  -0.02063   0.99975
 This molecule is an asymmetric top.
 Rotational symmetry number  1.
 Warning -- assumption of classical behavior for rotation
           may cause significant error
 Rotational temperatures (Kelvin)      0.05908     0.03904     0.02694
 Rotational constants (GHZ):           1.23093     0.81350     0.56133
    1 imaginary frequencies ignored.
 Zero-point vibrational energy     435989.5 (Joules/Mol)
                                  104.20399 (Kcal/Mol)
 Warning -- explicit consideration of  16 degrees of freedom as
           vibrations may cause significant error
 Vibrational temperatures:     61.04   100.23   112.28   164.08   233.33
          (Kelvin)            269.60   311.99   330.60   361.17   445.60
                              477.61   544.98   593.91   629.37   743.17
                              793.51   945.81  1046.96  1115.58  1339.69
                             1400.97  1448.56  1501.33  1516.58  1543.70
                             1591.63  1644.39  1717.28  1763.28  1864.44
                             1936.21  2019.21  2038.21  2081.90  2115.77
                             2118.08  2147.20  2157.88  2175.21  2315.50
                             2366.03  2371.11  4412.08  4424.43  4518.65
                             4521.54  4544.62  4561.34  4587.49  5074.77
                             5189.66  5204.91  5380.52

 Zero-point correction=                           0.166060 (Hartree/Particle)
 Thermal correction to Energy=                    0.177540
 Thermal correction to Enthalpy=                  0.178484
 Thermal correction to Gibbs Free Energy=         0.127370
 Sum of electronic and zero-point Energies=          -2955.941930
 Sum of electronic and thermal Energies=             -2955.930450
 Sum of electronic and thermal Enthalpies=           -2955.929506
 Sum of electronic and thermal Free Energies=        -2955.980620

                     E (Thermal)             CV                S
                      KCal/Mol        Cal/Mol-Kelvin    Cal/Mol-Kelvin
 Total                  111.408             39.489            107.579
 Electronic               0.000              0.000              0.000
 Translational            0.889              2.981             41.693
 Rotational               0.889              2.981             30.726
 Vibrational            109.630             33.527             35.160
 Vibration     1          0.595              1.980              5.143
 Vibration     2          0.598              1.969              4.163
 Vibration     3          0.599              1.964              3.940
 Vibration     4          0.607              1.938              3.199
 Vibration     5          0.622              1.889              2.524
 Vibration     6          0.632              1.857              2.254
 Vibration     7          0.646              1.815              1.985
 Vibration     8          0.652              1.796              1.881
 Vibration     9          0.663              1.761              1.723
 Vibration    10          0.699              1.655              1.364
 Vibration    11          0.714              1.612              1.251
 Vibration    12          0.749              1.515              1.044
 Vibration    13          0.777              1.442              0.917
 Vibration    14          0.798              1.389              0.835
 Vibration    15          0.872              1.213              0.618
 Vibration    16          0.907              1.136              0.541

 Optimization completed.
    -- Stationary point found.
 Normal termination of Gaussian 16 at Fri Feb 12 13:11:23 2021.
