 Gaussian 16, Revision A.03,
 Gaussian 16:  ES64L-G16RevA.03 25-Dec-2016

 ----------------------------------------------------------------------
 # wB97XD def2tzvp, opt=(ts, noeigen, calcfc, maxcycles=70, maxstep=8),
  freq=noraman, scrf=(iefpcm, solvent=water)
 ----------------------------------------------------------------------

 ------------------------
 0_iteration/TS-377-0.out
 ------------------------
 Symbolic Z-matrix:
 Charge =  0 Multiplicity = 1

 SCF Done:  E(RwB97XD) =  -786.708186755     A.U. after   15 cycles
 SCF Done:  E(RwB97XD) =  -786.708153892     A.U. after   12 cycles
 SCF Done:  E(RwB97XD) =  -786.708272695     A.U. after   11 cycles
 SCF Done:  E(RwB97XD) =  -786.708550059     A.U. after   12 cycles
 SCF Done:  E(RwB97XD) =  -786.709189260     A.U. after   14 cycles
 SCF Done:  E(RwB97XD) =  -786.709689739     A.U. after   14 cycles
 SCF Done:  E(RwB97XD) =  -786.709796533     A.U. after   12 cycles
 SCF Done:  E(RwB97XD) =  -786.709805593     A.U. after   11 cycles
 SCF Done:  E(RwB97XD) =  -786.709816286     A.U. after   11 cycles
 SCF Done:  E(RwB97XD) =  -786.709817912     A.U. after    9 cycles
 SCF Done:  E(RwB97XD) =  -786.709817990     A.U. after    8 cycles
 Optimization completed.
    -- Stationary point found.
 Normal termination of Gaussian 16 at Fri Feb 12 12:22:32 2021.

 ---------------------------------------------------------------------
 #N Geom=AllCheck Guess=TCheck SCRF=Check GenChk RwB97XD/def2TZVP Freq
 ---------------------------------------------------------------------

 Structure from the checkpoint file:  "/beegfs/scratch/user/q/tla25/Gau-12218.chk"
 ------------------------
 0_iteration/TS-377-0.out
 ------------------------
 Charge =  0 Multiplicity = 1

                         Standard orientation:
 ---------------------------------------------------------------------
 Center     Atomic      Atomic             Coordinates (Angstroms)
 Number     Number       Type             X           Y           Z
 ---------------------------------------------------------------------
      1          6           0       -1.038189   -0.276046    0.324005
      2          6           0       -1.838546    0.515337   -0.528574
      3          8           0       -3.012374    0.274021   -0.838891
      4          6           0        0.302414    0.007451    0.564533
      5          6           0        2.860101   -0.970802   -0.387218
      6          1           0        3.396988   -1.589666   -1.106596
      7          1           0        3.265431    0.038275   -0.409804
      8          1           0        2.996259   -1.387034    0.610018
      9          7           0        1.430056   -0.916947   -0.686478
     10          1           0        1.241245   -0.475012   -1.579539
     11          1           0        1.018218   -1.843115   -0.706633
     12          1           0        0.782814   -0.459498    1.415875
     13         17           0        0.936207    1.641203    0.355185
     14          6           0       -1.601761   -1.558705    0.878635
     15          1           0       -0.954822   -1.976947    1.652038
     16          1           0       -2.586669   -1.389734    1.318764
     17          1           0       -1.727958   -2.323042    0.104817
     18          1           0       -1.362539    1.428368   -0.928907
 ---------------------------------------------------------------------

 SCF Done:  E(RwB97XD) =  -786.709817990     A.U. after    1 cycles

 The electronic state is 1-A.
 Alpha  occ. eigenvalues -- -101.70342 -19.20370 -14.48886 -10.39247 -10.33747
 Alpha  occ. eigenvalues --  -10.32037 -10.27230 -10.26261  -9.58929  -7.33565
 Alpha  occ. eigenvalues --   -7.32718  -7.32677  -1.10345  -1.04484  -0.97417
 Alpha  occ. eigenvalues --   -0.88267  -0.79477  -0.77080  -0.73649  -0.63568
 Alpha  occ. eigenvalues --   -0.61356  -0.58401  -0.55560  -0.54871  -0.54680
 Alpha  occ. eigenvalues --   -0.50111  -0.48937  -0.48290  -0.46473  -0.45884
 Alpha  occ. eigenvalues --   -0.45198  -0.44218  -0.40578  -0.39200  -0.31800
 Alpha  occ. eigenvalues --   -0.27419
 Alpha virt. eigenvalues --    0.04052   0.08999   0.10476   0.13335   0.14203
 Alpha virt. eigenvalues --    0.15980   0.16170   0.16754   0.18719   0.19491
 Alpha virt. eigenvalues --    0.20072   0.20467   0.21456   0.22258   0.23409

 Mulliken charges:
               1
     1  C   -0.092106
     2  C    0.076312
     3  O   -0.526689
     4  C   -0.027684
     5  C   -0.273111
     6  H    0.155547
     7  H    0.150444
     8  H    0.151973
     9  N   -0.327581
    10  H    0.284487
    11  H    0.287749
    12  H    0.187798
    13  Cl  -0.107330
    14  C   -0.377042
    15  H    0.126085
    16  H    0.122696
    17  H    0.122321
    18  H    0.066130
 Sum of Mulliken charges =  -0.00000

 Dipole moment (field-independent basis, Debye):
    X=             10.6464    Y=             -4.2477    Z=             -0.0880  Tot=             11.4628
 Quadrupole moment (field-independent basis, Debye-Ang):
   XX=            -71.2176   YY=            -52.6808   ZZ=            -54.3215
   XY=             -3.7634   XZ=             -8.5948   YZ=              0.5334

  Exact polarizability: 177.509  -4.637 116.144   6.080  -4.005  95.618
 Approx polarizability: 131.168  -2.100  96.505   5.649  -2.864  84.109

 ******    1 imaginary frequencies (negative Signs) ******

                      1                      2                      3
                      A                      A                      A
 Frequencies --   -369.5094                61.6814                90.5291
 Red. masses --      6.5338                 3.7779                 2.2145
 Frc consts  --      0.5256                 0.0085                 0.0107
 IR Inten    --   1189.2819                 4.3706                 5.4945

                      4                      5                      6
                      A                      A                      A
 Frequencies --    101.6652               126.8626               171.5142
 Red. masses --      1.2379                 1.9624                 1.3002
 Frc consts  --      0.0075                 0.0186                 0.0225
 IR Inten    --      2.5156                 2.9161                 4.6360

                      7                      8                      9
                      A                      A                      A
 Frequencies --    190.4383               211.4373               270.9249
 Red. masses --      4.3852                 4.7680                 2.7974
 Frc consts  --      0.0937                 0.1256                 0.1210
 IR Inten    --     13.0741                 5.4468                 6.4204

                     10                     11                     12
                      A                      A                      A
 Frequencies --    310.9573               329.9394               411.4970
 Red. masses --      3.6116                 2.5534                 5.4846
 Frc consts  --      0.2058                 0.1638                 0.5472
 IR Inten    --      3.2121                37.3474                15.6918

                     13                     14                     15
                      A                      A                      A
 Frequencies --    484.3000               638.3595               695.6082
 Red. masses --      3.8469                 1.5996                 3.9077
 Frc consts  --      0.5316                 0.3841                 1.1140
 IR Inten    --    237.4913                21.5323                28.6632

                     16                     17                     18
                      A                      A                      A
 Frequencies --    794.2910               883.4710              1010.5084
 Red. masses --      3.2557                 3.6704                 1.1567
 Frc consts  --      1.2102                 1.6879                 0.6959
 IR Inten    --     92.2565                62.0459                69.4500

                     19                     20                     21
                      A                      A                      A
 Frequencies --   1020.1468              1025.5446              1044.4349
 Red. masses --      1.4374                 1.4044                 1.1908
 Frc consts  --      0.8814                 0.8703                 0.7653
 IR Inten    --      1.8504               128.3866               132.2883

                     22                     23                     24
                      A                      A                      A
 Frequencies --   1061.3658              1077.7478              1168.9074
 Red. masses --      1.8695                 2.6512                 1.1077
 Frc consts  --      1.2408                 1.8144                 0.8917
 IR Inten    --     26.3484               171.1770               137.8318

                     25                     26                     27
                      A                      A                      A
 Frequencies --   1228.2886              1242.3603              1344.3487
 Red. masses --      1.4005                 1.4249                 1.3136
 Frc consts  --      1.2449                 1.2957                 1.3988
 IR Inten    --     24.3322                30.4047                 1.1259

                     28                     29                     30
                      A                      A                      A
 Frequencies --   1364.7598              1414.0711              1424.2055
 Red. masses --      1.6569                 1.2395                 3.2375
 Frc consts  --      1.8183                 1.4603                 3.8690
 IR Inten    --    567.3323                16.5431               151.3797

                     31                     32                     33
                      A                      A                      A
 Frequencies --   1461.0066              1469.5869              1472.8575
 Red. masses --      1.2011                 1.0479                 1.3746
 Frc consts  --      1.5106                 1.3334                 1.7569
 IR Inten    --     14.8514                12.4873                64.5890

                     34                     35                     36
                      A                      A                      A
 Frequencies --   1492.7184              1504.4596              1518.4284
 Red. masses --      1.0402                 1.0308                 1.6291
 Frc consts  --      1.3656                 1.3747                 2.2130
 IR Inten    --     16.9242                16.6029               266.1435

                     37                     38                     39
                      A                      A                      A
 Frequencies --   1642.0622              1653.3494              2955.6660
 Red. masses --      1.1399                 5.0334                 1.0819
 Frc consts  --      1.8109                 8.1067                 5.5685
 IR Inten    --    207.4416               979.5311               120.9322

                     40                     41                     42
                      A                      A                      A
 Frequencies --   3027.4984              3069.8617              3086.5997
 Red. masses --      1.0417                 1.0339                 1.0946
 Frc consts  --      5.6254                 5.7406                 6.1440
 IR Inten    --     69.0658                49.4299                41.6742

                     43                     44                     45
                      A                      A                      A
 Frequencies --   3121.1746              3147.1278              3171.3193
 Red. masses --      1.1019                 1.1050                 1.1052
 Frc consts  --      6.3247                 6.4485                 6.5491
 IR Inten    --     30.3208                16.1745                12.9236

                     46                     47                     48
                      A                      A                      A
 Frequencies --   3183.8323              3519.2062              3603.5407
 Red. masses --      1.0921                 1.0509                 1.0966
 Frc consts  --      6.5227                 7.6683                 8.3902
 IR Inten    --     11.4606                24.9826                47.4227

 - Thermochemistry -
 -------------------
 Temperature   298.150 Kelvin.  Pressure   1.00000 Atm.
 Atom     1 has atomic number  6 and mass  12.00000

 Molecular mass:   135.04509 amu.
 Principal axes and moments of inertia in atomic units:
                           1         2         3
     Eigenvalues --   807.311771745.941172170.67831
           X            0.99939  -0.02643  -0.02284
           Y            0.02551   0.99888  -0.03994
           Z            0.02387   0.03933   0.99894
 This molecule is an asymmetric top.
 Rotational symmetry number  1.
 Warning -- assumption of classical behavior for rotation
           may cause significant error
 Rotational temperatures (Kelvin)      0.10729     0.04961     0.03990
 Rotational constants (GHZ):           2.23549     1.03368     0.83142
    1 imaginary frequencies ignored.
 Zero-point vibrational energy     390583.5 (Joules/Mol)
                                   93.35170 (Kcal/Mol)
 Warning -- explicit consideration of  12 degrees of freedom as
           vibrations may cause significant error
 Vibrational temperatures:     88.75   130.25   146.27   182.53   246.77
          (Kelvin)            274.00   304.21   389.80   447.40   474.71
                              592.05   696.80   918.46  1000.83  1142.81
                             1271.12  1453.90  1467.76  1475.53  1502.71
                             1527.07  1550.64  1681.80  1767.23  1787.48
                             1934.22  1963.58  2034.53  2049.11  2102.06
                             2114.41  2119.11  2147.69  2164.58  2184.68
                             2362.56  2378.80  4252.54  4355.89  4416.85
                             4440.93  4490.67  4528.01  4562.82  4580.82
                             5063.35  5184.69

 Zero-point correction=                           0.148765 (Hartree/Particle)
 Thermal correction to Energy=                    0.158784
 Thermal correction to Enthalpy=                  0.159728
 Thermal correction to Gibbs Free Energy=         0.112733
 Sum of electronic and zero-point Energies=           -786.561053
 Sum of electronic and thermal Energies=              -786.551034
 Sum of electronic and thermal Enthalpies=            -786.550090
 Sum of electronic and thermal Free Energies=         -786.597085

                     E (Thermal)             CV                S
                      KCal/Mol        Cal/Mol-Kelvin    Cal/Mol-Kelvin
 Total                   99.639             33.632             98.909
 Electronic               0.000              0.000              0.000
 Translational            0.889              2.981             40.614
 Rotational               0.889              2.981             29.505
 Vibrational             97.861             27.671             28.791
 Vibration     1          0.597              1.973              4.403
 Vibration     2          0.602              1.956              3.649
 Vibration     3          0.604              1.948              3.422
 Vibration     4          0.611              1.926              2.993
 Vibration     5          0.626              1.878              2.419
 Vibration     6          0.634              1.853              2.224
 Vibration     7          0.643              1.823              2.031
 Vibration     8          0.675              1.727              1.590
 Vibration     9          0.700              1.653              1.357
 Vibration    10          0.713              1.616              1.260
 Vibration    11          0.775              1.445              0.921
 Vibration    12          0.840              1.285              0.699

 Optimization completed.
    -- Stationary point found.
 Normal termination of Gaussian 16 at Fri Feb 12 12:29:45 2021.
