 Gaussian 16, Revision A.03,
 Gaussian 16:  ES64L-G16RevA.03 25-Dec-2016

 ----------------------------------------------------------------------
 # wB97XD def2tzvp, opt=(ts, noeigen, calcfc, maxcycles=70, maxstep=1),
  freq=noraman, scrf=(iefpcm, solvent=water)
 ----------------------------------------------------------------------

 ------------------------
 0_iteration/TS-322-0.out
 ------------------------
 Symbolic Z-matrix:
 Charge =  0 Multiplicity = 1

 SCF Done:  E(RwB97XD) =  -3131.76815810     A.U. after   15 cycles
 Optimization completed.
    -- Stationary point found.
 Normal termination of Gaussian 16 at Tue Mar  2 03:23:52 2021.

 ---------------------------------------------------------------------
 #N Geom=AllCheck Guess=TCheck SCRF=Check GenChk RwB97XD/def2TZVP Freq
 ---------------------------------------------------------------------

 Structure from the checkpoint file:  "/beegfs/scratch/user/q/tla25/Gau-43203.chk"
 ------------------------
 0_iteration/TS-322-0.out
 ------------------------
 Charge =  0 Multiplicity = 1

                         Standard orientation:
 ---------------------------------------------------------------------
 Center     Atomic      Atomic             Coordinates (Angstroms)
 Number     Number       Type             X           Y           Z
 ---------------------------------------------------------------------
      1          6           0        0.128301    0.410601    0.151299
      2          6           0       -0.219098    1.611001    0.882799
      3          8           0        0.628993    2.431600    1.236009
      4          6           0       -0.763500   -0.543598   -0.315601
      5          6           0       -0.679301   -1.683099    2.311609
      6          1           0       -1.286101   -1.810398    3.206409
      7          1           0        0.064998   -2.473999    2.270699
      8          1           0       -0.162600   -0.720199    2.363299
      9          7           0       -1.497701   -1.703698    1.106099
     10          1           0       -1.582492   -2.630898    0.707709
     11          1           0       -2.434201   -1.361907    1.281909
     12          1           0       -0.333601   -1.358999   -0.877401
     13         35           0       -2.452700   -0.126107   -1.175591
     14          6           0        1.566601    0.101399   -0.089191
     15          6           0        2.436202    1.072598   -0.596591
     16          6           0        3.763401    0.778007   -0.863301
     17          6           0        4.263300   -0.498294   -0.638191
     18          6           0        3.414699   -1.475503   -0.143191
     19          6           0        2.087599   -1.175202    0.131199
     20          1           0        2.062003    2.068098   -0.787491
     21          1           0        4.411302    1.550606   -1.259501
     22          1           0        5.300400   -0.726795   -0.849001
     23          1           0        3.784598   -2.476894    0.040199
     24          1           0        1.451798   -1.956001    0.528799
     25          6           0       -1.654997    1.880893    1.289709
     26          1           0       -2.213298    0.984793    1.553909
     27          1           0       -1.639497    2.558003    2.141609
     28          1           0       -2.186097    2.368593    0.470509
 ---------------------------------------------------------------------

 SCF Done:  E(RwB97XD) =  -3131.76815810     A.U. after    1 cycles

 The electronic state is 1-A.
 Alpha  occ. eigenvalues -- -483.13451 -62.68305 -56.47418 -56.47070 -56.47053
 Alpha  occ. eigenvalues --  -19.21041 -14.48914 -10.38682 -10.36106 -10.31884
 Alpha  occ. eigenvalues --  -10.29950 -10.28547 -10.28435 -10.28372 -10.28242
 Alpha  occ. eigenvalues --  -10.28012 -10.27553 -10.27470  -8.82419  -6.64563
 Alpha  occ. eigenvalues --   -6.63457  -6.63400  -2.74950  -2.74642  -2.74597
 Alpha  occ. eigenvalues --   -2.73703  -2.73702  -1.11991  -1.04191  -0.96503
 Alpha  occ. eigenvalues --   -0.93165  -0.87697  -0.84497  -0.83897  -0.80726
 Alpha  occ. eigenvalues --   -0.79211  -0.72816  -0.69478  -0.68678  -0.63869
 Alpha  occ. eigenvalues --   -0.62110  -0.58828  -0.57685  -0.56120  -0.55539
 Alpha  occ. eigenvalues --   -0.54815  -0.52787  -0.52181  -0.51551  -0.50260
 Alpha  occ. eigenvalues --   -0.49479  -0.48306  -0.47921  -0.46414  -0.46077
 Alpha  occ. eigenvalues --   -0.44905  -0.43406  -0.42221  -0.42079  -0.37608
 Alpha  occ. eigenvalues --   -0.37167  -0.34458  -0.33591  -0.32149  -0.27502
 Alpha virt. eigenvalues --    0.03092   0.04932   0.05582   0.06225   0.09765
 Alpha virt. eigenvalues --    0.13084   0.13399   0.14590   0.14797   0.15601
 Alpha virt. eigenvalues --    0.16843   0.17216   0.18303   0.19227   0.19516

 Mulliken charges:
               1
     1  C   -0.245899
     2  C    0.227012
     3  O   -0.484956
     4  C   -0.066031
     5  C   -0.302505
     6  H    0.167182
     7  H    0.161115
     8  H    0.155060
     9  N   -0.335801
    10  H    0.295632
    11  H    0.284840
    12  H    0.213862
    13  Br  -0.098046
    14  C    0.278390
    15  C   -0.261339
    16  C   -0.133633
    17  C   -0.161102
    18  C   -0.182379
    19  C   -0.245622
    20  H    0.134687
    21  H    0.137013
    22  H    0.138970
    23  H    0.136622
    24  H    0.151026
    25  C   -0.362794
    26  H    0.113774
    27  H    0.131556
    28  H    0.153365
 Sum of Mulliken charges =  -0.00000

 Dipole moment (field-independent basis, Debye):
    X=             -5.2570    Y=             -8.8001    Z=              1.7292  Tot=             10.3956
 Quadrupole moment (field-independent basis, Debye-Ang):
   XX=            -91.4667   YY=            -93.3607   ZZ=            -96.5152
   XY=             -0.0441   XZ=            -10.4529   YZ=            -12.8043

  Exact polarizability: 281.051  11.545 243.242  -5.003  -7.359 179.496
 Approx polarizability: 212.375   9.959 203.580  -2.137  -5.911 151.248

 ******    1 imaginary frequencies (negative Signs) ******

                      1                      2                      3
                      A                      A                      A
 Frequencies --   -351.4810                43.4649                62.2658
 Red. masses --      6.2144                 4.1733                 4.2429
 Frc consts  --      0.4523                 0.0046                 0.0097
 IR Inten    --    733.7099                 1.3394                12.8530

                      4                      5                      6
                      A                      A                      A
 Frequencies --     74.3070                76.1005               103.2105
 Red. masses --      2.6373                 5.0245                 3.6417
 Frc consts  --      0.0086                 0.0171                 0.0229
 IR Inten    --      5.3678                 0.2456                12.8577

                      7                      8                      9
                      A                      A                      A
 Frequencies --    123.6382               148.0235               160.3289
 Red. masses --      3.2359                 2.4889                 1.1461
 Frc consts  --      0.0291                 0.0321                 0.0174
 IR Inten    --      2.7249                 1.0408                 0.7085

                     10                     11                     12
                      A                      A                      A
 Frequencies --    174.7916               187.1456               222.0920
 Red. masses --      1.2731                 4.7836                 5.7903
 Frc consts  --      0.0229                 0.0987                 0.1683
 IR Inten    --      0.8241                 4.6946                 4.0634

                     13                     14                     15
                      A                      A                      A
 Frequencies --    265.1331               296.8142               337.0147
 Red. masses --      4.7463                 4.9404                 3.6872
 Frc consts  --      0.1966                 0.2564                 0.2467
 IR Inten    --     28.3253                21.4550                 4.7841

                     16                     17                     18
                      A                      A                      A
 Frequencies --    371.3570               424.0621               453.4903
 Red. masses --      3.2168                 2.9161                 3.9653
 Frc consts  --      0.2614                 0.3090                 0.4805
 IR Inten    --     10.1193                 1.9246                29.1599

                     19                     20                     21
                      A                      A                      A
 Frequencies --    519.7810               553.7703               590.3742
 Red. masses --      3.2764                 3.4874                 1.8997
 Frc consts  --      0.5215                 0.6301                 0.3901
 IR Inten    --     14.1730                14.7505                36.9149

                     22                     23                     24
                      A                      A                      A
 Frequencies --    633.0541               642.6597               685.7629
 Red. masses --      4.6976                 4.7578                 3.7240
 Frc consts  --      1.1092                 1.1577                 1.0318
 IR Inten    --     35.6211                58.3701                22.4357

                     25                     26                     27
                      A                      A                      A
 Frequencies --    712.7204               725.6765               769.1901
 Red. masses --      2.9670                 1.6620                 3.4697
 Frc consts  --      0.8880                 0.5157                 1.2095
 IR Inten    --     42.4363                74.8358               134.9972

                     28                     29                     30
                      A                      A                      A
 Frequencies --    803.0000               871.4284               912.0347
 Red. masses --      2.6338                 1.2493                 3.3413
 Frc consts  --      1.0006                 0.5590                 1.6375
 IR Inten    --     36.2395                 2.3226                34.1351

                     31                     32                     33
                      A                      A                      A
 Frequencies --    948.2583              1006.1454              1013.1209
 Red. masses --      1.5287                 1.3699                 1.3819
 Frc consts  --      0.8099                 0.8171                 0.8357
 IR Inten    --     11.2357                 3.6166                35.7272

                     34                     35                     36
                      A                      A                      A
 Frequencies --   1018.9566              1023.5616              1024.8409
 Red. masses --      1.2876                 3.5418                 1.5174
 Frc consts  --      0.7877                 2.1863                 0.9390
 IR Inten    --      1.6662                 1.7490                 7.4565

                     37                     38                     39
                      A                      A                      A
 Frequencies --   1031.9113              1040.6320              1065.7679
 Red. masses --      1.2894                 1.7627                 2.0843
 Frc consts  --      0.8090                 1.1246                 1.3949
 IR Inten    --     90.1956                87.8593                11.7712

                     40                     41                     42
                      A                      A                      A
 Frequencies --   1076.2791              1111.7516              1128.2475
 Red. masses --      2.6009                 1.5423                 1.2707
 Frc consts  --      1.7751                 1.1231                 0.9530
 IR Inten    --     15.2915                 1.3676                39.7119

                     43                     44                     45
                      A                      A                      A
 Frequencies --   1181.9849              1194.6278              1205.5074
 Red. masses --      1.1256                 1.4717                 2.6766
 Frc consts  --      0.9265                 1.2374                 2.2917
 IR Inten    --      1.4423                30.0743                19.7364

                     46                     47                     48
                      A                      A                      A
 Frequencies --   1215.8046              1263.0169              1309.5644
 Red. masses --      1.1408                 1.5255                 4.0892
 Frc consts  --      0.9936                 1.4338                 4.1318
 IR Inten    --      0.8192                59.3488                91.4339

                     49                     50                     51
                      A                      A                      A
 Frequencies --   1325.4429              1357.7780              1377.1305
 Red. masses --      1.3363                 1.7491                 1.4199
 Frc consts  --      1.3832                 1.8999                 1.5866
 IR Inten    --      5.8682               148.0760                71.9597

                     52                     53                     54
                      A                      A                      A
 Frequencies --   1403.2546              1421.3862              1458.1663
 Red. masses --      2.0509                 3.1380                 1.0745
 Frc consts  --      2.3794                 3.7353                 1.3461
 IR Inten    --    367.9500               561.0402                22.7316

                     55                     56                     57
                      A                      A                      A
 Frequencies --   1465.6220              1473.6546              1493.1657
 Red. masses --      1.2619                 1.0800                 2.3862
 Frc consts  --      1.5971                 1.3818                 3.1345
 IR Inten    --     44.1458                16.5414                38.6222

                     58                     59                     60
                      A                      A                      A
 Frequencies --   1497.6682              1501.9500              1542.2257
 Red. masses --      1.0425                 1.0481                 2.2881
 Frc consts  --      1.3776                 1.3931                 3.2064
 IR Inten    --      8.5848                22.9775                94.0397

                     61                     62                     63
                      A                      A                      A
 Frequencies --   1642.8246              1648.7217              1654.9933
 Red. masses --      5.4446                 1.1092                 7.7114
 Frc consts  --      8.6576                 1.7765                12.4445
 IR Inten    --     12.3619               105.0433               479.6360

                     64                     65                     66
                      A                      A                      A
 Frequencies --   1673.7596              3049.9872              3070.8861
 Red. masses --      6.5491                 1.0420                 1.0368
 Frc consts  --     10.8099                 5.7111                 5.7607
 IR Inten    --    259.2605                25.2656                 9.2906

                     67                     68                     69
                      A                      A                      A
 Frequencies --   3133.3849              3146.4634              3165.6601
 Red. masses --      1.0939                 1.0991                 1.1039
 Frc consts  --      6.3278                 6.4114                 6.5178
 IR Inten    --     11.5745                15.4318                32.0125

                     70                     71                     72
                      A                      A                      A
 Frequencies --   3175.9605              3189.0774              3196.5411
 Red. masses --      1.1055                 1.0855                 1.0892
 Frc consts  --      6.5702                 6.5045                 6.5572
 IR Inten    --     16.3415                 3.5199                11.7917

                     73                     74                     75
                      A                      A                      A
 Frequencies --   3209.4188              3218.1259              3232.4012
 Red. masses --      1.0923                 1.0964                 1.0935
 Frc consts  --      6.6288                 6.6902                 6.7316
 IR Inten    --     40.1233                25.8596                10.8349

                     76                     77                     78
                      A                      A                      A
 Frequencies --   3233.0187              3536.6296              3617.0713
 Red. masses --      1.0912                 1.0511                 1.0965
 Frc consts  --      6.7201                 7.7461                 8.4522
 IR Inten    --      0.6245                63.6258                54.9936

 - Thermochemistry -
 -------------------
 Temperature   298.150 Kelvin.  Pressure   1.00000 Atm.
 Atom     1 has atomic number  6 and mass  12.00000

 Molecular mass:   255.02588 amu.
 Principal axes and moments of inertia in atomic units:
                           1         2         3
     Eigenvalues --  2364.599255797.002326072.62477
           X            0.99876  -0.01847  -0.04630
           Y            0.01053   0.98605  -0.16613
           Z            0.04872   0.16543   0.98502
 This molecule is an asymmetric top.
 Rotational symmetry number  1.
 Warning -- assumption of classical behavior for rotation
           may cause significant error
 Rotational temperatures (Kelvin)      0.03663     0.01494     0.01426
 Rotational constants (GHZ):           0.76323     0.31132     0.29719
    1 imaginary frequencies ignored.
 Zero-point vibrational energy     603606.0 (Joules/Mol)
                                  144.26529 (Kcal/Mol)
 Warning -- explicit consideration of  20 degrees of freedom as
           vibrations may cause significant error
 Vibrational temperatures:     62.54    89.59   106.91   109.49   148.50
          (Kelvin)            177.89   212.97   230.68   251.49   269.26
                              319.54   381.47   427.05   484.89   534.30
                              610.13   652.47   747.85   796.75   849.42
                              910.82   924.64   986.66  1025.45  1044.09
                             1106.69  1155.34  1253.79  1312.21  1364.33
                             1447.62  1457.66  1466.05  1472.68  1474.52
                             1484.69  1497.24  1533.40  1548.53  1599.56
                             1623.30  1700.61  1718.80  1734.46  1749.27
                             1817.20  1884.17  1907.02  1953.54  1981.38
                             2018.97  2045.06  2097.98  2108.70  2120.26
                             2148.33  2154.81  2160.97  2218.92  2363.66
                             2372.14  2381.17  2408.17  4388.25  4418.32
                             4508.24  4527.06  4554.68  4569.50  4588.37
                             4599.11  4617.64  4630.17  4650.70  4651.59
                             5088.42  5204.16

 Zero-point correction=                           0.229901 (Hartree/Particle)
 Thermal correction to Energy=                    0.244521
 Thermal correction to Enthalpy=                  0.245465
 Thermal correction to Gibbs Free Energy=         0.186786
 Sum of electronic and zero-point Energies=          -3131.538257
 Sum of electronic and thermal Energies=             -3131.523637
 Sum of electronic and thermal Enthalpies=           -3131.522693
 Sum of electronic and thermal Free Energies=        -3131.581372

                     E (Thermal)             CV                S
                      KCal/Mol        Cal/Mol-Kelvin    Cal/Mol-Kelvin
 Total                  153.439             52.959            123.500
 Electronic               0.000              0.000              0.000
 Translational            0.889              2.981             42.509
 Rotational               0.889              2.981             32.787
 Vibrational            151.662             46.998             48.205
 Vibration     1          0.595              1.980              5.095
 Vibration     2          0.597              1.972              4.384
 Vibration     3          0.599              1.966              4.036
 Vibration     4          0.599              1.965              3.989
 Vibration     5          0.605              1.947              3.393
 Vibration     6          0.610              1.929              3.043
 Vibration     7          0.617              1.905              2.697
 Vibration     8          0.622              1.891              2.546
 Vibration     9          0.627              1.873              2.383
 Vibration    10          0.632              1.857              2.256
 Vibration    11          0.648              1.807              1.942
 Vibration    12          0.671              1.737              1.628
 Vibration    13          0.690              1.680              1.435
 Vibration    14          0.718              1.602              1.226
 Vibration    15          0.743              1.531              1.074
 Vibration    16          0.786              1.418              0.878
 Vibration    17          0.812              1.353              0.785
 Vibration    18          0.875              1.206              0.610
 Vibration    19          0.909              1.131              0.536
 Vibration    20          0.948              1.052              0.467

 Optimization completed.
    -- Stationary point found.
 Normal termination of Gaussian 16 at Tue Mar  2 04:15:24 2021.
