 Gaussian 16, Revision A.03,
 Gaussian 16:  ES64L-G16RevA.03 25-Dec-2016

 ----------------------------------------------------------------------
 # wB97XD def2tzvp, opt=(ts, noeigen, calcfc, maxcycles=70, maxstep=8),
  freq=noraman, scrf=(iefpcm, solvent=water)
 ----------------------------------------------------------------------

 ------------------------
 0_iteration/TS-375-0.out
 ------------------------
 Symbolic Z-matrix:
 Charge =  0 Multiplicity = 1

 SCF Done:  E(RwB97XD) =  -1033.82320253     A.U. after   14 cycles
 SCF Done:  E(RwB97XD) =  -1033.82322002     A.U. after   11 cycles
 SCF Done:  E(RwB97XD) =  -1033.82329963     A.U. after   11 cycles
 SCF Done:  E(RwB97XD) =  -1033.82367474     A.U. after   12 cycles
 SCF Done:  E(RwB97XD) =  -1033.82433651     A.U. after   14 cycles
 SCF Done:  E(RwB97XD) =  -1033.82466779     A.U. after   13 cycles
 SCF Done:  E(RwB97XD) =  -1033.82480529     A.U. after   11 cycles
 SCF Done:  E(RwB97XD) =  -1033.82479220     A.U. after   12 cycles
 SCF Done:  E(RwB97XD) =  -1033.82482199     A.U. after   10 cycles
 SCF Done:  E(RwB97XD) =  -1033.82482905     A.U. after   11 cycles
 SCF Done:  E(RwB97XD) =  -1033.82482502     A.U. after   10 cycles
 SCF Done:  E(RwB97XD) =  -1033.82483240     A.U. after   10 cycles
 SCF Done:  E(RwB97XD) =  -1033.82483445     A.U. after   10 cycles
 SCF Done:  E(RwB97XD) =  -1033.82483399     A.U. after    9 cycles
 SCF Done:  E(RwB97XD) =  -1033.82483440     A.U. after    7 cycles
 Optimization completed.
    -- Stationary point found.
 Normal termination of Gaussian 16 at Fri Feb 12 16:44:27 2021.

 ---------------------------------------------------------------------
 #N Geom=AllCheck Guess=TCheck SCRF=Check GenChk RwB97XD/def2TZVP Freq
 ---------------------------------------------------------------------

 Structure from the checkpoint file:  "/beegfs/scratch/user/q/tla25/Gau-64241.chk"
 ------------------------
 0_iteration/TS-375-0.out
 ------------------------
 Charge =  0 Multiplicity = 1

                         Standard orientation:
 ---------------------------------------------------------------------
 Center     Atomic      Atomic             Coordinates (Angstroms)
 Number     Number       Type             X           Y           Z
 ---------------------------------------------------------------------
      1          6           0        1.647657    1.528772   -0.475249
      2          6           0        0.218038    1.509078   -0.288843
      3          8           0       -0.433108    2.555401   -0.213381
      4          6           0        2.583057    0.513850   -0.467839
      5          6           0        4.134714   -0.963174    1.475068
      6          1           0        5.005390   -0.465428    1.050461
      7          1           0        4.317358   -1.162181    2.531220
      8          1           0        3.973632   -1.905003    0.955794
      9          7           0        2.962624   -0.107698    1.288899
     10          1           0        2.113431   -0.552854    1.620552
     11          1           0        3.058400    0.771912    1.783637
     12          1           0        3.604862    0.794815   -0.684448
     13         17           0        2.267274   -1.077952   -1.226052
     14          1           0        2.068669    2.525872   -0.457913
     15          7           0       -0.398670    0.275704   -0.184231
     16          6           0       -1.751538   -0.027391   -0.014388
     17          6           0       -2.726795    0.903585    0.348611
     18          6           0       -4.042562    0.494340    0.517042
     19          6           0       -4.415701   -0.828190    0.335876
     20          6           0       -3.445192   -1.755349   -0.020892
     21          6           0       -2.131003   -1.362231   -0.195007
     22          1           0        0.181685   -0.521918   -0.385516
     23          1           0       -2.448562    1.934527    0.490984
     24          1           0       -4.785612    1.230830    0.798182
     25          1           0       -5.445038   -1.133879    0.470700
     26          1           0       -3.711445   -2.794783   -0.167430
     27          1           0       -1.383303   -2.095712   -0.475248
 ---------------------------------------------------------------------

 SCF Done:  E(RwB97XD) =  -1033.82483440     A.U. after    1 cycles

 The electronic state is 1-A.
 Alpha  occ. eigenvalues -- -101.70551 -19.20097 -14.49177 -14.45896 -10.39482
 Alpha  occ. eigenvalues --  -10.38324 -10.33650 -10.32127 -10.28952 -10.28791
 Alpha  occ. eigenvalues --  -10.28706 -10.28137 -10.28038 -10.25643  -9.59153
 Alpha  occ. eigenvalues --   -7.33763  -7.32949  -7.32919  -1.12989  -1.04780
 Alpha  occ. eigenvalues --   -1.03563  -0.97104  -0.95158  -0.86705  -0.84971
 Alpha  occ. eigenvalues --   -0.83647  -0.79266  -0.74514  -0.71614  -0.69443
 Alpha  occ. eigenvalues --   -0.65333  -0.63831  -0.62475  -0.59145  -0.58347
 Alpha  occ. eigenvalues --   -0.55875  -0.55221  -0.54871  -0.53130  -0.52128
 Alpha  occ. eigenvalues --   -0.51743  -0.50925  -0.49435  -0.48542  -0.47346
 Alpha  occ. eigenvalues --   -0.46327  -0.45925  -0.44510  -0.42791  -0.40628
 Alpha  occ. eigenvalues --   -0.39704  -0.39137  -0.33977  -0.33463  -0.30377
 Alpha  occ. eigenvalues --   -0.27476
 Alpha virt. eigenvalues --    0.04034   0.05490   0.07105   0.08972   0.10169
 Alpha virt. eigenvalues --    0.12838   0.14008   0.14801   0.15277   0.16617
 Alpha virt. eigenvalues --    0.17272   0.18155   0.18354   0.18787   0.19397

 Mulliken charges:
               1
     1  C   -0.437140
     2  C    0.408030
     3  O   -0.543920
     4  C   -0.019035
     5  C   -0.274224
     6  H    0.152843
     7  H    0.156940
     8  H    0.152005
     9  N   -0.308513
    10  H    0.283560
    11  H    0.285305
    12  H    0.188745
    13  Cl  -0.132018
    14  H    0.138044
    15  N   -0.256529
    16  C    0.289226
    17  C   -0.301823
    18  C   -0.103474
    19  C   -0.200453
    20  C   -0.102135
    21  C   -0.301749
    22  H    0.209146
    23  H    0.154258
    24  H    0.140375
    25  H    0.139612
    26  H    0.142368
    27  H    0.140556
 Sum of Mulliken charges =  -0.00000

 Dipole moment (field-independent basis, Debye):
    X=              8.6049    Y=             -6.0886    Z=              5.0321  Tot=             11.6807
 Quadrupole moment (field-independent basis, Debye-Ang):
   XX=            -61.5707   YY=            -99.8844   ZZ=            -89.1167
   XY=              3.5038   XZ=             11.9151   YZ=              2.1817

  Exact polarizability: 284.049  -9.285 228.801  -0.813   3.715 150.918
 Approx polarizability: 204.609  -6.816 193.019  -3.227   5.492 130.577

 ******    1 imaginary frequencies (negative Signs) ******

                      1                      2                      3
                      A                      A                      A
 Frequencies --   -383.6947                27.2035                32.5383
 Red. masses --      6.3875                 3.9058                 4.4749
 Frc consts  --      0.5541                 0.0017                 0.0028
 IR Inten    --   1058.8142                 1.3082                 6.0377

                      4                      5                      6
                      A                      A                      A
 Frequencies --     65.9651                78.4419                93.1280
 Red. masses --      2.9159                 4.5198                 3.6051
 Frc consts  --      0.0075                 0.0164                 0.0184
 IR Inten    --      1.0338                10.7650                 5.2153

                      7                      8                      9
                      A                      A                      A
 Frequencies --    102.2211               180.0150               186.9983
 Red. masses --      5.9801                 1.2375                 5.9187
 Frc consts  --      0.0368                 0.0236                 0.1219
 IR Inten    --     10.9329                 6.6030                20.0586

                     10                     11                     12
                      A                      A                      A
 Frequencies --    196.6260               250.7865               304.0355
 Red. masses --      4.1197                 4.7370                 8.0532
 Frc consts  --      0.0938                 0.1755                 0.4386
 IR Inten    --      9.8592                 5.9402                15.7368

                     13                     14                     15
                      A                      A                      A
 Frequencies --    320.4556               358.1511               423.6743
 Red. masses --      3.0155                 6.2071                 3.0097
 Frc consts  --      0.1824                 0.4691                 0.3183
 IR Inten    --      2.7394                 4.2129                 2.7463

                     16                     17                     18
                      A                      A                      A
 Frequencies --    428.5123               493.1217               528.7673
 Red. masses --      3.9580                 7.2512                 2.8018
 Frc consts  --      0.4282                 1.0389                 0.4616
 IR Inten    --    101.2449                25.2582                34.3185

                     19                     20                     21
                      A                      A                      A
 Frequencies --    582.5326               600.1046               633.0527
 Red. masses --      1.3587                 2.0326                 5.0562
 Frc consts  --      0.2717                 0.4313                 1.1939
 IR Inten    --    142.1125                73.3123                 3.4511

                     22                     23                     24
                      A                      A                      A
 Frequencies --    646.2924               684.5942               693.2445
 Red. masses --      2.6511                 2.1833                 2.0240
 Frc consts  --      0.6524                 0.6029                 0.5731
 IR Inten    --      7.6301                71.9278                43.1908

                     25                     26                     27
                      A                      A                      A
 Frequencies --    719.2032               777.6325               782.7187
 Red. masses --      1.8755                 3.2183                 1.8762
 Frc consts  --      0.5716                 1.1466                 0.6772
 IR Inten    --     64.7035                45.1034                57.7043

                     28                     29                     30
                      A                      A                      A
 Frequencies --    792.2608               861.9458               890.6979
 Red. masses --      4.8180                 1.2606                 5.4096
 Frc consts  --      1.7818                 0.5518                 2.5286
 IR Inten    --    133.7335                 0.2996                 2.6432

                     31                     32                     33
                      A                      A                      A
 Frequencies --    932.0672               977.0053              1001.0892
 Red. masses --      1.4801                 4.7926                 1.3464
 Frc consts  --      0.7576                 2.6954                 0.7950
 IR Inten    --     12.3202                20.2105                 0.0896

                     34                     35                     36
                      A                      A                      A
 Frequencies --   1015.7556              1016.3494              1020.0811
 Red. masses --      1.0986                 1.2844                 5.7814
 Frc consts  --      0.6678                 0.7817                 3.5445
 IR Inten    --     39.0282                 0.8830                10.7896

                     37                     38                     39
                      A                      A                      A
 Frequencies --   1046.8574              1064.0677              1076.9519
 Red. masses --      1.3920                 2.0127                 2.7387
 Frc consts  --      0.8988                 1.3426                 1.8715
 IR Inten    --     15.5305                18.5754               225.7153

                     40                     41                     42
                      A                      A                      A
 Frequencies --   1120.4742              1160.2740              1181.3037
 Red. masses --      1.5199                 1.1021                 1.1322
 Frc consts  --      1.1243                 0.8741                 0.9309
 IR Inten    --      8.9362               130.7244                 2.8417

                     43                     44                     45
                      A                      A                      A
 Frequencies --   1189.0226              1210.0397              1238.5438
 Red. masses --      1.3720                 1.1420                 1.3881
 Frc consts  --      1.1428                 0.9852                 1.2546
 IR Inten    --    138.1426                25.3116                35.2460

                     46                     47                     48
                      A                      A                      A
 Frequencies --   1267.7264              1287.8520              1333.8443
 Red. masses --      1.8725                 2.6000                 2.0772
 Frc consts  --      1.7731                 2.5407                 2.1774
 IR Inten    --    699.1432                46.1623                93.5824

                     49                     50                     51
                      A                      A                      A
 Frequencies --   1343.9774              1361.6902              1365.1642
 Red. masses --      1.4382                 1.8932                 1.7683
 Frc consts  --      1.5306                 2.0682                 1.9417
 IR Inten    --     61.9652                60.4321               367.5561

                     52                     53                     54
                      A                      A                      A
 Frequencies --   1458.8046              1478.1203              1480.0410
 Red. masses --      1.3091                 2.9292                 2.1959
 Frc consts  --      1.6414                 3.7707                 2.8340
 IR Inten    --    117.0905               519.0210               239.5312

                     55                     56                     57
                      A                      A                      A
 Frequencies --   1492.3793              1504.3083              1546.4045
 Red. masses --      1.0432                 1.0323                 2.4733
 Frc consts  --      1.3689                 1.3763                 3.4848
 IR Inten    --     19.0628                18.6905               245.3196

                     58                     59                     60
                      A                      A                      A
 Frequencies --   1576.1848              1641.9576              1656.7990
 Red. masses --      2.1105                 1.0901                 6.9031
 Frc consts  --      3.0893                 1.7316                11.1644
 IR Inten    --    459.3888                77.7169               313.2667

                     61                     62                     63
                      A                      A                      A
 Frequencies --   1673.4439              1681.4235              3072.0203
 Red. masses --      3.9025                 4.6344                 1.0341
 Frc consts  --      6.4390                 7.7197                 5.7497
 IR Inten    --     93.8264               827.7245                45.5198

                     64                     65                     66
                      A                      A                      A
 Frequencies --   3150.2156              3175.0913              3184.2787
 Red. masses --      1.1048                 1.1052                 1.0883
 Frc consts  --      6.4596                 6.5643                 6.5018
 IR Inten    --     14.3369                11.3941                14.6985

                     67                     68                     69
                      A                      A                      A
 Frequencies --   3195.0401              3197.8316              3205.1557
 Red. masses --      1.0881                 1.0868                 1.0929
 Frc consts  --      6.5447                 6.5478                 6.6151
 IR Inten    --      3.8557                 0.7347                29.7362

                     70                     71                     72
                      A                      A                      A
 Frequencies --   3213.8599              3220.9011              3270.5867
 Red. masses --      1.0933                 1.0978                 1.0924
 Frc consts  --      6.6534                 6.7104                 6.8849
 IR Inten    --      8.6319                22.7858                 4.2874

                     73                     74                     75
                      A                      A                      A
 Frequencies --   3519.1832              3601.9516              3624.7452
 Red. masses --      1.0512                 1.0965                 1.0767
 Frc consts  --      7.6702                 8.3816                 8.3347
 IR Inten    --     23.9679                48.1102               154.9289

 - Thermochemistry -
 -------------------
 Temperature   298.150 Kelvin.  Pressure   1.00000 Atm.
 Atom     1 has atomic number  6 and mass  12.00000

 Molecular mass:   212.07164 amu.
 Principal axes and moments of inertia in atomic units:
                           1         2         3
     Eigenvalues --  1643.905795990.186336693.44331
           X            0.99987   0.00485   0.01531
           Y           -0.00448   0.99971  -0.02374
           Z           -0.01542   0.02367   0.99960
 This molecule is an asymmetric top.
 Rotational symmetry number  1.
 Warning -- assumption of classical behavior for rotation
           may cause significant error
 Rotational temperatures (Kelvin)      0.05269     0.01446     0.01294
 Rotational constants (GHZ):           1.09784     0.30128     0.26963
    1 imaginary frequencies ignored.
 Zero-point vibrational energy     578787.9 (Joules/Mol)
                                  138.33364 (Kcal/Mol)
 Warning -- explicit consideration of  19 degrees of freedom as
           vibrations may cause significant error
 Vibrational temperatures:     39.14    46.82    94.91   112.86   133.99
          (Kelvin)            147.07   259.00   269.05   282.90   360.83
                              437.44   461.06   515.30   609.57   616.53
                              709.49   760.78   838.13   863.42   910.82
                              929.87   984.98   997.42  1034.77  1118.84
                             1126.16  1139.89  1240.15  1281.52  1341.04
                             1405.69  1440.34  1461.45  1462.30  1467.67
                             1506.19  1530.96  1549.49  1612.11  1669.38
                             1699.63  1710.74  1740.98  1781.99  1823.98
                             1852.93  1919.10  1933.68  1959.17  1964.17
                             2098.89  2126.69  2129.45  2147.20  2164.36
                             2224.93  2267.78  2362.41  2383.76  2407.71
                             2419.19  4419.95  4532.46  4568.25  4581.47
                             4596.95  4600.97  4611.50  4624.03  4634.16
                             4705.64  5063.32  5182.40  5215.20

 Zero-point correction=                           0.220449 (Hartree/Particle)
 Thermal correction to Energy=                    0.234329
 Thermal correction to Enthalpy=                  0.235273
 Thermal correction to Gibbs Free Energy=         0.177476
 Sum of electronic and zero-point Energies=          -1033.604386
 Sum of electronic and thermal Energies=             -1033.590506
 Sum of electronic and thermal Enthalpies=           -1033.589562
 Sum of electronic and thermal Free Energies=        -1033.647358

                     E (Thermal)             CV                S
                      KCal/Mol        Cal/Mol-Kelvin    Cal/Mol-Kelvin
 Total                  147.043             50.888            121.642
 Electronic               0.000              0.000              0.000
 Translational            0.889              2.981             41.959
 Rotational               0.889              2.981             32.555
 Vibrational            145.266             44.926             47.128
 Vibration     1          0.593              1.984              6.024
 Vibration     2          0.594              1.983              5.668
 Vibration     3          0.597              1.971              4.270
 Vibration     4          0.600              1.964              3.929
 Vibration     5          0.602              1.954              3.593
 Vibration     6          0.604              1.947              3.412
 Vibration     7          0.629              1.867              2.328
 Vibration     8          0.632              1.858              2.257
 Vibration     9          0.636              1.845              2.164
 Vibration    10          0.663              1.761              1.725
 Vibration    11          0.695              1.666              1.395
 Vibration    12          0.706              1.634              1.308
 Vibration    13          0.733              1.558              1.130
 Vibration    14          0.786              1.419              0.880
 Vibration    15          0.790              1.408              0.864
 Vibration    16          0.849              1.265              0.676
 Vibration    17          0.884              1.186              0.590
 Vibration    18          0.939              1.069              0.481
 Vibration    19          0.958              1.032              0.449

 Optimization completed.
    -- Stationary point found.
 Normal termination of Gaussian 16 at Fri Feb 12 17:24:14 2021.
