 Gaussian 16, Revision A.03,
 Gaussian 16:  ES64L-G16RevA.03 25-Dec-2016

 ----------------------------------------------------------------------
 # wB97XD def2tzvp, opt=(ts, noeigen, calcfc, maxcycles=70, maxstep=8),
  freq=noraman, scrf=(iefpcm, solvent=water)
 ----------------------------------------------------------------------

 ------------------------
 0_iteration/TS-331-0.out
 ------------------------
 Symbolic Z-matrix:
 Charge =  0 Multiplicity = 1

 SCF Done:  E(RwB97XD) =  -2916.78103028     A.U. after   14 cycles
 SCF Done:  E(RwB97XD) =  -2916.78082842     A.U. after   12 cycles
 SCF Done:  E(RwB97XD) =  -2916.78089531     A.U. after   11 cycles
 SCF Done:  E(RwB97XD) =  -2916.78113605     A.U. after   12 cycles
 SCF Done:  E(RwB97XD) =  -2916.78173924     A.U. after   14 cycles
 SCF Done:  E(RwB97XD) =  -2916.78207597     A.U. after   12 cycles
 SCF Done:  E(RwB97XD) =  -2916.78221814     A.U. after   12 cycles
 SCF Done:  E(RwB97XD) =  -2916.78222792     A.U. after   11 cycles
 SCF Done:  E(RwB97XD) =  -2916.78223030     A.U. after   10 cycles
 SCF Done:  E(RwB97XD) =  -2916.78223109     A.U. after    9 cycles
 SCF Done:  E(RwB97XD) =  -2916.78223106     A.U. after    8 cycles
 Optimization completed.
    -- Stationary point found.
 Normal termination of Gaussian 16 at Fri Feb 12 12:19:51 2021.

 ---------------------------------------------------------------------
 #N Geom=AllCheck Guess=TCheck SCRF=Check GenChk RwB97XD/def2TZVP Freq
 ---------------------------------------------------------------------

 Structure from the checkpoint file:  "/beegfs/scratch/user/q/tla25/Gau-86778.chk"
 ------------------------
 0_iteration/TS-331-0.out
 ------------------------
 Charge =  0 Multiplicity = 1

                         Standard orientation:
 ---------------------------------------------------------------------
 Center     Atomic      Atomic             Coordinates (Angstroms)
 Number     Number       Type             X           Y           Z
 ---------------------------------------------------------------------
      1          6           0       -1.192814    0.564734   -0.924114
      2          6           0       -2.252630    0.236217   -0.002069
      3          8           0       -3.432461    0.523811   -0.246116
      4          6           0        0.169656    0.409879   -0.818950
      5          6           0        2.412402    1.869802    0.331963
      6          1           0        2.725267    2.720554    0.937900
      7          1           0        2.887824    0.967922    0.710763
      8          1           0        2.726208    2.031962   -0.698398
      9          7           0        0.960817    1.696385    0.363225
     10          1           0        0.624473    1.472644    1.293659
     11          1           0        0.477371    2.532992    0.056828
     12          1           0        0.765240    0.701592   -1.672833
     13         35           0        0.990761   -1.202022   -0.067337
     14          1           0       -1.515912    1.158868   -1.770319
     15          7           0       -1.948662   -0.356442    1.197534
     16          1           0       -1.078259   -0.846844    1.313139
     17          1           0       -2.733918   -0.722807    1.708676
 ---------------------------------------------------------------------

 SCF Done:  E(RwB97XD) =  -2916.78223106     A.U. after    1 cycles

 The electronic state is 1-A.
 Alpha  occ. eigenvalues -- -483.13368 -62.68231 -56.47330 -56.46998 -56.46988
 Alpha  occ. eigenvalues --  -19.19534 -14.48893 -14.43400 -10.38729 -10.37606
 Alpha  occ. eigenvalues --  -10.32021 -10.25495  -8.82348  -6.64453  -6.63395
 Alpha  occ. eigenvalues --   -6.63363  -2.74845  -2.74546  -2.74521  -2.73666
 Alpha  occ. eigenvalues --   -2.73664  -1.12010  -1.04240  -0.98889  -0.92138
 Alpha  occ. eigenvalues --   -0.84352  -0.79133  -0.72906  -0.65138  -0.63485
 Alpha  occ. eigenvalues --   -0.60796  -0.58312  -0.55035  -0.54315  -0.53006
 Alpha  occ. eigenvalues --   -0.49482  -0.48932  -0.48415  -0.45297  -0.44380
 Alpha  occ. eigenvalues --   -0.38074  -0.37466  -0.35032  -0.33527  -0.28015
 Alpha virt. eigenvalues --    0.04586   0.06402   0.10083   0.13574   0.14369
 Alpha virt. eigenvalues --    0.14877   0.16947   0.17788   0.18812   0.19267
 Alpha virt. eigenvalues --    0.19791   0.21021   0.21733   0.23544   0.26044

 Mulliken charges:
               1
     1  C   -0.416854
     2  C    0.332178
     3  O   -0.550001
     4  C   -0.037469
     5  C   -0.273544
     6  H    0.156182
     7  H    0.152910
     8  H    0.152349
     9  N   -0.317425
    10  H    0.283876
    11  H    0.283717
    12  H    0.189547
    13  Br  -0.134530
    14  H    0.138296
    15  N   -0.466465
    16  H    0.247867
    17  H    0.259365
 Sum of Mulliken charges =  -0.00000

 Dipole moment (field-independent basis, Debye):
    X=              9.6239    Y=              3.2544    Z=              2.8223  Tot=             10.5440
 Quadrupole moment (field-independent basis, Debye-Ang):
   XX=            -83.3118   YY=            -52.1566   ZZ=            -57.2521
   XY=             13.0096   XZ=             -5.2574   YZ=             -2.0050

  Exact polarizability: 172.236   1.600 120.821   8.902  -5.603 106.330
 Approx polarizability: 128.123  -1.878  99.283   7.170  -5.773  92.639

 ******    1 imaginary frequencies (negative Signs) ******

                      1                      2                      3
                      A                      A                      A
 Frequencies --   -391.1754                63.1931                73.8451
 Red. masses --      5.9157                 2.8831                 5.9056
 Frc consts  --      0.5333                 0.0068                 0.0190
 IR Inten    --    783.8080                 7.1171                12.3064

                      4                      5                      6
                      A                      A                      A
 Frequencies --     88.2026               154.0246               166.0895
 Red. masses --      2.5382                 5.2286                 1.4373
 Frc consts  --      0.0116                 0.0731                 0.0234
 IR Inten    --      9.8917                11.7083                 2.6816

                      7                      8                      9
                      A                      A                      A
 Frequencies --    187.3879               288.3333               301.6334
 Red. masses --      2.7504                 2.7621                 5.2770
 Frc consts  --      0.0569                 0.1353                 0.2829
 IR Inten    --      6.0131                 3.4031                12.2956

                     10                     11                     12
                      A                      A                      A
 Frequencies --    396.8683               417.2423               501.0617
 Red. masses --      2.9830                 1.2257                 2.3894
 Frc consts  --      0.2768                 0.1257                 0.3534
 IR Inten    --     90.7022               388.2319                99.2170

                     13                     14                     15
                      A                      A                      A
 Frequencies --    529.5290               556.9128               652.4034
 Red. masses --      1.3988                 3.3053                 1.3792
 Frc consts  --      0.2311                 0.6040                 0.3459
 IR Inten    --     15.5864                41.7819                50.2654

                     16                     17                     18
                      A                      A                      A
 Frequencies --    672.4555               731.7897               799.2691
 Red. masses --      1.9885                 2.2553                 6.4676
 Frc consts  --      0.5298                 0.7116                 2.4343
 IR Inten    --     64.9717                45.6500               111.1143

                     19                     20                     21
                      A                      A                      A
 Frequencies --    907.2196              1007.1782              1042.6825
 Red. masses --      3.4999                 1.0793                 1.2103
 Frc consts  --      1.6972                 0.6450                 0.7753
 IR Inten    --     12.0256                18.1637                34.7368

                     22                     23                     24
                      A                      A                      A
 Frequencies --   1072.6301              1103.6871              1144.1086
 Red. masses --      3.7072                 1.6737                 1.0984
 Frc consts  --      2.5130                 1.2012                 0.8471
 IR Inten    --    201.0343                22.9432                76.8561

                     25                     26                     27
                      A                      A                      A
 Frequencies --   1198.5327              1229.0722              1295.8692
 Red. masses --      1.1837                 1.3821                 1.3466
 Frc consts  --      1.0019                 1.2301                 1.3324
 IR Inten    --    141.5405                33.7137               339.8753

                     28                     29                     30
                      A                      A                      A
 Frequencies --   1341.2424              1397.6610              1456.6846
 Red. masses --      1.3237                 3.2955                 1.2637
 Frc consts  --      1.4030                 3.7930                 1.5799
 IR Inten    --      8.3298               311.2242                63.7859

                     31                     32                     33
                      A                      A                      A
 Frequencies --   1481.4102              1492.2334              1502.2395
 Red. masses --      3.5918                 1.0492                 1.0338
 Frc consts  --      4.6443                 1.3765                 1.3746
 IR Inten    --    465.2442                21.4897                16.4685

                     34                     35                     36
                      A                      A                      A
 Frequencies --   1614.9953              1642.8037              1655.4824
 Red. masses --      1.4257                 1.0997                 3.7681
 Frc consts  --      2.1909                 1.7487                 6.0844
 IR Inten    --    468.9740               115.5566               949.6136

                     37                     38                     39
                      A                      A                      A
 Frequencies --   3069.9906              3146.9825              3172.8606
 Red. masses --      1.0341                 1.1051                 1.1048
 Frc consts  --      5.7423                 6.4483                 6.5529
 IR Inten    --     45.5006                15.5641                11.2780

                     40                     41                     42
                      A                      A                      A
 Frequencies --   3191.5195              3218.8785              3517.4201
 Red. masses --      1.0859                 1.0936                 1.0510
 Frc consts  --      6.5170                 6.6761                 7.6614
 IR Inten    --      1.5946                 4.6283                26.1214

                     43                     44                     45
                      A                      A                      A
 Frequencies --   3596.9292              3600.5575              3715.4045
 Red. masses --      1.0466                 1.0967                 1.1024
 Frc consts  --      7.9777                 8.3764                 8.9658
 IR Inten    --     41.1626                49.2721               114.6055

 - Thermochemistry -
 -------------------
 Temperature   298.150 Kelvin.  Pressure   1.00000 Atm.
 Atom     1 has atomic number  6 and mass  12.00000

 Molecular mass:   179.98982 amu.
 Principal axes and moments of inertia in atomic units:
                           1         2         3
     Eigenvalues --  1017.563402056.107292666.22096
           X            0.99478   0.10207  -0.00209
           Y           -0.10209   0.99470  -0.01261
           Z            0.00079   0.01275   0.99992
 This molecule is an asymmetric top.
 Rotational symmetry number  1.
 Warning -- assumption of classical behavior for rotation
           may cause significant error
 Rotational temperatures (Kelvin)      0.08512     0.04213     0.03249
 Rotational constants (GHZ):           1.77359     0.87775     0.67689
    1 imaginary frequencies ignored.
 Zero-point vibrational energy     361251.4 (Joules/Mol)
                                   86.34116 (Kcal/Mol)
 Warning -- explicit consideration of  13 degrees of freedom as
           vibrations may cause significant error
 Vibrational temperatures:     90.92   106.25   126.90   221.61   238.97
          (Kelvin)            269.61   414.85   433.98   571.00   600.32
                              720.92   761.87   801.27   938.66   967.51
                             1052.88  1149.97  1305.29  1449.10  1500.19
                             1543.28  1587.96  1646.12  1724.42  1768.36
                             1864.47  1929.75  2010.92  2095.84  2131.42
                             2146.99  2161.39  2323.62  2363.63  2381.87
                             4417.03  4527.81  4565.04  4591.88  4631.25
                             5060.78  5175.18  5180.40  5345.64

 Zero-point correction=                           0.137593 (Hartree/Particle)
 Thermal correction to Energy=                    0.147399
 Thermal correction to Enthalpy=                  0.148343
 Thermal correction to Gibbs Free Energy=         0.101086
 Sum of electronic and zero-point Energies=          -2916.644638
 Sum of electronic and thermal Energies=             -2916.634832
 Sum of electronic and thermal Enthalpies=           -2916.633888
 Sum of electronic and thermal Free Energies=        -2916.681146

                     E (Thermal)             CV                S
                      KCal/Mol        Cal/Mol-Kelvin    Cal/Mol-Kelvin
 Total                   92.494             33.810             99.462
 Electronic               0.000              0.000              0.000
 Translational            0.889              2.981             41.470
 Rotational               0.889              2.981             30.101
 Vibrational             90.717             27.848             27.891
 Vibration     1          0.597              1.972              4.355
 Vibration     2          0.599              1.966              4.048
 Vibration     3          0.601              1.957              3.700
 Vibration     4          0.620              1.898              2.622
 Vibration     5          0.624              1.884              2.479
 Vibration     6          0.632              1.857              2.254
 Vibration     7          0.685              1.695              1.484
 Vibration     8          0.694              1.671              1.408
 Vibration     9          0.763              1.477              0.974
 Vibration    10          0.780              1.433              0.901
 Vibration    11          0.856              1.248              0.655
 Vibration    12          0.884              1.185              0.588
 Vibration    13          0.912              1.125              0.530

 Optimization completed.
    -- Stationary point found.
 Normal termination of Gaussian 16 at Fri Feb 12 12:27:42 2021.
