 Gaussian 16, Revision A.03,
 Gaussian 16:  ES64L-G16RevA.03 25-Dec-2016

 ----------------------------------------------------------------------
 # wB97XD def2tzvp, opt=(ts, noeigen, calcfc, maxcycles=70, maxstep=8),
  freq=noraman, scrf=(iefpcm, solvent=water)
 ----------------------------------------------------------------------

 ------------------------
 0_iteration/TS-341-0.out
 ------------------------
 Symbolic Z-matrix:
 Charge =  0 Multiplicity = 1

 SCF Done:  E(RwB97XD) =  -2995.40121338     A.U. after   15 cycles
 SCF Done:  E(RwB97XD) =  -2995.40153246     A.U. after   13 cycles
 SCF Done:  E(RwB97XD) =  -2995.40176658     A.U. after   13 cycles
 SCF Done:  E(RwB97XD) =  -2995.40188352     A.U. after   12 cycles
 SCF Done:  E(RwB97XD) =  -2995.40175019     A.U. after   12 cycles
 SCF Done:  E(RwB97XD) =  -2995.40169415     A.U. after   12 cycles
 SCF Done:  E(RwB97XD) =  -2995.40159918     A.U. after   12 cycles
 SCF Done:  E(RwB97XD) =  -2995.40165299     A.U. after   12 cycles
 SCF Done:  E(RwB97XD) =  -2995.40170708     A.U. after   11 cycles
 SCF Done:  E(RwB97XD) =  -2995.40171397     A.U. after   10 cycles
 SCF Done:  E(RwB97XD) =  -2995.40171479     A.U. after   10 cycles
 SCF Done:  E(RwB97XD) =  -2995.40171551     A.U. after   10 cycles
 SCF Done:  E(RwB97XD) =  -2995.40171576     A.U. after    8 cycles
 SCF Done:  E(RwB97XD) =  -2995.40171594     A.U. after    8 cycles
 Optimization completed.
    -- Stationary point found.
 Normal termination of Gaussian 16 at Fri Feb 12 16:54:29 2021.

 ---------------------------------------------------------------------
 #N Geom=AllCheck Guess=TCheck SCRF=Check GenChk RwB97XD/def2TZVP Freq
 ---------------------------------------------------------------------

 Structure from the checkpoint file:  "/beegfs/scratch/user/q/tla25/Gau-83272.chk"
 ------------------------
 0_iteration/TS-341-0.out
 ------------------------
 Charge =  0 Multiplicity = 1

                         Standard orientation:
 ---------------------------------------------------------------------
 Center     Atomic      Atomic             Coordinates (Angstroms)
 Number     Number       Type             X           Y           Z
 ---------------------------------------------------------------------
      1          6           0       -0.772950    1.047889   -0.514176
      2          6           0       -1.861115    0.235094   -0.005114
      3          8           0       -3.040756    0.606428   -0.093656
      4          6           0        0.573193    0.795146   -0.378004
      5          6           0        2.605971    0.997522    1.677471
      6          1           0        2.803952    1.270437    2.714179
      7          1           0        3.014365    0.009212    1.482392
      8          1           0        3.087355    1.719451    1.019359
      9          7           0        1.169499    0.987941    1.399167
     10          1           0        0.681728    0.274374    1.930499
     11          1           0        0.741812    1.878692    1.626430
     12          1           0        1.255407    1.515571   -0.808114
     13         35           0        1.386278   -0.981914   -0.750372
     14          6           0       -1.167899    2.405573   -1.053181
     15          1           0       -0.299355    2.937415   -1.445244
     16          1           0       -1.893463    2.314412   -1.864994
     17          1           0       -1.627650    3.039980   -0.288643
     18          7           0       -1.581061   -0.942072    0.641470
     19          6           0       -2.647544   -1.840934    1.021556
     20          1           0       -0.684001   -1.364303    0.475316
     21          1           0       -3.341349   -1.345329    1.699870
     22          1           0       -3.217539   -2.201159    0.159717
     23          1           0       -2.211952   -2.696022    1.535712
 ---------------------------------------------------------------------

 SCF Done:  E(RwB97XD) =  -2995.40171594     A.U. after    1 cycles

 The electronic state is 1-A.
 Alpha  occ. eigenvalues -- -483.12793 -62.67654 -56.46746 -56.46426 -56.46415
 Alpha  occ. eigenvalues --  -19.19295 -14.49364 -14.43770 -10.38217 -10.36672
 Alpha  occ. eigenvalues --  -10.32109 -10.30230 -10.26818 -10.25776  -8.81764
 Alpha  occ. eigenvalues --   -6.63840  -6.62827  -6.62794  -2.74232  -2.73952
 Alpha  occ. eigenvalues --   -2.73925  -2.73107  -2.73105  -1.11878  -1.04639
 Alpha  occ. eigenvalues --   -1.00402  -0.92122  -0.86284  -0.79765  -0.79688
 Alpha  occ. eigenvalues --   -0.75833  -0.69992  -0.65284  -0.63590  -0.59176
 Alpha  occ. eigenvalues --   -0.56084  -0.55189  -0.54493  -0.52783  -0.51516
 Alpha  occ. eigenvalues --   -0.49748  -0.49347  -0.48447  -0.46759  -0.45293
 Alpha  occ. eigenvalues --   -0.44794  -0.44453  -0.43101  -0.37632  -0.37250
 Alpha  occ. eigenvalues --   -0.33681  -0.32667  -0.26253
 Alpha virt. eigenvalues --    0.04571   0.06619   0.10021   0.12924   0.13488
 Alpha virt. eigenvalues --    0.14435   0.15494   0.16847   0.17534   0.18397
 Alpha virt. eigenvalues --    0.18642   0.19159   0.20186   0.20758   0.21250

 Mulliken charges:
               1
     1  C   -0.187722
     2  C    0.321256
     3  O   -0.554942
     4  C   -0.092834
     5  C   -0.276230
     6  H    0.157618
     7  H    0.154110
     8  H    0.154201
     9  N   -0.291333
    10  H    0.281418
    11  H    0.288587
    12  H    0.184451
    13  Br  -0.169362
    14  C   -0.337157
    15  H    0.115739
    16  H    0.113568
    17  H    0.108114
    18  N   -0.326444
    19  C   -0.256600
    20  H    0.232406
    21  H    0.127019
    22  H    0.117966
    23  H    0.136174
 Sum of Mulliken charges =  -0.00000

 Dipole moment (field-independent basis, Debye):
    X=              8.8431    Y=              0.7487    Z=              5.4720  Tot=             10.4262
 Quadrupole moment (field-independent basis, Debye-Ang):
   XX=            -90.2274   YY=            -67.6439   ZZ=            -68.5596
   XY=             13.2549   XZ=              3.6070   YZ=              2.2430

  Exact polarizability: 202.742  -9.194 160.796  10.455  -0.121 139.573
 Approx polarizability: 152.913  -8.690 130.306   6.292  -0.215 116.328

 ******    1 imaginary frequencies (negative Signs) ******

                      1                      2                      3
                      A                      A                      A
 Frequencies --   -407.1743                38.9973                70.5270
 Red. masses --      6.7200                 3.1069                 3.6577
 Frc consts  --      0.6564                 0.0028                 0.0107
 IR Inten    --    761.5789                 3.8190                14.5532

                      4                      5                      6
                      A                      A                      A
 Frequencies --     82.1527               121.9774               129.2629
 Red. masses --      2.3660                 2.9848                 2.1583
 Frc consts  --      0.0094                 0.0262                 0.0212
 IR Inten    --     12.9005                10.7150                10.2791

                      7                      8                      9
                      A                      A                      A
 Frequencies --    145.2687               160.7655               166.9860
 Red. masses --      1.2917                 3.2767                 1.1463
 Frc consts  --      0.0161                 0.0499                 0.0188
 IR Inten    --      4.2349                 1.7207                 0.2308

                     10                     11                     12
                      A                      A                      A
 Frequencies --    174.3494               193.9970               248.5203
 Red. masses --      1.4311                 3.2493                 4.4099
 Frc consts  --      0.0256                 0.0720                 0.1605
 IR Inten    --     11.7530                10.7138                17.5594

                     13                     14                     15
                      A                      A                      A
 Frequencies --    278.5514               309.2466               348.7858
 Red. masses --      2.8872                 3.2806                 4.1953
 Frc consts  --      0.1320                 0.1848                 0.3007
 IR Inten    --     11.1375                26.6082                32.3409

                     16                     17                     18
                      A                      A                      A
 Frequencies --    427.2431               482.8508               491.0657
 Red. masses --      2.9322                 4.5752                 1.5179
 Frc consts  --      0.3153                 0.6285                 0.2157
 IR Inten    --     51.0952                82.0603               244.1255

                     19                     20                     21
                      A                      A                      A
 Frequencies --    615.0906               652.7022               749.0272
 Red. masses --      2.6618                 3.0035                 1.7687
 Frc consts  --      0.5933                 0.7539                 0.5847
 IR Inten    --     18.4479                59.1503               194.8565

                     22                     23                     24
                      A                      A                      A
 Frequencies --    789.0226               869.4938              1000.4210
 Red. masses --      7.0979                 3.1565                 1.7999
 Frc consts  --      2.6035                 1.4060                 1.0614
 IR Inten    --     64.0744                23.4838               106.8822

                     25                     26                     27
                      A                      A                      A
 Frequencies --   1012.5739              1047.6379              1053.1102
 Red. masses --      1.1563                 1.8562                 1.5984
 Frc consts  --      0.6985                 1.2003                 1.0444
 IR Inten    --     21.6751                28.8445               113.9000

                     28                     29                     30
                      A                      A                      A
 Frequencies --   1056.7014              1083.1356              1140.4077
 Red. masses --      1.4638                 2.3029                 1.1360
 Frc consts  --      0.9631                 1.5918                 0.8704
 IR Inten    --      8.6515               172.7859                35.3105

                     31                     32                     33
                      A                      A                      A
 Frequencies --   1146.9673              1174.8550              1190.7761
 Red. masses --      1.3106                 1.6802                 2.1292
 Frc consts  --      1.0158                 1.3664                 1.7788
 IR Inten    --      8.0678                33.1237                29.2820

                     34                     35                     36
                      A                      A                      A
 Frequencies --   1237.8143              1250.2494              1342.0537
 Red. masses --      1.3683                 1.6403                 1.3289
 Frc consts  --      1.2352                 1.5107                 1.4103
 IR Inten    --     40.2618               152.4945                10.7592

                     37                     38                     39
                      A                      A                      A
 Frequencies --   1369.0839              1413.4161              1452.7384
 Red. masses --      2.3592                 1.3393                 1.6506
 Frc consts  --      2.6054                 1.5764                 2.0524
 IR Inten    --    244.5943                60.5213               253.8272

                     40                     41                     42
                      A                      A                      A
 Frequencies --   1454.2988              1464.5274              1467.3839
 Red. masses --      1.2220                 1.4120                 1.0453
 Frc consts  --      1.5228                 1.7844                 1.3260
 IR Inten    --     40.6549               145.3578                10.4226

                     43                     44                     45
                      A                      A                      A
 Frequencies --   1476.7113              1491.9953              1501.6799
 Red. masses --      1.0618                 1.0402                 1.0305
 Frc consts  --      1.3642                 1.3643                 1.3692
 IR Inten    --     27.6824                18.2980                19.8615

                     46                     47                     48
                      A                      A                      A
 Frequencies --   1505.2978              1510.6179              1554.3319
 Red. masses --      1.0868                 1.3601                 1.8251
 Frc consts  --      1.4509                 1.8287                 2.5979
 IR Inten    --      0.5766               269.3080               390.2539

                     49                     50                     51
                      A                      A                      A
 Frequencies --   1642.6418              1645.8584              3025.1919
 Red. masses --      1.6891                 2.0684                 1.0404
 Frc consts  --      2.6853                 3.3012                 5.6097
 IR Inten    --    642.0542               362.4564               116.9253

                     52                     53                     54
                      A                      A                      A
 Frequencies --   3035.8138              3071.8029              3079.3215
 Red. masses --      1.0446                 1.0342                 1.0974
 Frc consts  --      5.6720                 5.7496                 6.1306
 IR Inten    --     96.4839                43.5120                53.0252

                     55                     56                     57
                      A                      A                      A
 Frequencies --   3110.3585              3117.7363              3149.3699
 Red. masses --      1.0921                 1.1004                 1.1053
 Frc consts  --      6.2249                 6.3019                 6.4595
 IR Inten    --     45.0074                41.4149                15.1517

                     58                     59                     60
                      A                      A                      A
 Frequencies --   3152.9916              3177.9859              3209.1237
 Red. masses --      1.1035                 1.1046                 1.0920
 Frc consts  --      6.4635                 6.5732                 6.6257
 IR Inten    --     25.7301                10.1654                 3.8607

                     61                     62                     63
                      A                      A                      A
 Frequencies --   3518.5771              3598.2992              3639.0165
 Red. masses --      1.0512                 1.0964                 1.0771
 Frc consts  --      7.6678                 8.3643                 8.4040
 IR Inten    --     28.5392                52.7284               115.0954

 - Thermochemistry -
 -------------------
 Temperature   298.150 Kelvin.  Pressure   1.00000 Atm.
 Atom     1 has atomic number  6 and mass  12.00000

 Molecular mass:   208.02112 amu.
 Principal axes and moments of inertia in atomic units:
                           1         2         3
     Eigenvalues --  1666.462932935.045663401.47072
           X            0.99498   0.09429   0.03340
           Y           -0.09044   0.99064  -0.10221
           Z           -0.04272   0.09868   0.99420
 This molecule is an asymmetric top.
 Rotational symmetry number  1.
 Warning -- assumption of classical behavior for rotation
           may cause significant error
 Rotational temperatures (Kelvin)      0.05197     0.02951     0.02546
 Rotational constants (GHZ):           1.08298     0.61489     0.53058
    1 imaginary frequencies ignored.
 Zero-point vibrational energy     509123.2 (Joules/Mol)
                                  121.68338 (Kcal/Mol)
 Warning -- explicit consideration of  18 degrees of freedom as
           vibrations may cause significant error
 Vibrational temperatures:     56.11   101.47   118.20   175.50   185.98
          (Kelvin)            209.01   231.31   240.26   250.85   279.12
                              357.57   400.77   444.94   501.83   614.71
                              694.71   706.53   884.98   939.09  1077.68
                             1135.23  1251.01  1439.38  1456.87  1507.32
                             1515.19  1520.36  1558.39  1640.79  1650.23
                             1690.35  1713.26  1780.94  1798.83  1930.92
                             1969.81  2033.59  2090.17  2092.41  2107.13
                             2111.24  2124.66  2146.65  2160.58  2165.79
                             2173.44  2236.34  2363.40  2368.02  4352.58
                             4367.86  4419.64  4430.46  4475.11  4485.73
                             4531.24  4536.45  4572.41  4617.21  5062.45
                             5177.15  5235.73

 Zero-point correction=                           0.193915 (Hartree/Particle)
 Thermal correction to Energy=                    0.206962
 Thermal correction to Enthalpy=                  0.207906
 Thermal correction to Gibbs Free Energy=         0.153195
 Sum of electronic and zero-point Energies=          -2995.207801
 Sum of electronic and thermal Energies=             -2995.194754
 Sum of electronic and thermal Enthalpies=           -2995.193810
 Sum of electronic and thermal Free Energies=        -2995.248521

                     E (Thermal)             CV                S
                      KCal/Mol        Cal/Mol-Kelvin    Cal/Mol-Kelvin
 Total                  129.871             44.191            115.149
 Electronic               0.000              0.000              0.000
 Translational            0.889              2.981             41.901
 Rotational               0.889              2.981             31.187
 Vibrational            128.093             38.229             42.061
 Vibration     1          0.594              1.981              5.309
 Vibration     2          0.598              1.968              4.139
 Vibration     3          0.600              1.961              3.839
 Vibration     4          0.609              1.931              3.069
 Vibration     5          0.612              1.924              2.957
 Vibration     6          0.617              1.908              2.733
 Vibration     7          0.622              1.890              2.541
 Vibration     8          0.624              1.883              2.469
 Vibration     9          0.627              1.874              2.388
 Vibration    10          0.635              1.848              2.189
 Vibration    11          0.662              1.765              1.741
 Vibration    12          0.679              1.713              1.543
 Vibration    13          0.699              1.656              1.366
 Vibration    14          0.726              1.578              1.172
 Vibration    15          0.789              1.411              0.868
 Vibration    16          0.839              1.288              0.702
 Vibration    17          0.847              1.270              0.681
 Vibration    18          0.975              1.000              0.424

 Optimization completed.
    -- Stationary point found.
 Normal termination of Gaussian 16 at Fri Feb 12 17:14:42 2021.
