 Gaussian 16, Revision A.03,
 Gaussian 16:  ES64L-G16RevA.03 25-Dec-2016

 ----------------------------------------------------------------------
 # wB97XD def2tzvp, opt=(ts, noeigen, calcfc, maxcycles=70, maxstep=8),
  freq=noraman, scrf=(iefpcm, solvent=water)
 ----------------------------------------------------------------------

 ------------------------
 1_iteration/TS-364-1.out
 ------------------------
 Symbolic Z-matrix:
 Charge =  0 Multiplicity = 1

 SCF Done:  E(RwB97XD) =  -1093.00712013     A.U. after   14 cycles
 SCF Done:  E(RwB97XD) =  -1093.00712084     A.U. after    9 cycles
 SCF Done:  E(RwB97XD) =  -1093.00712093     A.U. after    8 cycles
 SCF Done:  E(RwB97XD) =  -1093.00712095     A.U. after    7 cycles
 Optimization completed on the basis of negligible forces.
    -- Stationary point found.
 Normal termination of Gaussian 16 at Sun Mar 28 16:10:30 2021.

 ---------------------------------------------------------------------
 #N Geom=AllCheck Guess=TCheck SCRF=Check GenChk RwB97XD/def2TZVP Freq
 ---------------------------------------------------------------------

 Structure from the checkpoint file:  "/beegfs/scratch/user/q/tla25/Gau-45683.chk"
 ------------------------
 1_iteration/TS-364-1.out
 ------------------------
 Charge =  0 Multiplicity = 1

                         Standard orientation:
 ---------------------------------------------------------------------
 Center     Atomic      Atomic             Coordinates (Angstroms)
 Number     Number       Type             X           Y           Z
 ---------------------------------------------------------------------
      1          6           0       -0.097868    0.145253   -0.265236
      2          6           0       -0.822710    1.318236    0.190614
      3          8           0       -0.350590    2.410677    0.446089
      4          6           0       -0.733884   -0.985016   -0.734269
      5          6           0       -0.911161   -1.902171    2.012260
      6          1           0       -1.556534   -2.019704    2.883149
      7          1           0       -0.144639   -2.673771    2.032882
      8          1           0       -0.426724   -0.923379    2.062322
      9          7           0       -1.655092   -1.981691    0.766259
     10          1           0       -1.858033   -2.932703    0.485657
     11          1           0       -2.524789   -1.466292    0.819307
     12          1           0       -0.110283   -1.811372   -1.041592
     13         17           0       -2.154184   -0.940537   -1.785676
     14          6           0        1.382299    0.106302   -0.154754
     15          6           0        2.165649    1.218845   -0.482328
     16          6           0        3.549223    1.166928   -0.415848
     17          6           0        4.197032    0.001578   -0.030547
     18          6           0        3.437193   -1.112506    0.291942
     19          6           0        2.052748   -1.056898    0.237184
     20          1           0        1.680133    2.131932   -0.793538
     21          1           0        4.126251    2.045607   -0.678119
     22          1           0        5.277845   -0.037024    0.018240
     23          1           0        3.921149   -2.030938    0.601070
     24          1           0        1.488883   -1.937645    0.516702
     25          8           0       -2.136120    1.068057    0.383669
     26          6           0       -2.937599    2.165011    0.804193
     27          1           0       -3.952810    1.781986    0.867046
     28          1           0       -2.615425    2.530157    1.779392
     29          1           0       -2.890095    2.980876    0.082835
 ---------------------------------------------------------------------

 SCF Done:  E(RwB97XD) =  -1093.00712095     A.U. after    1 cycles

 The electronic state is 1-A.
 Alpha  occ. eigenvalues -- -101.69868 -19.28815 -19.22151 -14.47312 -10.40611
 Alpha  occ. eigenvalues --  -10.38705 -10.32896 -10.31366 -10.30315 -10.28590
 Alpha  occ. eigenvalues --  -10.28476 -10.28384 -10.28197 -10.28040 -10.27959
 Alpha  occ. eigenvalues --   -9.58451  -7.33095  -7.32243  -7.32189  -1.20403
 Alpha  occ. eigenvalues --   -1.10813  -1.03128  -0.97505  -0.95861  -0.89406
 Alpha  occ. eigenvalues --   -0.84541  -0.83902  -0.80410  -0.78432  -0.73042
 Alpha  occ. eigenvalues --   -0.69625  -0.68910  -0.64492  -0.63007  -0.60840
 Alpha  occ. eigenvalues --   -0.58729  -0.57562  -0.57198  -0.56360  -0.54157
 Alpha  occ. eigenvalues --   -0.53802  -0.53277  -0.52832  -0.50977  -0.50015
 Alpha  occ. eigenvalues --   -0.48679  -0.48036  -0.47443  -0.46106  -0.45606
 Alpha  occ. eigenvalues --   -0.44331  -0.42843  -0.42229  -0.40020  -0.38263
 Alpha  occ. eigenvalues --   -0.37874  -0.35943  -0.34927  -0.33190  -0.27385
 Alpha virt. eigenvalues --    0.03550   0.05776   0.05838   0.09003   0.10720
 Alpha virt. eigenvalues --    0.12950   0.13520   0.14862   0.15741   0.15997
 Alpha virt. eigenvalues --    0.16857   0.17513   0.17900   0.18044   0.19367

 Mulliken charges:
               1
     1  C   -0.262426
     2  C    0.415447
     3  O   -0.477905
     4  C    0.016730
     5  C   -0.295378
     6  H    0.155615
     7  H    0.154489
     8  H    0.149859
     9  N   -0.370428
    10  H    0.284274
    11  H    0.277093
    12  H    0.203698
    13  Cl  -0.109431
    14  C    0.250389
    15  C   -0.252001
    16  C   -0.137709
    17  C   -0.163125
    18  C   -0.179476
    19  C   -0.264485
    20  H    0.138251
    21  H    0.136945
    22  H    0.138953
    23  H    0.137313
    24  H    0.155460
    25  O   -0.302641
    26  C   -0.201129
    27  H    0.139714
    28  H    0.130351
    29  H    0.131553
 Sum of Mulliken charges =  -0.00000

 Dipole moment (field-independent basis, Debye):
    X=             -3.9960    Y=             -6.9968    Z=              2.9186  Tot=              8.5698
 Quadrupole moment (field-independent basis, Debye-Ang):
   XX=            -83.8450   YY=            -87.7864   ZZ=            -96.9042
   XY=              1.1443   XZ=             -7.1864   YZ=             -7.5594

  Exact polarizability: 272.028  18.172 238.683   5.600 -13.501 167.648
 Approx polarizability: 205.997  13.022 199.314   5.286  -9.694 143.107

 ******    1 imaginary frequencies (negative Signs) ******

                      1                      2                      3
                      A                      A                      A
 Frequencies --   -367.0068                37.2417                56.9343
 Red. masses --      5.9538                 4.4351                 5.0511
 Frc consts  --      0.4725                 0.0036                 0.0096
 IR Inten    --    752.4912                 1.7945                 2.9223

                      4                      5                      6
                      A                      A                      A
 Frequencies --     65.6371                82.2863               103.4633
 Red. masses --      3.0738                 4.6848                 2.7382
 Frc consts  --      0.0078                 0.0187                 0.0173
 IR Inten    --      0.8306                 1.3079                19.6770

                      7                      8                      9
                      A                      A                      A
 Frequencies --    117.0675               121.9091               152.3424
 Red. masses --      3.6390                 4.0160                 1.2943
 Frc consts  --      0.0294                 0.0352                 0.0177
 IR Inten    --      1.7020                 3.7799                 3.1827

                     10                     11                     12
                      A                      A                      A
 Frequencies --    181.3580               190.5112               226.4002
 Red. masses --      3.2480                 4.7909                 1.2075
 Frc consts  --      0.0629                 0.1024                 0.0365
 IR Inten    --      4.9060                 4.3730                 1.4921

                     13                     14                     15
                      A                      A                      A
 Frequencies --    240.3238               285.0330               289.2561
 Red. masses --      3.4746                 3.9108                 5.8002
 Frc consts  --      0.1182                 0.1872                 0.2859
 IR Inten    --     15.2363                 0.9774                22.2013

                     16                     17                     18
                      A                      A                      A
 Frequencies --    325.4676               348.8240               382.6745
 Red. masses --      5.6967                 3.7575                 4.8176
 Frc consts  --      0.3555                 0.2694                 0.4157
 IR Inten    --     20.0899                42.7875                23.8883

                     19                     20                     21
                      A                      A                      A
 Frequencies --    422.8606               464.0604               545.6477
 Red. masses --      2.9078                 5.2307                 2.7356
 Frc consts  --      0.3063                 0.6637                 0.4799
 IR Inten    --      1.5502                19.2454                26.6317

                     22                     23                     24
                      A                      A                      A
 Frequencies --    578.3284               633.4856               641.1419
 Red. masses --      2.1279                 5.2730                 6.4569
 Frc consts  --      0.4193                 1.2467                 1.5638
 IR Inten    --     11.8348                14.7339                20.2382

                     25                     26                     27
                      A                      A                      A
 Frequencies --    692.5402               723.8213               769.3904
 Red. masses --      3.4462                 1.6178                 3.1137
 Frc consts  --      0.9738                 0.4994                 1.0860
 IR Inten    --     32.5965                82.3109                91.6901

                     28                     29                     30
                      A                      A                      A
 Frequencies --    800.4229               819.6006               847.6606
 Red. masses --      4.9063                 4.6534                 5.5090
 Frc consts  --      1.8520                 1.8417                 2.3322
 IR Inten    --     82.0615                89.8398                15.4869

                     31                     32                     33
                      A                      A                      A
 Frequencies --    869.4838               933.7220               948.4700
 Red. masses --      1.2542                 2.6754                 2.0200
 Frc consts  --      0.5586                 1.3743                 1.0706
 IR Inten    --      1.2591                21.4262                 1.5706

                     34                     35                     36
                      A                      A                      A
 Frequencies --    986.0704              1006.5065              1017.9609
 Red. masses --      1.1155                 1.3652                 1.1288
 Frc consts  --      0.6390                 0.8149                 0.6892
 IR Inten    --     95.9133                 0.4263                41.0454

                     37                     38                     39
                      A                      A                      A
 Frequencies --   1019.6467              1022.7748              1060.7558
 Red. masses --      1.3270                 5.1014                 2.1460
 Frc consts  --      0.8129                 3.1441                 1.4227
 IR Inten    --      2.0267                 2.0501                38.1240

                     40                     41                     42
                      A                      A                      A
 Frequencies --   1066.8579              1094.9294              1101.3736
 Red. masses --      1.5127                 3.6480                 2.7077
 Frc consts  --      1.0144                 2.5768                 1.9352
 IR Inten    --     51.6125                39.9044                59.3241

                     43                     44                     45
                      A                      A                      A
 Frequencies --   1114.6979              1181.4896              1181.5872
 Red. masses --      1.5364                 1.2609                 1.1396
 Frc consts  --      1.1248                 1.0370                 0.9374
 IR Inten    --     14.5962                 1.5507                 1.5255

                     46                     47                     48
                      A                      A                      A
 Frequencies --   1196.9925              1210.0344              1213.9576
 Red. masses --      1.4154                 1.4215                 1.3059
 Frc consts  --      1.1949                 1.2263                 1.1338
 IR Inten    --     30.7797                40.6257                 5.0016

                     49                     50                     51
                      A                      A                      A
 Frequencies --   1230.5382              1283.9663              1305.6341
 Red. masses --      3.3253                 1.6895                 3.9829
 Frc consts  --      2.9667                 1.6410                 4.0003
 IR Inten    --    460.1103                66.4979                97.3922

                     52                     53                     54
                      A                      A                      A
 Frequencies --   1340.2655              1355.1175              1382.4564
 Red. masses --      1.3387                 1.8305                 2.1872
 Frc consts  --      1.4168                 1.9805                 2.4629
 IR Inten    --      6.9455                88.3627               240.4935

                     55                     56                     57
                      A                      A                      A
 Frequencies --   1450.8511              1472.4603              1480.5873
 Red. masses --      1.8778                 1.4509                 1.2534
 Frc consts  --      2.3288                 1.8535                 1.6188
 IR Inten    --    411.0837                87.3524                69.4650

                     58                     59                     60
                      A                      A                      A
 Frequencies --   1481.7152              1494.5571              1496.9467
 Red. masses --      1.0696                 1.1006                 1.0485
 Frc consts  --      1.3836                 1.4484                 1.3843
 IR Inten    --     17.6571                 4.4066                29.7700

                     61                     62                     63
                      A                      A                      A
 Frequencies --   1501.7494              1512.9939              1541.8867
 Red. masses --      2.5013                 1.0544                 2.3437
 Frc consts  --      3.3237                 1.4222                 3.2830
 IR Inten    --    135.3233                25.8970               147.3087

                     64                     65                     66
                      A                      A                      A
 Frequencies --   1640.3975              1641.4746              1668.9613
 Red. masses --      1.2551                 3.4046                 5.8753
 Frc consts  --      1.9898                 5.4048                 9.6421
 IR Inten    --     51.8729                24.1143                63.4005

                     67                     68                     69
                      A                      A                      A
 Frequencies --   1718.2057              3051.6954              3064.3742
 Red. masses --     11.3256                 1.0365                 1.0308
 Frc consts  --     19.6998                 5.6874                 5.7030
 IR Inten    --    908.0152                31.3141                57.5138

                     70                     71                     72
                      A                      A                      A
 Frequencies --   3122.5469              3141.0013              3162.2570
 Red. masses --      1.1012                 1.1068                 1.1040
 Frc consts  --      6.3263                 6.4338                 6.5048
 IR Inten    --     21.0162                34.9910                19.9172

                     73                     74                     75
                      A                      A                      A
 Frequencies --   3175.1632              3189.9218              3196.8103
 Red. masses --      1.1055                 1.0856                 1.0894
 Frc consts  --      6.5666                 6.5086                 6.5592
 IR Inten    --     22.3240                 4.6979                14.0134

                     76                     77                     78
                      A                      A                      A
 Frequencies --   3210.1890              3218.9625              3235.0109
 Red. masses --      1.0922                 1.0971                 1.0913
 Frc consts  --      6.6316                 6.6980                 6.7290
 IR Inten    --     36.2910                21.9855                 2.2000

                     79                     80                     81
                      A                      A                      A
 Frequencies --   3237.4273              3538.7597              3626.6387
 Red. masses --      1.0932                 1.0502                 1.0970
 Frc consts  --      6.7507                 7.7483                 8.5007
 IR Inten    --      6.6784                50.8310                55.8881

 - Thermochemistry -
 -------------------
 Temperature   298.150 Kelvin.  Pressure   1.00000 Atm.
 Atom     1 has atomic number  6 and mass  12.00000

 Molecular mass:   227.07131 amu.
 Principal axes and moments of inertia in atomic units:
                           1         2         3
     Eigenvalues --  2404.266774880.776055722.16204
           X            0.99962  -0.01624  -0.02214
           Y            0.01486   0.99802  -0.06105
           Z            0.02309   0.06070   0.99789
 This molecule is an asymmetric top.
 Rotational symmetry number  1.
 Warning -- assumption of classical behavior for rotation
           may cause significant error
 Rotational temperatures (Kelvin)      0.03603     0.01775     0.01514
 Rotational constants (GHZ):           0.75064     0.36977     0.31539
    1 imaginary frequencies ignored.
 Zero-point vibrational energy     619333.8 (Joules/Mol)
                                  148.02433 (Kcal/Mol)
 Warning -- explicit consideration of  21 degrees of freedom as
           vibrations may cause significant error
 Vibrational temperatures:     53.58    81.92    94.44   118.39   148.86
          (Kelvin)            168.43   175.40   219.19   260.93   274.10
                              325.74   345.77   410.10   416.18   468.28
                              501.88   550.58   608.40   667.68   785.07
                              832.09   911.44   922.46   996.41  1041.42
                             1106.98  1151.63  1179.22  1219.59  1250.99
                             1343.42  1364.64  1418.74  1448.14  1464.62
                             1467.04  1471.54  1526.19  1534.97  1575.36
                             1584.63  1603.80  1699.90  1700.04  1722.21
                             1740.97  1746.61  1770.47  1847.34  1878.52
                             1928.34  1949.71  1989.05  2087.45  2118.54
                             2130.23  2131.86  2150.33  2153.77  2160.68
                             2176.86  2218.43  2360.17  2361.72  2401.26
                             2472.11  4390.71  4408.95  4492.65  4519.20
                             4549.78  4568.35  4589.59  4599.50  4618.75
                             4631.37  4654.46  4657.94  5091.49  5217.92

 Zero-point correction=                           0.235892 (Hartree/Particle)
 Thermal correction to Energy=                    0.251256
 Thermal correction to Enthalpy=                  0.252200
 Thermal correction to Gibbs Free Energy=         0.192191
 Sum of electronic and zero-point Energies=          -1092.771229
 Sum of electronic and thermal Energies=             -1092.755865
 Sum of electronic and thermal Enthalpies=           -1092.754921
 Sum of electronic and thermal Free Energies=        -1092.814930

                     E (Thermal)             CV                S
                      KCal/Mol        Cal/Mol-Kelvin    Cal/Mol-Kelvin
 Total                  157.665             55.495            126.300
 Electronic               0.000              0.000              0.000
 Translational            0.889              2.981             42.163
 Rotational               0.889              2.981             32.574
 Vibrational            155.888             49.534             51.564
 Vibration     1          0.594              1.982              5.401
 Vibration     2          0.596              1.975              4.561
 Vibration     3          0.597              1.971              4.280
 Vibration     4          0.600              1.961              3.836
 Vibration     5          0.605              1.946              3.388
 Vibration     6          0.608              1.935              3.148
 Vibration     7          0.609              1.931              3.070
 Vibration     8          0.619              1.900              2.643
 Vibration     9          0.630              1.865              2.314
 Vibration    10          0.634              1.853              2.223
 Vibration    11          0.650              1.801              1.907
 Vibration    12          0.657              1.779              1.800
 Vibration    13          0.683              1.701              1.503
 Vibration    14          0.686              1.694              1.478
 Vibration    15          0.710              1.625              1.282
 Vibration    16          0.726              1.578              1.171
 Vibration    17          0.752              1.507              1.029
 Vibration    18          0.785              1.421              0.882
 Vibration    19          0.822              1.330              0.754
 Vibration    20          0.901              1.149              0.553
 Vibration    21          0.935              1.078              0.488

 Optimization completed.
    -- Stationary point found.
 Normal termination of Gaussian 16 at Sun Mar 28 17:07:13 2021.
