 Gaussian 16, Revision A.03,
 Gaussian 16:  ES64L-G16RevA.03 25-Dec-2016

 ----------------------------------------------------------------------
 # wB97XD def2tzvp, opt=(ts, noeigen, calcfc, maxcycles=70, maxstep=8),
  freq=noraman, scrf=(iefpcm, solvent=water)
 ----------------------------------------------------------------------

 ------------------------
 0_iteration/TS-347-0.out
 ------------------------
 Symbolic Z-matrix:
 Charge =  0 Multiplicity = 1

 SCF Done:  E(RwB97XD) =  -5490.39645884     A.U. after   15 cycles
 SCF Done:  E(RwB97XD) =  -5490.39599039     A.U. after   13 cycles
 SCF Done:  E(RwB97XD) =  -5490.39587666     A.U. after   13 cycles
 SCF Done:  E(RwB97XD) =  -5490.39606106     A.U. after   12 cycles
 SCF Done:  E(RwB97XD) =  -5490.39674652     A.U. after   13 cycles
 SCF Done:  E(RwB97XD) =  -5490.39725529     A.U. after   13 cycles
 SCF Done:  E(RwB97XD) =  -5490.39755774     A.U. after   12 cycles
 SCF Done:  E(RwB97XD) =  -5490.39766358     A.U. after   12 cycles
 SCF Done:  E(RwB97XD) =  -5490.39767771     A.U. after   11 cycles
 SCF Done:  E(RwB97XD) =  -5490.39767558     A.U. after   12 cycles
 SCF Done:  E(RwB97XD) =  -5490.39768383     A.U. after   11 cycles
 SCF Done:  E(RwB97XD) =  -5490.39768532     A.U. after    9 cycles
 SCF Done:  E(RwB97XD) =  -5490.39768550     A.U. after   10 cycles
 SCF Done:  E(RwB97XD) =  -5490.39768580     A.U. after    9 cycles
 Optimization completed.
    -- Stationary point found.
 Normal termination of Gaussian 16 at Fri Feb 12 14:56:19 2021.

 ---------------------------------------------------------------------
 #N Geom=AllCheck Guess=TCheck SCRF=Check GenChk RwB97XD/def2TZVP Freq
 ---------------------------------------------------------------------

 Structure from the checkpoint file:  "/beegfs/scratch/user/q/tla25/Gau-69144.chk"
 ------------------------
 0_iteration/TS-347-0.out
 ------------------------
 Charge =  0 Multiplicity = 1

                         Standard orientation:
 ---------------------------------------------------------------------
 Center     Atomic      Atomic             Coordinates (Angstroms)
 Number     Number       Type             X           Y           Z
 ---------------------------------------------------------------------
      1          6           0       -0.702440   -0.219266   -0.049798
      2          6           0       -0.854721   -1.440147    0.723876
      3          8           0        0.109061   -1.953605    1.300855
      4          6           0        0.491231    0.405637   -0.307771
      5          6           0        2.295286    2.212901    1.222047
      6          1           0        2.529466    2.670198    2.184726
      7          1           0        3.166823    1.665362    0.868714
      8          1           0        2.057000    2.997562    0.505379
      9          7           0        1.163006    1.296697    1.318769
     10          1           0        1.347697    0.511755    1.933274
     11          1           0        0.327636    1.763836    1.650777
     12          1           0        0.472629    1.311315   -0.895327
     13         35           0        2.069704   -0.595174   -0.773884
     14         35           0       -2.259093    0.834422   -0.445700
     15          7           0       -2.088139   -1.995848    0.812072
     16          1           0       -2.867067   -1.662763    0.274998
     17          1           0       -2.178258   -2.862803    1.310078
 ---------------------------------------------------------------------

 SCF Done:  E(RwB97XD) =  -5490.39768580     A.U. after    1 cycles

 The electronic state is 1-A.
 Alpha  occ. eigenvalues -- -483.13248-483.12961 -62.68102 -62.67799 -56.47223
 Alpha  occ. eigenvalues --  -56.46905 -56.46864 -56.46843 -56.46570 -56.46553
 Alpha  occ. eigenvalues --  -19.20713 -14.47954 -14.44409 -10.39062 -10.38873
 Alpha  occ. eigenvalues --  -10.31696 -10.31444  -8.82218  -8.81915  -6.64393
 Alpha  occ. eigenvalues --   -6.64037  -6.63248  -6.63177  -6.62964  -6.62910
 Alpha  occ. eigenvalues --   -2.74777  -2.74459  -2.74430  -2.74402  -2.74127
 Alpha  occ. eigenvalues --   -2.74083  -2.73476  -2.73475  -2.73216  -2.73215
 Alpha  occ. eigenvalues --   -1.13431  -1.03403  -1.00176  -0.94366  -0.89390
 Alpha  occ. eigenvalues --   -0.81514  -0.78570  -0.74309  -0.65821  -0.62823
 Alpha  occ. eigenvalues --   -0.61818  -0.57005  -0.55558  -0.54161  -0.52732
 Alpha  occ. eigenvalues --   -0.51021  -0.50497  -0.47951  -0.45872  -0.44939
 Alpha  occ. eigenvalues --   -0.39845  -0.38749  -0.38077  -0.36890  -0.35125
 Alpha  occ. eigenvalues --   -0.33823  -0.27848
 Alpha virt. eigenvalues --    0.02842   0.05962   0.08732   0.11085   0.13204
 Alpha virt. eigenvalues --    0.14663   0.15465   0.17125   0.17500   0.18355
 Alpha virt. eigenvalues --    0.19200   0.19636   0.21157   0.22560   0.24933

 Mulliken charges:
               1
     1  C   -0.170738
     2  C    0.307992
     3  O   -0.517591
     4  C   -0.041628
     5  C   -0.265302
     6  H    0.150272
     7  H    0.147134
     8  H    0.150332
     9  N   -0.365439
    10  H    0.283829
    11  H    0.280726
    12  H    0.198081
    13  Br  -0.084710
    14  Br  -0.150208
    15  N   -0.468904
    16  H    0.274163
    17  H    0.271991
 Sum of Mulliken charges =  -0.00000

 Dipole moment (field-independent basis, Debye):
    X=              0.2946    Y=              5.1863    Z=              2.0552  Tot=              5.5864
 Quadrupole moment (field-independent basis, Debye-Ang):
   XX=            -71.9485   YY=            -73.8491   ZZ=            -77.9177
   XY=             13.8896   XZ=              1.8215   YZ=              6.8585

  Exact polarizability: 199.848   9.636 156.790   6.238   1.587 122.438
 Approx polarizability: 152.830  -0.187 127.715   5.726  -0.884 106.630

 ******    1 imaginary frequencies (negative Signs) ******

                      1                      2                      3
                      A                      A                      A
 Frequencies --   -347.4920                36.5567                69.1001
 Red. masses --      6.7304                 3.9976                 5.2670
 Frc consts  --      0.4788                 0.0031                 0.0148
 IR Inten    --    822.8198                 4.0269                 6.7668

                      4                      5                      6
                      A                      A                      A
 Frequencies --     85.3241                97.8141               137.6379
 Red. masses --      2.4004                 4.7603                 6.0313
 Frc consts  --      0.0103                 0.0268                 0.0673
 IR Inten    --      8.1179                 5.2653                 2.4536

                      7                      8                      9
                      A                      A                      A
 Frequencies --    149.1282               159.6248               178.4235
 Red. masses --      2.5117                 1.3106                 1.8364
 Frc consts  --      0.0329                 0.0197                 0.0344
 IR Inten    --     14.5149               286.5255                29.7615

                     10                     11                     12
                      A                      A                      A
 Frequencies --    190.2201               245.7889               283.4351
 Red. masses --      4.1654                 8.8796                 3.3917
 Frc consts  --      0.0888                 0.3161                 0.1605
 IR Inten    --     63.8970                 0.3785                 4.5986

                     13                     14                     15
                      A                      A                      A
 Frequencies --    390.0430               412.8252               533.4965
 Red. masses --      6.1239                 5.5510                 3.1509
 Frc consts  --      0.5489                 0.5574                 0.5284
 IR Inten    --     35.5607               142.1306                 9.9352

                     16                     17                     18
                      A                      A                      A
 Frequencies --    550.0133               604.5103               720.4802
 Red. masses --      1.1355                 1.7641                 2.6464
 Frc consts  --      0.2024                 0.3798                 0.8094
 IR Inten    --      5.5822                19.1817               184.9046

                     19                     20                     21
                      A                      A                      A
 Frequencies --    745.4269               779.4269               975.9852
 Red. masses --      4.8486                 8.3948                 2.4190
 Frc consts  --      1.5874                 3.0048                 1.3576
 IR Inten    --     39.8270                54.9285                 3.5944

                     22                     23                     24
                      A                      A                      A
 Frequencies --   1008.8113              1024.3355              1071.6395
 Red. masses --      1.1804                 1.1117                 3.6352
 Frc consts  --      0.7078                 0.6873                 2.4597
 IR Inten    --     21.4833               115.5590               199.7580

                     25                     26                     27
                      A                      A                      A
 Frequencies --   1094.5347              1106.2491              1209.2907
 Red. masses --      2.0869                 1.1477                 1.4088
 Frc consts  --      1.4730                 0.8276                 1.2138
 IR Inten    --     13.0312                39.7114                20.3822

                     28                     29                     30
                      A                      A                      A
 Frequencies --   1266.9910              1342.7776              1389.9733
 Red. masses --      1.3128                 1.3209                 3.5539
 Frc consts  --      1.2416                 1.4032                 4.0454
 IR Inten    --     36.1610                 1.5963               192.3228

                     31                     32                     33
                      A                      A                      A
 Frequencies --   1441.0265              1464.6574              1490.7885
 Red. masses --      3.2561                 1.5167                 1.0406
 Frc consts  --      3.9838                 1.9171                 1.3626
 IR Inten    --    881.8526               261.8984                16.6114

                     34                     35                     36
                      A                      A                      A
 Frequencies --   1502.5825              1606.8504              1646.1828
 Red. masses --      1.0329                 1.3806                 1.0888
 Frc consts  --      1.3740                 2.1002                 1.7385
 IR Inten    --     21.3429               294.2284                50.5343

                     37                     38                     39
                      A                      A                      A
 Frequencies --   1671.2907              3063.0989              3139.7880
 Red. masses --      5.2942                 1.0352                 1.1029
 Frc consts  --      8.7128                 5.7228                 6.4058
 IR Inten    --    596.4661                58.8869                17.6272

                     40                     41                     42
                      A                      A                      A
 Frequencies --   3165.5110              3234.0700              3526.1173
 Red. masses --      1.1053                 1.0925                 1.0506
 Frc consts  --      6.5257                 6.7322                 7.6962
 IR Inten    --     14.3917                 1.4153                25.6196

                     43                     44                     45
                      A                      A                      A
 Frequencies --   3609.4499              3632.4500              3760.6106
 Red. masses --      1.0967                 1.0453                 1.1056
 Frc consts  --      8.4181                 8.1264                 9.2121
 IR Inten    --     48.8214               101.5447                97.1459

 - Thermochemistry -
 -------------------
 Temperature   298.150 Kelvin.  Pressure   1.00000 Atm.
 Atom     1 has atomic number  6 and mass  12.00000

 Molecular mass:   257.90034 amu.
 Principal axes and moments of inertia in atomic units:
                           1         2         3
     Eigenvalues --  1789.864333948.397624581.39531
           X            0.99510   0.09649   0.02149
           Y           -0.09736   0.99428   0.04386
           Z           -0.01713  -0.04574   0.99881
 This molecule is an asymmetric top.
 Rotational symmetry number  1.
 Warning -- assumption of classical behavior for rotation
           may cause significant error
 Rotational temperatures (Kelvin)      0.04839     0.02194     0.01891
 Rotational constants (GHZ):           1.00831     0.45708     0.39393
    1 imaginary frequencies ignored.
 Zero-point vibrational energy     333843.9 (Joules/Mol)
                                   79.79060 (Kcal/Mol)
 Warning -- explicit consideration of  16 degrees of freedom as
           vibrations may cause significant error
 Vibrational temperatures:     52.60    99.42   122.76   140.73   198.03
          (Kelvin)            214.56   229.66   256.71   273.68   353.64
                              407.80   561.18   593.96   767.58   791.35
                              869.76  1036.61  1072.50  1121.42  1404.23
                             1451.45  1473.79  1541.85  1574.79  1591.65
                             1739.90  1822.92  1931.96  1999.86  2073.32
                             2107.32  2144.91  2161.88  2311.90  2368.49
                             2404.61  4407.12  4517.45  4554.46  4653.11
                             5073.30  5193.19  5226.29  5410.68

 Zero-point correction=                           0.127154 (Hartree/Particle)
 Thermal correction to Energy=                    0.138902
 Thermal correction to Enthalpy=                  0.139846
 Thermal correction to Gibbs Free Energy=         0.086588
 Sum of electronic and zero-point Energies=          -5490.270531
 Sum of electronic and thermal Energies=             -5490.258784
 Sum of electronic and thermal Enthalpies=           -5490.257840
 Sum of electronic and thermal Free Energies=        -5490.311098

                     E (Thermal)             CV                S
                      KCal/Mol        Cal/Mol-Kelvin    Cal/Mol-Kelvin
 Total                   87.162             38.277            112.091
 Electronic               0.000              0.000              0.000
 Translational            0.889              2.981             42.542
 Rotational               0.889              2.981             31.849
 Vibrational             85.385             32.316             37.700
 Vibration     1          0.594              1.982              5.437
 Vibration     2          0.598              1.969              4.179
 Vibration     3          0.601              1.959              3.765
 Vibration     4          0.603              1.951              3.497
 Vibration     5          0.614              1.916              2.836
 Vibration     6          0.618              1.904              2.683
 Vibration     7          0.621              1.892              2.554
 Vibration     8          0.629              1.869              2.345
 Vibration     9          0.634              1.853              2.226
 Vibration    10          0.660              1.770              1.761
 Vibration    11          0.682              1.704              1.513
 Vibration    12          0.758              1.491              1.000
 Vibration    13          0.777              1.442              0.917
 Vibration    14          0.888              1.176              0.579
 Vibration    15          0.905              1.140              0.544
 Vibration    16          0.963              1.022              0.442

 Optimization completed.
    -- Stationary point found.
 Normal termination of Gaussian 16 at Fri Feb 12 15:07:15 2021.
