 Gaussian 16, Revision A.03,
 Gaussian 16:  ES64L-G16RevA.03 25-Dec-2016

 ----------------------------------------------------------------------
 # wB97XD def2tzvp, opt=(ts, noeigen, calcfc, maxcycles=70, maxstep=1),
  freq=noraman, scrf=(iefpcm, solvent=water)
 ----------------------------------------------------------------------

 ------------------------
 0_iteration/TS-397-0.out
 ------------------------
 Symbolic Z-matrix:
 Charge =  0 Multiplicity = 1

 SCF Done:  E(RwB97XD) =  -1301.69531116     A.U. after   15 cycles
 SCF Done:  E(RwB97XD) =  -1301.69531117     A.U. after    7 cycles
 Optimization completed.
    -- Stationary point found.
 Normal termination of Gaussian 16 at Tue Mar  2 02:08:14 2021.

 ---------------------------------------------------------------------
 #N Geom=AllCheck Guess=TCheck SCRF=Check GenChk RwB97XD/def2TZVP Freq
 ---------------------------------------------------------------------

 Structure from the checkpoint file:  "/beegfs/scratch/user/q/tla25/Gau-5616.chk"
 ------------------------
 0_iteration/TS-397-0.out
 ------------------------
 Charge =  0 Multiplicity = 1

                         Standard orientation:
 ---------------------------------------------------------------------
 Center     Atomic      Atomic             Coordinates (Angstroms)
 Number     Number       Type             X           Y           Z
 ---------------------------------------------------------------------
      1          6           0       -0.317141    0.541670   -0.345355
      2          6           0       -1.238567   -0.499217    0.072763
      3          8           0       -0.834710   -1.630287    0.375388
      4          6           0        1.039300    0.368282   -0.503986
      5          6           0        3.348869    0.048469    1.297527
      6          1           0        3.696517   -0.806616    0.722151
      7          1           0        3.771606    0.957425    0.872087
      8          1           0        3.689018   -0.053706    2.329087
      9          7           0        1.892249    0.117624    1.215631
     10          1           0        1.442252   -0.732262    1.538817
     11          1           0        1.521098    0.892298    1.752952
     12          1           0        1.617162    1.238003   -0.783266
     13         17           0        1.682486   -1.059557   -1.318950
     14         17           0       -0.853185    2.224250   -0.282575
     15          7           0       -2.555403   -0.194129    0.134527
     16          6           0       -3.539642   -1.160777    0.557796
     17          1           0       -2.858803    0.720546   -0.144622
     18          1           0       -4.512254   -0.674690    0.588043
     19          1           0       -3.592624   -2.008400   -0.129044
     20          1           0       -3.309236   -1.545112    1.553045
 ---------------------------------------------------------------------

 SCF Done:  E(RwB97XD) =  -1301.69531117     A.U. after    1 cycles

 The electronic state is 1-A.
 Alpha  occ. eigenvalues -- -101.69913-101.69381 -19.20272 -14.48261 -14.44789
 Alpha  occ. eigenvalues --  -10.39211 -10.38182 -10.31758 -10.31187 -10.30776
 Alpha  occ. eigenvalues --   -9.58488  -9.57901  -7.33143  -7.32526  -7.32276
 Alpha  occ. eigenvalues --   -7.32221  -7.31715  -7.31660  -1.13095  -1.03952
 Alpha  occ. eigenvalues --   -1.01684  -0.97913  -0.94709  -0.83247  -0.80779
 Alpha  occ. eigenvalues --   -0.78447  -0.71458  -0.66548  -0.63100  -0.59980
 Alpha  occ. eigenvalues --   -0.56862  -0.56016  -0.55208  -0.53542  -0.53059
 Alpha  occ. eigenvalues --   -0.51177  -0.48507  -0.48083  -0.47765  -0.47134
 Alpha  occ. eigenvalues --   -0.45547  -0.42356  -0.40849  -0.40238  -0.38523
 Alpha  occ. eigenvalues --   -0.33877  -0.33525  -0.27271
 Alpha virt. eigenvalues --    0.04573   0.08420   0.10171   0.12602   0.13019
 Alpha virt. eigenvalues --    0.14869   0.15088   0.16391   0.17557   0.18561
 Alpha virt. eigenvalues --    0.18834   0.19623   0.20540   0.21648   0.22811

 Mulliken charges:
               1
     1  C   -0.161387
     2  C    0.352018
     3  O   -0.545958
     4  C   -0.018891
     5  C   -0.268130
     6  H    0.146757
     7  H    0.150549
     8  H    0.150805
     9  N   -0.348103
    10  H    0.282671
    11  H    0.282427
    12  H    0.189222
    13  Cl  -0.107413
    14  Cl  -0.178833
    15  N   -0.328074
    16  C   -0.245176
    17  H    0.251267
    18  H    0.141318
    19  H    0.127275
    20  H    0.127654
 Sum of Mulliken charges =  -0.00000

 Dipole moment (field-independent basis, Debye):
    X=              3.0975    Y=              3.2018    Z=              3.8497  Tot=              5.8878
 Quadrupole moment (field-independent basis, Debye-Ang):
   XX=            -52.0397   YY=            -82.0864   ZZ=            -70.9024
   XY=              1.7504   XZ=              7.1459   YZ=              1.0561

  Exact polarizability: 192.068  -8.472 144.919   7.386   1.285 119.262
 Approx polarizability: 139.925  -9.063 127.175   4.354   0.565 103.961

 ******    1 imaginary frequencies (negative Signs) ******

                      1                      2                      3
                      A                      A                      A
 Frequencies --   -357.3651                31.2004                47.7478
 Red. masses --      6.8989                 3.8029                 4.0461
 Frc consts  --      0.5191                 0.0022                 0.0054
 IR Inten    --    924.2156                10.9555                20.8217

                      4                      5                      6
                      A                      A                      A
 Frequencies --     72.0462                83.1669               105.7913
 Red. masses --      1.4037                 1.8958                 4.6135
 Frc consts  --      0.0043                 0.0077                 0.0304
 IR Inten    --      0.7377                23.2704                 3.3954

                      7                      8                      9
                      A                      A                      A
 Frequencies --    127.2254               148.8466               172.1919
 Red. masses --      2.3516                 5.1612                 1.3316
 Frc consts  --      0.0224                 0.0674                 0.0233
 IR Inten    --      2.1053                 9.2940                 5.7219

                     10                     11                     12
                      A                      A                      A
 Frequencies --    192.7482               218.0435               270.2612
 Red. masses --      4.7524                 6.4537                 4.4517
 Frc consts  --      0.1040                 0.1808                 0.1916
 IR Inten    --     46.0971                 0.7299                13.7093

                     13                     14                     15
                      A                      A                      A
 Frequencies --    313.5194               355.2740               386.8879
 Red. masses --      4.1607                 4.3501                 1.6100
 Frc consts  --      0.2410                 0.3235                 0.1420
 IR Inten    --     32.2534                26.2362                31.6114

                     16                     17                     18
                      A                      A                      A
 Frequencies --    424.8535               466.4419               577.4087
 Red. masses --      3.6047                 7.1514                 3.9386
 Frc consts  --      0.3833                 0.9167                 0.7737
 IR Inten    --    109.9329               115.6962                 7.1492

                     19                     20                     21
                      A                      A                      A
 Frequencies --    655.6905               775.7930               785.3889
 Red. masses --      1.6010                 8.8692                 4.9480
 Frc consts  --      0.4055                 3.1450                 1.7982
 IR Inten    --     11.7259                66.0277               217.8657

                     22                     23                     24
                      A                      A                      A
 Frequencies --    821.0963               993.3490              1018.6611
 Red. masses --      3.8538                 1.9796                 1.3619
 Frc consts  --      1.5308                 1.1509                 0.8326
 IR Inten    --     19.6403                 3.6580                39.9307

                     25                     26                     27
                      A                      A                      A
 Frequencies --   1032.2247              1075.5601              1116.8484
 Red. masses --      1.2216                 3.7462                 2.3479
 Frc consts  --      0.7669                 2.5534                 1.7255
 IR Inten    --     77.8852               227.1455                 1.7522

                     28                     29                     30
                      A                      A                      A
 Frequencies --   1131.9266              1157.7362              1188.5055
 Red. masses --      1.3292                 1.2871                 1.7294
 Frc consts  --      1.0034                 1.0164                 1.4393
 IR Inten    --     67.5155                 0.1968                18.5010

                     31                     32                     33
                      A                      A                      A
 Frequencies --   1215.2412              1265.3679              1338.9068
 Red. masses --      1.4054                 1.5626                 1.5903
 Frc consts  --      1.2228                 1.4741                 1.6797
 IR Inten    --     26.2762                93.7374               126.8118

                     34                     35                     36
                      A                      A                      A
 Frequencies --   1343.3010              1443.3155              1458.0941
 Red. masses --      1.3798                 2.5844                 1.2159
 Frc consts  --      1.4669                 3.1720                 1.5230
 IR Inten    --     28.6686               625.5915                15.6782

                     37                     38                     39
                      A                      A                      A
 Frequencies --   1464.8208              1475.9784              1491.0708
 Red. masses --      1.6185                 1.0529                 1.0405
 Frc consts  --      2.0461                 1.3515                 1.3630
 IR Inten    --    156.2859                13.1916                16.9763

                     40                     41                     42
                      A                      A                      A
 Frequencies --   1502.8177              1507.5668              1560.0302
 Red. masses --      1.0342                 1.0811                 2.1137
 Frc consts  --      1.3761                 1.4476                 3.0308
 IR Inten    --     20.7338                21.6251               776.8369

                     43                     44                     45
                      A                      A                      A
 Frequencies --   1645.1921              1657.4267              3049.2750
 Red. masses --      1.0885                 8.1874                 1.0363
 Frc consts  --      1.7359                13.2515                 5.6774
 IR Inten    --     47.0499               435.9311                76.9152

                     46                     47                     48
                      A                      A                      A
 Frequencies --   3065.3559              3106.2894              3142.4422
 Red. masses --      1.0355                 1.1038                 1.1031
 Frc consts  --      5.7328                 6.2753                 6.4178
 IR Inten    --     55.9333                43.6378                17.5866

                     49                     50                     51
                      A                      A                      A
 Frequencies --   3161.1195              3170.7176              3220.8357
 Red. masses --      1.1013                 1.1050                 1.0922
 Frc consts  --      6.4841                 6.5452                 6.6759
 IR Inten    --     23.3621                13.0222                 1.4887

                     52                     53                     54
                      A                      A                      A
 Frequencies --   3518.3909              3602.4695              3685.6840
 Red. masses --      1.0512                 1.0967                 1.0780
 Frc consts  --      7.6667                 8.3854                 8.6277
 IR Inten    --     25.6748                52.6977                91.3705

 - Thermochemistry -
 -------------------
 Temperature   298.150 Kelvin.  Pressure   1.00000 Atm.
 Atom     1 has atomic number  6 and mass  12.00000

 Molecular mass:   184.01702 amu.
 Principal axes and moments of inertia in atomic units:
                           1         2         3
     Eigenvalues --  1503.118382955.736913529.76200
           X            0.99857   0.04863   0.02235
           Y           -0.04815   0.99861  -0.02150
           Z           -0.02336   0.02039   0.99952
 This molecule is an asymmetric top.
 Rotational symmetry number  1.
 Warning -- assumption of classical behavior for rotation
           may cause significant error
 Rotational temperatures (Kelvin)      0.05762     0.02930     0.02454
 Rotational constants (GHZ):           1.20066     0.61059     0.51129
    1 imaginary frequencies ignored.
 Zero-point vibrational energy     411743.5 (Joules/Mol)
                                   98.40907 (Kcal/Mol)
 Warning -- explicit consideration of  17 degrees of freedom as
           vibrations may cause significant error
 Vibrational temperatures:     44.89    68.70   103.66   119.66   152.21
          (Kelvin)            183.05   214.16   247.75   277.32   313.72
                              388.85   451.08   511.16   556.65   611.27
                              671.11   830.76   943.39  1116.19  1130.00
                             1181.37  1429.21  1465.63  1485.14  1547.49
                             1606.90  1628.59  1665.72  1709.99  1748.46
                             1820.58  1926.39  1932.71  2076.61  2097.87
                             2107.55  2123.60  2145.32  2162.22  2169.05
                             2244.54  2367.06  2384.67  4387.23  4410.36
                             4469.26  4521.27  4548.15  4561.96  4634.06
                             5062.18  5183.15  5302.88

 Zero-point correction=                           0.156825 (Hartree/Particle)
 Thermal correction to Energy=                    0.169623
 Thermal correction to Enthalpy=                  0.170567
 Thermal correction to Gibbs Free Energy=         0.115538
 Sum of electronic and zero-point Energies=          -1301.538486
 Sum of electronic and thermal Energies=             -1301.525688
 Sum of electronic and thermal Enthalpies=           -1301.524744
 Sum of electronic and thermal Free Energies=        -1301.579773

                     E (Thermal)             CV                S
                      KCal/Mol        Cal/Mol-Kelvin    Cal/Mol-Kelvin
 Total                  106.440             42.015            115.819
 Electronic               0.000              0.000              0.000
 Translational            0.889              2.981             41.536
 Rotational               0.889              2.981             31.128
 Vibrational            104.663             36.053             43.155
 Vibration     1          0.594              1.983              5.752
 Vibration     2          0.595              1.978              4.909
 Vibration     3          0.598              1.967              4.097
 Vibration     4          0.600              1.961              3.815
 Vibration     5          0.605              1.945              3.345
 Vibration     6          0.611              1.926              2.988
 Vibration     7          0.618              1.904              2.687
 Vibration     8          0.626              1.877              2.411
 Vibration     9          0.635              1.850              2.201
 Vibration    10          0.646              1.814              1.975
 Vibration    11          0.674              1.728              1.595
 Vibration    12          0.701              1.648              1.344
 Vibration    13          0.731              1.564              1.143
 Vibration    14          0.755              1.498              1.012
 Vibration    15          0.787              1.416              0.876
 Vibration    16          0.824              1.324              0.748
 Vibration    17          0.934              1.080              0.490

 Optimization completed.
    -- Stationary point found.
 Normal termination of Gaussian 16 at Tue Mar  2 02:19:47 2021.
