 Gaussian 16, Revision A.03,
 Gaussian 16:  ES64L-G16RevA.03 25-Dec-2016

 ----------------------------------------------------------------------
 # wB97XD def2tzvp, opt=(ts, noeigen, calcfc, maxcycles=70, maxstep=8),
  freq=noraman, scrf=(iefpcm, solvent=water)
 ----------------------------------------------------------------------

 ------------------------
 0_iteration/TS-306-0.out
 ------------------------
 Symbolic Z-matrix:
 Charge =  0 Multiplicity = 1

 SCF Done:  E(RwB97XD) =  -2940.04072872     A.U. after   14 cycles
 SCF Done:  E(RwB97XD) =  -2940.04003696     A.U. after   12 cycles
 SCF Done:  E(RwB97XD) =  -2940.03968421     A.U. after   12 cycles
 SCF Done:  E(RwB97XD) =  -2940.03963555     A.U. after   12 cycles
 SCF Done:  E(RwB97XD) =  -2940.04008208     A.U. after   12 cycles
 SCF Done:  E(RwB97XD) =  -2940.04113208     A.U. after   12 cycles
 SCF Done:  E(RwB97XD) =  -2940.04203623     A.U. after   12 cycles
 SCF Done:  E(RwB97XD) =  -2940.04237047     A.U. after   12 cycles
 SCF Done:  E(RwB97XD) =  -2940.04241152     A.U. after   10 cycles
 SCF Done:  E(RwB97XD) =  -2940.04243625     A.U. after   11 cycles
 SCF Done:  E(RwB97XD) =  -2940.04244307     A.U. after   10 cycles
 SCF Done:  E(RwB97XD) =  -2940.04244410     A.U. after   10 cycles
 SCF Done:  E(RwB97XD) =  -2940.04244450     A.U. after    9 cycles
 SCF Done:  E(RwB97XD) =  -2940.04244466     A.U. after    9 cycles
 SCF Done:  E(RwB97XD) =  -2940.04244484     A.U. after    9 cycles
 SCF Done:  E(RwB97XD) =  -2940.04244492     A.U. after    8 cycles
 Optimization completed.
    -- Stationary point found.
 Normal termination of Gaussian 16 at Fri Feb 12 13:40:13 2021.

 ---------------------------------------------------------------------
 #N Geom=AllCheck Guess=TCheck SCRF=Check GenChk RwB97XD/def2TZVP Freq
 ---------------------------------------------------------------------

 Structure from the checkpoint file:  "/beegfs/scratch/user/q/tla25/Gau-17725.chk"
 ------------------------
 0_iteration/TS-306-0.out
 ------------------------
 Charge =  0 Multiplicity = 1

                         Standard orientation:
 ---------------------------------------------------------------------
 Center     Atomic      Atomic             Coordinates (Angstroms)
 Number     Number       Type             X           Y           Z
 ---------------------------------------------------------------------
      1          6           0       -0.281180    0.318644    0.281943
      2          6           0       -0.860286    1.531388   -0.208454
      3          8           0       -0.205132    2.578296   -0.284382
      4          6           0        1.028910    0.143725    0.716060
      5          6           0        3.488089   -0.881111   -0.610485
      6          1           0        3.944045   -1.309415   -1.504788
      7          1           0        4.095695   -0.043289   -0.274782
      8          1           0        3.472228   -1.637982    0.173528
      9          7           0        2.123996   -0.420634   -0.854325
     10          1           0        2.096516    0.375290   -1.480040
     11          1           0        1.551686   -1.151079   -1.259818
     12          1           0        1.223051   -0.801359    1.210222
     13          6           0        1.889487    1.267795    1.219339
     14          1           0        2.859323    0.888120    1.537380
     15          1           0        2.017034    2.046612    0.474030
     16          1           0        1.401863    1.721539    2.084260
     17         35           0       -1.302432   -1.314590    0.142076
     18          6           0       -2.312533    1.549640   -0.636404
     19          1           0       -2.964527    1.135463    0.133735
     20          1           0       -2.598910    2.577820   -0.847371
     21          1           0       -2.454719    0.946499   -1.535666
 ---------------------------------------------------------------------

 SCF Done:  E(RwB97XD) =  -2940.04244492     A.U. after    1 cycles

 The electronic state is 1-A.
 Alpha  occ. eigenvalues -- -483.11843 -62.66691 -56.45783 -56.45462 -56.45457
 Alpha  occ. eigenvalues --  -19.20694 -14.47156 -10.35890 -10.34395 -10.31533
 Alpha  occ. eigenvalues --  -10.30225 -10.27856 -10.27147  -8.80811  -6.62891
 Alpha  occ. eigenvalues --   -6.61864  -6.61848  -2.73290  -2.72992  -2.72979
 Alpha  occ. eigenvalues --   -2.72148  -2.72148  -1.11488  -1.02743  -0.92732
 Alpha  occ. eigenvalues --   -0.86644  -0.82825  -0.78732  -0.77072  -0.70558
 Alpha  occ. eigenvalues --   -0.62302  -0.59879  -0.56069  -0.54556  -0.54342
 Alpha  occ. eigenvalues --   -0.53415  -0.51667  -0.50205  -0.49050  -0.47618
 Alpha  occ. eigenvalues --   -0.47215  -0.45320  -0.43872  -0.43662  -0.41352
 Alpha  occ. eigenvalues --   -0.38303  -0.36852  -0.32059  -0.27374
 Alpha virt. eigenvalues --    0.04110   0.07916   0.10331   0.13055   0.14128
 Alpha virt. eigenvalues --    0.14463   0.14681   0.16364   0.17953   0.18909
 Alpha virt. eigenvalues --    0.19622   0.20227   0.20403   0.21175   0.22028

 Mulliken charges:
               1
     1  C   -0.124817
     2  C    0.232069
     3  O   -0.510638
     4  C   -0.056651
     5  C   -0.281949
     6  H    0.149073
     7  H    0.155287
     8  H    0.148708
     9  N   -0.374403
    10  H    0.279744
    11  H    0.275011
    12  H    0.165333
    13  C   -0.340220
    14  H    0.141069
    15  H    0.141651
    16  H    0.143970
    17  Br  -0.179201
    18  C   -0.366220
    19  H    0.138563
    20  H    0.123998
    21  H    0.139623
 Sum of Mulliken charges =  -0.00000

 Dipole moment (field-independent basis, Debye):
    X=              6.2016    Y=             -4.0577    Z=             -1.5422  Tot=              7.5699
 Quadrupole moment (field-independent basis, Debye-Ang):
   XX=            -53.2715   YY=            -81.7445   ZZ=            -64.7252
   XY=             -4.7128   XZ=             -2.3396   YZ=              2.7042

  Exact polarizability: 180.431  -9.471 160.689   1.291   0.322 116.145
 Approx polarizability: 131.648  -1.421 132.001   0.068  -0.717 101.174

 ******    1 imaginary frequencies (negative Signs) ******

                      1                      2                      3
                      A                      A                      A
 Frequencies --   -325.0328                40.6318                66.2354
 Red. masses --      5.9013                 3.8340                 3.2484
 Frc consts  --      0.3673                 0.0037                 0.0084
 IR Inten    --    808.2442                 2.4923                 6.8339

                      4                      5                      6
                      A                      A                      A
 Frequencies --     77.4998               115.2728               148.2814
 Red. masses --      2.1927                 4.2902                 1.0463
 Frc consts  --      0.0078                 0.0336                 0.0136
 IR Inten    --      9.4647                16.3011                 1.0662

                      7                      8                      9
                      A                      A                      A
 Frequencies --    160.2813               178.0675               216.6086
 Red. masses --      1.2361                 2.3139                 4.3782
 Frc consts  --      0.0187                 0.0432                 0.1210
 IR Inten    --      1.6711                24.7150                 1.8050

                     10                     11                     12
                      A                      A                      A
 Frequencies --    231.5857               249.7049               301.7058
 Red. masses --      2.5451                 1.3099                 2.9812
 Frc consts  --      0.0804                 0.0481                 0.1599
 IR Inten    --      0.7163                 0.9816                 7.5444

                     13                     14                     15
                      A                      A                      A
 Frequencies --    370.5576               401.3445               424.1563
 Red. masses --      4.9875                 3.2220                 4.0846
 Frc consts  --      0.4035                 0.3058                 0.4330
 IR Inten    --      4.5545                 9.4888               116.4092

                     16                     17                     18
                      A                      A                      A
 Frequencies --    509.9127               617.5880               621.7476
 Red. masses --      3.4119                 1.3882                 2.6005
 Frc consts  --      0.5227                 0.3120                 0.5923
 IR Inten    --     17.3020                27.8878                56.5239

                     19                     20                     21
                      A                      A                      A
 Frequencies --    694.4917               925.2540               949.6566
 Red. masses --      3.1588                 4.7648                 1.7152
 Frc consts  --      0.8976                 2.4034                 0.9114
 IR Inten    --     21.2933                75.7983                29.9219

                     22                     23                     24
                      A                      A                      A
 Frequencies --    982.5740              1000.7565              1019.9201
 Red. masses --      1.2984                 1.2206                 1.1675
 Frc consts  --      0.7386                 0.7202                 0.7156
 IR Inten    --     86.3034               141.8852                44.4129

                     25                     26                     27
                      A                      A                      A
 Frequencies --   1039.6643              1050.5845              1074.8850
 Red. masses --      1.6612                 1.5882                 3.6115
 Frc consts  --      1.0579                 1.0328                 2.4585
 IR Inten    --     10.9871                39.5024               155.5081

                     28                     29                     30
                      A                      A                      A
 Frequencies --   1122.0617              1164.9988              1208.0692
 Red. masses --      2.1128                 1.3257                 1.4300
 Frc consts  --      1.5673                 1.0601                 1.2296
 IR Inten    --     25.0892               161.3351                14.6754

                     31                     32                     33
                      A                      A                      A
 Frequencies --   1237.5465              1344.7736              1374.6713
 Red. masses --      1.9491                 1.3223                 1.3923
 Frc consts  --      1.7588                 1.4089                 1.5502
 IR Inten    --     11.5593                 0.7523               101.4673

                     34                     35                     36
                      A                      A                      A
 Frequencies --   1402.0663              1411.5769              1446.1930
 Red. masses --      1.4423                 1.7374                 1.5710
 Frc consts  --      1.6704                 2.0397                 1.9359
 IR Inten    --     52.3480               423.1535               330.6052

                     37                     38                     39
                      A                      A                      A
 Frequencies --   1457.7101              1467.0078              1472.3103
 Red. masses --      1.0963                 1.0585                 1.0749
 Frc consts  --      1.3726                 1.3421                 1.3728
 IR Inten    --     40.3686                15.4881                10.2040

                     40                     41                     42
                      A                      A                      A
 Frequencies --   1472.8639              1491.1438              1497.2052
 Red. masses --      1.3412                 1.1960                 1.1123
 Frc consts  --      1.7143                 1.5668                 1.4690
 IR Inten    --    190.2564               126.3719                44.7389

                     43                     44                     45
                      A                      A                      A
 Frequencies --   1513.0185              1646.1115              1651.5449
 Red. masses --      1.0420                 1.2426                 4.2236
 Frc consts  --      1.4055                 1.9839                 6.7875
 IR Inten    --     28.6628                94.4286               342.4289

                     46                     47                     48
                      A                      A                      A
 Frequencies --   3060.3387              3060.5913              3072.6165
 Red. masses --      1.0367                 1.0358                 1.0395
 Frc consts  --      5.7206                 5.7167                 5.7820
 IR Inten    --     23.0054                50.2799                21.2539

                     49                     50                     51
                      A                      A                      A
 Frequencies --   3130.8118              3133.3404              3140.6267
 Red. masses --      1.0995                 1.1032                 1.0993
 Frc consts  --      6.3500                 6.3814                 6.3887
 IR Inten    --     12.4144                23.3505                28.3051

                     52                     53                     54
                      A                      A                      A
 Frequencies --   3163.7807              3164.2781              3172.6557
 Red. masses --      1.1040                 1.1041                 1.0928
 Frc consts  --      6.5107                 6.5132                 6.4810
 IR Inten    --     28.0173                20.8712                 6.1989

                     55                     56                     57
                      A                      A                      A
 Frequencies --   3190.9310              3533.2644              3615.1437
 Red. masses --      1.0991                 1.0506                 1.0962
 Frc consts  --      6.5933                 7.7275                 8.4410
 IR Inten    --     12.3156                15.6318                39.3642

 - Thermochemistry -
 -------------------
 Temperature   298.150 Kelvin.  Pressure   1.00000 Atm.
 Atom     1 has atomic number  6 and mass  12.00000

 Molecular mass:   193.01023 amu.
 Principal axes and moments of inertia in atomic units:
                           1         2         3
     Eigenvalues --  1484.728052244.602303261.47310
           X            0.99023  -0.13914   0.00926
           Y            0.13895   0.99014   0.01801
           Z           -0.01167  -0.01655   0.99979
 This molecule is an asymmetric top.
 Rotational symmetry number  1.
 Warning -- assumption of classical behavior for rotation
           may cause significant error
 Rotational temperatures (Kelvin)      0.05834     0.03859     0.02656
 Rotational constants (GHZ):           1.21554     0.80404     0.55335
    1 imaginary frequencies ignored.
 Zero-point vibrational energy     462286.2 (Joules/Mol)
                                  110.48906 (Kcal/Mol)
 Warning -- explicit consideration of  16 degrees of freedom as
           vibrations may cause significant error
 Vibrational temperatures:     58.46    95.30   111.50   165.85   213.34
          (Kelvin)            230.61   256.20   311.65   333.20   359.27
                              434.09   533.15   577.45   610.27   733.65
                              888.57   894.56   999.22  1331.23  1366.34
                             1413.70  1439.87  1467.44  1495.85  1511.56
                             1546.52  1614.40  1676.17  1738.14  1780.55
                             1934.83  1977.85  2017.26  2030.94  2080.75
                             2097.32  2110.70  2118.33  2119.12  2145.42
                             2154.14  2176.90  2368.39  2376.20  4403.14
                             4403.51  4420.81  4504.54  4508.18  4518.66
                             4551.97  4552.69  4564.74  4591.04  5083.58
                             5201.39

 Zero-point correction=                           0.176076 (Hartree/Particle)
 Thermal correction to Energy=                    0.187881
 Thermal correction to Enthalpy=                  0.188825
 Thermal correction to Gibbs Free Energy=         0.136816
 Sum of electronic and zero-point Energies=          -2939.866369
 Sum of electronic and thermal Energies=             -2939.854564
 Sum of electronic and thermal Enthalpies=           -2939.853620
 Sum of electronic and thermal Free Energies=        -2939.905629

                     E (Thermal)             CV                S
                      KCal/Mol        Cal/Mol-Kelvin    Cal/Mol-Kelvin
 Total                  117.897             40.042            109.461
 Electronic               0.000              0.000              0.000
 Translational            0.889              2.981             41.678
 Rotational               0.889              2.981             30.764
 Vibrational            116.119             34.081             37.019
 Vibration     1          0.594              1.981              5.228
 Vibration     2          0.598              1.970              4.262
 Vibration     3          0.599              1.964              3.953
 Vibration     4          0.608              1.937              3.178
 Vibration     5          0.618              1.905              2.694
 Vibration     6          0.622              1.891              2.546
 Vibration     7          0.629              1.869              2.349
 Vibration     8          0.645              1.816              1.987
 Vibration     9          0.653              1.793              1.867
 Vibration    10          0.662              1.763              1.733
 Vibration    11          0.694              1.670              1.407
 Vibration    12          0.743              1.533              1.077
 Vibration    13          0.767              1.467              0.958
 Vibration    14          0.786              1.418              0.878
 Vibration    15          0.865              1.228              0.634
 Vibration    16          0.977              0.995              0.420

 Optimization completed.
    -- Stationary point found.
 Normal termination of Gaussian 16 at Fri Feb 12 13:52:10 2021.
