 Gaussian 16, Revision A.03,
 Gaussian 16:  ES64L-G16RevA.03 25-Dec-2016

 ----------------------------------------------------------------------
 # wB97XD def2tzvp, opt=(ts, noeigen, calcfc, maxcycles=70, maxstep=1),
  freq=noraman, scrf=(iefpcm, solvent=water)
 ----------------------------------------------------------------------

 ------------------------
 0_iteration/TS-392-0.out
 ------------------------
 Symbolic Z-matrix:
 Charge =  0 Multiplicity = 1

 SCF Done:  E(RwB97XD) =  -3552.06200407     A.U. after   15 cycles
 SCF Done:  E(RwB97XD) =  -3552.06200408     A.U. after    7 cycles
 Optimization completed.
    -- Stationary point found.
 Normal termination of Gaussian 16 at Tue Mar  2 03:00:49 2021.

 ---------------------------------------------------------------------
 #N Geom=AllCheck Guess=TCheck SCRF=Check GenChk RwB97XD/def2TZVP Freq
 ---------------------------------------------------------------------

 Structure from the checkpoint file:  "/beegfs/scratch/user/q/tla25/Gau-15514.chk"
 ------------------------
 0_iteration/TS-392-0.out
 ------------------------
 Charge =  0 Multiplicity = 1

                         Standard orientation:
 ---------------------------------------------------------------------
 Center     Atomic      Atomic             Coordinates (Angstroms)
 Number     Number       Type             X           Y           Z
 ---------------------------------------------------------------------
      1          6           0        0.945935   -0.270975    0.243654
      2          6           0       -0.038082   -1.219897   -0.202644
      3          8           0        0.241039   -2.363644   -0.548654
      4          6           0        0.796109    0.933783    0.899748
      5          6           0        1.331731    2.283429   -1.598635
      6          1           0        1.043869    2.992136   -2.375625
      7          1           0        2.397695    2.375986   -1.402267
      8          1           0        1.134395    1.269839   -1.952586
      9          7           0        0.593823    2.500413   -0.362553
     10          1           0        0.898088    3.334151    0.125887
     11          1           0       -0.403019    2.582275   -0.525186
     12          1           0        1.684620    1.373025    1.325581
     13         17           0       -0.589584    1.291936    1.909104
     14         35           0        2.769758   -0.782804   -0.043949
     15          6           0       -1.475893   -0.789561   -0.270229
     16          6           0       -2.428477   -1.459916    0.488790
     17          6           0       -3.762973   -1.096942    0.407451
     18          6           0       -4.158044   -0.079878   -0.452223
     19          6           0       -3.214345    0.568599   -1.235019
     20          6           0       -1.875793    0.217526   -1.139563
     21          1           0       -2.118444   -2.255018    1.155377
     22          1           0       -4.498409   -1.609695    1.014317
     23          1           0       -5.201624    0.200407   -0.517129
     24          1           0       -3.518835    1.348373   -1.921322
     25          1           0       -1.143015    0.712980   -1.764490
 ---------------------------------------------------------------------

 SCF Done:  E(RwB97XD) =  -3552.06200408     A.U. after    1 cycles

 The electronic state is 1-A.
 Alpha  occ. eigenvalues -- -483.12646-101.71095 -62.67477 -56.46591 -56.46238
 Alpha  occ. eigenvalues --  -56.46236 -19.22771 -14.48073 -10.40245 -10.37736
 Alpha  occ. eigenvalues --  -10.32569 -10.31779 -10.30467 -10.29849 -10.29619
 Alpha  occ. eigenvalues --  -10.29560 -10.29491 -10.29433  -9.59666  -8.81586
 Alpha  occ. eigenvalues --   -7.34332  -7.33447  -7.33393  -6.63731  -6.62598
 Alpha  occ. eigenvalues --   -6.62594  -2.74120  -2.73787  -2.73783  -2.72867
 Alpha  occ. eigenvalues --   -2.72867  -1.13769  -1.03860  -0.98777  -0.97134
 Alpha  occ. eigenvalues --   -0.91925  -0.87177  -0.85755  -0.82116  -0.78923
 Alpha  occ. eigenvalues --   -0.75944  -0.71264  -0.70295  -0.63992  -0.63518
 Alpha  occ. eigenvalues --   -0.59950  -0.57660  -0.57288  -0.56418  -0.55514
 Alpha  occ. eigenvalues --   -0.54228  -0.53491  -0.51596  -0.51540  -0.49130
 Alpha  occ. eigenvalues --   -0.48060  -0.47817  -0.46411  -0.45938  -0.44487
 Alpha  occ. eigenvalues --   -0.43231  -0.41040  -0.40020  -0.38652  -0.37138
 Alpha  occ. eigenvalues --   -0.34986  -0.34307  -0.32945  -0.29250
 Alpha virt. eigenvalues --    0.00765   0.04590   0.04785   0.06012   0.09437
 Alpha virt. eigenvalues --    0.11669   0.13142   0.13809   0.14578   0.15187
 Alpha virt. eigenvalues --    0.16269   0.17179   0.17896   0.18292   0.19253

 Mulliken charges:
               1
     1  C   -0.222229
     2  C    0.231123
     3  O   -0.445770
     4  C    0.042084
     5  C   -0.295504
     6  H    0.160566
     7  H    0.162662
     8  H    0.150599
     9  N   -0.382184
    10  H    0.289217
    11  H    0.279461
    12  H    0.205229
    13  Cl  -0.073224
    14  Br  -0.128594
    15  C    0.157321
    16  C   -0.210354
    17  C   -0.140196
    18  C   -0.142638
    19  C   -0.142476
    20  C   -0.259190
    21  H    0.144430
    22  H    0.146532
    23  H    0.147377
    24  H    0.144452
    25  H    0.181306
 Sum of Mulliken charges =  -0.00000

 Dipole moment (field-independent basis, Debye):
    X=             -1.8722    Y=             11.0038    Z=             -0.5085  Tot=             11.1735
 Quadrupole moment (field-independent basis, Debye-Ang):
   XX=            -94.7349   YY=            -95.9283   ZZ=           -100.1544
   XY=              8.6442   XZ=             -0.0617   YZ=            -10.3398

  Exact polarizability: 262.671  -8.572 246.268 -13.552 -14.887 183.098
 Approx polarizability: 205.328  -9.071 204.496 -11.320 -10.898 160.292

 ******    1 imaginary frequencies (negative Signs) ******

                      1                      2                      3
                      A                      A                      A
 Frequencies --   -342.0732                38.5478                47.1972
 Red. masses --      5.9598                 6.9510                 4.9170
 Frc consts  --      0.4109                 0.0061                 0.0065
 IR Inten    --    828.1011                 3.4779                 3.7710

                      4                      5                      6
                      A                      A                      A
 Frequencies --     74.2102                77.8403               101.9301
 Red. masses --      3.4235                 5.4760                 4.4372
 Frc consts  --      0.0111                 0.0195                 0.0272
 IR Inten    --      0.5408                 4.0685                 4.4069

                      7                      8                      9
                      A                      A                      A
 Frequencies --    135.2128               163.0324               181.6838
 Red. masses --      3.2030                 9.1145                 6.3362
 Frc consts  --      0.0345                 0.1427                 0.1232
 IR Inten    --     11.5737                 2.7952                 1.4200

                     10                     11                     12
                      A                      A                      A
 Frequencies --    191.6653               213.1531               230.5690
 Red. masses --      5.3737                 1.1781                 6.2846
 Frc consts  --      0.1163                 0.0315                 0.1968
 IR Inten    --      4.3286                 2.2337                10.7210

                     13                     14                     15
                      A                      A                      A
 Frequencies --    267.6751               287.6644               325.1357
 Red. masses --      4.7362                 4.3991                 9.8698
 Frc consts  --      0.1999                 0.2145                 0.6147
 IR Inten    --      6.0112                 9.4507                28.6607

                     16                     17                     18
                      A                      A                      A
 Frequencies --    373.2486               420.3552               446.6345
 Red. masses --      5.7005                 2.9455                 3.6662
 Frc consts  --      0.4679                 0.3066                 0.4309
 IR Inten    --     23.2341                 1.0955                95.3743

                     19                     20                     21
                      A                      A                      A
 Frequencies --    540.0387               587.3552               635.5659
 Red. masses --      3.4880                 2.2590                 6.4041
 Frc consts  --      0.5993                 0.4592                 1.5242
 IR Inten    --     10.7944                15.0322                 0.3727

                     22                     23                     24
                      A                      A                      A
 Frequencies --    647.8794               726.7104               737.7243
 Red. masses --      3.3920                 2.5467                 2.0632
 Frc consts  --      0.8389                 0.7924                 0.6616
 IR Inten    --    104.9720                37.2377                79.4169

                     25                     26                     27
                      A                      A                      A
 Frequencies --    758.4176               768.9652               815.4310
 Red. masses --      4.7223                 7.4728                 3.7097
 Frc consts  --      1.6004                 2.6034                 1.4533
 IR Inten    --     84.5520                71.9227               117.8528

                     28                     29                     30
                      A                      A                      A
 Frequencies --    851.6060               883.5999               965.7668
 Red. masses --      4.3481                 1.2585                 1.4375
 Frc consts  --      1.8579                 0.5789                 0.7899
 IR Inten    --     26.2548                 1.5164                16.1185

                     31                     32                     33
                      A                      A                      A
 Frequencies --    996.4568              1004.8835              1015.6412
 Red. masses --      1.1153                 1.0977                 1.4696
 Frc consts  --      0.6525                 0.6531                 0.8931
 IR Inten    --     71.2416                43.9186                 3.9967

                     34                     35                     36
                      A                      A                      A
 Frequencies --   1027.9019              1033.7473              1057.4374
 Red. masses --      3.4159                 1.4225                 2.4247
 Frc consts  --      2.1265                 0.8956                 1.5974
 IR Inten    --      1.4301                 1.0235                16.2691

                     37                     38                     39
                      A                      A                      A
 Frequencies --   1074.0012              1103.3021              1110.7674
 Red. masses --      2.2989                 1.5712                 1.6165
 Frc consts  --      1.5623                 1.1268                 1.1751
 IR Inten    --    115.4713                63.3199                 8.1056

                     40                     41                     42
                      A                      A                      A
 Frequencies --   1122.1805              1184.4612              1203.9282
 Red. masses --      2.2316                 1.1388                 1.4032
 Frc consts  --      1.6557                 0.9413                 1.1983
 IR Inten    --      2.9838                 0.2869                12.9172

                     43                     44                     45
                      A                      A                      A
 Frequencies --   1206.5965              1267.2663              1322.7594
 Red. masses --      1.1251                 1.9950                 4.0437
 Frc consts  --      0.9651                 1.8877                 4.1686
 IR Inten    --      2.0097                47.7168                10.7808

                     46                     47                     48
                      A                      A                      A
 Frequencies --   1339.0067              1357.8339              1375.3651
 Red. masses --      1.3403                 1.5134                 2.1542
 Frc consts  --      1.4159                 1.6440                 2.4009
 IR Inten    --      6.5907                 8.8461               205.5831

                     49                     50                     51
                      A                      A                      A
 Frequencies --   1432.5393              1470.0874              1490.3972
 Red. masses --      3.8350                 1.3787                 2.2310
 Frc consts  --      4.6370                 1.7556                 2.9198
 IR Inten    --    968.1786               122.6209                24.5565

                     52                     53                     54
                      A                      A                      A
 Frequencies --   1494.7387              1506.0399              1541.1850
 Red. masses --      1.0416                 1.0333                 2.3238
 Frc consts  --      1.3711                 1.3808                 3.2521
 IR Inten    --     11.5047                17.6003                 6.0252

                     55                     56                     57
                      A                      A                      A
 Frequencies --   1649.8751              1651.0424              1669.5246
 Red. masses --      3.6834                 1.2313                11.9784
 Frc consts  --      5.9075                 1.9776                19.6713
 IR Inten    --     14.7329                92.5901               632.4735

                     58                     59                     60
                      A                      A                      A
 Frequencies --   1674.7073              3060.0326              3131.2711
 Red. masses --      5.8697                 1.0341                 1.1043
 Frc consts  --      9.6994                 5.7054                 6.3793
 IR Inten    --      1.1139                29.1571                19.9104

                     61                     62                     63
                      A                      A                      A
 Frequencies --   3164.0541              3196.7995              3202.4709
 Red. masses --      1.1045                 1.0858                 1.0878
 Frc consts  --      6.5150                 6.5379                 6.5730
 IR Inten    --     15.0331                 1.0329                 0.0156

                     64                     65                     66
                      A                      A                      A
 Frequencies --   3209.7491              3216.7871              3225.0772
 Red. masses --      1.0915                 1.0952                 1.0989
 Frc consts  --      6.6256                 6.6770                 6.7340
 IR Inten    --     11.4252                35.5928                13.9856

                     67                     68                     69
                      A                      A                      A
 Frequencies --   3237.2717              3528.0999              3612.2418
 Red. masses --      1.0925                 1.0507                 1.0960
 Frc consts  --      6.7456                 7.7056                 8.4260
 IR Inten    --      2.0493                49.1347                55.6807

 - Thermochemistry -
 -------------------
 Temperature   298.150 Kelvin.  Pressure   1.00000 Atm.
 Atom     1 has atomic number  6 and mass  12.00000

 Molecular mass:   274.97125 amu.
 Principal axes and moments of inertia in atomic units:
                           1         2         3
     Eigenvalues --  2541.623155776.102346614.73236
           X            0.99913   0.04165  -0.00131
           Y           -0.04157   0.99420  -0.09918
           Z           -0.00283   0.09915   0.99507
 This molecule is an asymmetric top.
 Rotational symmetry number  1.
 Warning -- assumption of classical behavior for rotation
           may cause significant error
 Rotational temperatures (Kelvin)      0.03408     0.01500     0.01309
 Rotational constants (GHZ):           0.71007     0.31245     0.27284
    1 imaginary frequencies ignored.
 Zero-point vibrational energy     506393.3 (Joules/Mol)
                                  121.03090 (Kcal/Mol)
 Warning -- explicit consideration of  19 degrees of freedom as
           vibrations may cause significant error
 Vibrational temperatures:     55.46    67.91   106.77   111.99   146.65
          (Kelvin)            194.54   234.57   261.40   275.76   306.68
                              331.74   385.12   413.88   467.80   537.02
                              604.80   642.61   777.00   845.07   914.44
                              932.15  1045.57  1061.42  1091.19  1106.37
                             1173.22  1225.27  1271.30  1389.52  1433.68
                             1445.80  1461.28  1478.92  1487.33  1521.42
                             1545.25  1587.41  1598.15  1614.57  1704.18
                             1732.18  1736.02  1823.31  1903.16  1926.53
                             1953.62  1978.84  2061.10  2115.13  2144.35
                             2150.60  2166.86  2217.42  2373.80  2375.48
                             2402.07  2409.53  4402.70  4505.20  4552.37
                             4599.48  4607.64  4618.11  4628.24  4640.17
                             4657.71  5076.15  5197.21

 Zero-point correction=                           0.192875 (Hartree/Particle)
 Thermal correction to Energy=                    0.207093
 Thermal correction to Enthalpy=                  0.208037
 Thermal correction to Gibbs Free Energy=         0.149677
 Sum of electronic and zero-point Energies=          -3551.869129
 Sum of electronic and thermal Energies=             -3551.854911
 Sum of electronic and thermal Enthalpies=           -3551.853967
 Sum of electronic and thermal Free Energies=        -3551.912328

                     E (Thermal)             CV                S
                      KCal/Mol        Cal/Mol-Kelvin    Cal/Mol-Kelvin
 Total                  129.953             50.680            122.830
 Electronic               0.000              0.000              0.000
 Translational            0.889              2.981             42.733
 Rotational               0.889              2.981             32.940
 Vibrational            128.175             44.718             47.157
 Vibration     1          0.594              1.981              5.332
 Vibration     2          0.595              1.979              4.932
 Vibration     3          0.599              1.966              4.038
 Vibration     4          0.599              1.964              3.945
 Vibration     5          0.604              1.948              3.417
 Vibration     6          0.613              1.918              2.871
 Vibration     7          0.623              1.888              2.514
 Vibration     8          0.630              1.865              2.311
 Vibration     9          0.634              1.851              2.212
 Vibration    10          0.644              1.821              2.017
 Vibration    11          0.652              1.794              1.875
 Vibration    12          0.673              1.733              1.611
 Vibration    13          0.685              1.697              1.488
 Vibration    14          0.709              1.625              1.284
 Vibration    15          0.745              1.527              1.066
 Vibration    16          0.783              1.426              0.891
 Vibration    17          0.806              1.368              0.806
 Vibration    18          0.895              1.162              0.565
 Vibration    19          0.944              1.059              0.472

 Optimization completed.
    -- Stationary point found.
 Normal termination of Gaussian 16 at Tue Mar  2 03:47:10 2021.
