 Gaussian 16, Revision A.03,
 Gaussian 16:  ES64L-G16RevA.03 25-Dec-2016

 ----------------------------------------------------------------------
 # wB97XD def2tzvp, opt=(ts, noeigen, calcfc, maxcycles=70, maxstep=1),
  freq=noraman, scrf=(iefpcm, solvent=water)
 ----------------------------------------------------------------------

 ------------------------
 0_iteration/TS-325-0.out
 ------------------------
 Symbolic Z-matrix:
 Charge =  0 Multiplicity = 1

 SCF Done:  E(RwB97XD) =  -3187.14590797     A.U. after   15 cycles
 SCF Done:  E(RwB97XD) =  -3187.14590801     A.U. after    7 cycles
 Optimization completed.
    -- Stationary point found.
 Normal termination of Gaussian 16 at Tue Mar  2 03:33:11 2021.

 ---------------------------------------------------------------------
 #N Geom=AllCheck Guess=TCheck SCRF=Check GenChk RwB97XD/def2TZVP Freq
 ---------------------------------------------------------------------

 Structure from the checkpoint file:  "/beegfs/scratch/user/q/tla25/Gau-32262.chk"
 ------------------------
 0_iteration/TS-325-0.out
 ------------------------
 Charge =  0 Multiplicity = 1

                         Standard orientation:
 ---------------------------------------------------------------------
 Center     Atomic      Atomic             Coordinates (Angstroms)
 Number     Number       Type             X           Y           Z
 ---------------------------------------------------------------------
      1          6           0        0.232915    0.164838   -0.085669
      2          6           0       -0.051443    1.582661    0.136824
      3          8           0       -1.093747    1.975685    0.682740
      4          6           0       -0.801629   -0.742698   -0.071816
      5          6           0       -2.585841   -1.744844    2.148164
      6          1           0       -2.809659   -1.670651    3.214271
      7          1           0       -3.477340   -1.482016    1.582328
      8          1           0       -2.311145   -2.772609    1.914412
      9          7           0       -1.495785   -0.857169    1.761423
     10          1           0       -1.712245    0.128846    1.880625
     11          1           0       -0.642618   -1.057983    2.268533
     12          1           0       -0.566978   -1.791290   -0.182879
     13         35           0       -2.483148   -0.409590   -0.988232
     14          6           0        1.614343   -0.366755   -0.099479
     15          6           0        2.595230    0.110344    0.779473
     16          6           0        3.879488   -0.409577    0.776753
     17          6           0        4.220780   -1.436654   -0.093006
     18          6           0        3.262042   -1.927695   -0.967324
     19          6           0        1.983334   -1.391675   -0.978110
     20          1           0        2.342586    0.895286    1.481944
     21          1           0        4.614772   -0.019391    1.469975
     22          1           0        5.222784   -1.846408   -0.091062
     23          1           0        3.514292   -2.722251   -1.659015
     24          1           0        1.257642   -1.763908   -1.691726
     25          7           0        0.876859    2.475988   -0.278097
     26          6           0        0.759799    3.890407   -0.019042
     27          1           0        1.696326    2.136310   -0.747339
     28          1           0        0.648980    4.086742    1.049344
     29          1           0        1.661793    4.384777   -0.373260
     30          1           0       -0.100654    4.322852   -0.533822
 ---------------------------------------------------------------------

 SCF Done:  E(RwB97XD) =  -3187.14590801     A.U. after    1 cycles

 The electronic state is 1-A.
 Alpha  occ. eigenvalues -- -483.12409 -62.67262 -56.46368 -56.46031 -56.46015
 Alpha  occ. eigenvalues --  -19.20333 -14.47214 -14.44731 -10.37715 -10.37652
 Alpha  occ. eigenvalues --  -10.31349 -10.30732 -10.30258 -10.28739 -10.28730
 Alpha  occ. eigenvalues --  -10.28429 -10.28425 -10.28415 -10.26585  -8.81375
 Alpha  occ. eigenvalues --   -6.63496  -6.62423  -6.62371  -2.73888  -2.73587
 Alpha  occ. eigenvalues --   -2.73546  -2.72678  -2.72677  -1.12893  -1.02742
 Alpha  occ. eigenvalues --   -1.01433  -0.96581  -0.92240  -0.87397  -0.84740
 Alpha  occ. eigenvalues --   -0.82090  -0.80181  -0.77958  -0.71590  -0.69737
 Alpha  occ. eigenvalues --   -0.68764  -0.66099  -0.62457  -0.61585  -0.58514
 Alpha  occ. eigenvalues --   -0.56094  -0.55616  -0.55084  -0.53569  -0.53080
 Alpha  occ. eigenvalues --   -0.52682  -0.51751  -0.50464  -0.49759  -0.47616
 Alpha  occ. eigenvalues --   -0.47482  -0.47235  -0.45939  -0.45836  -0.44073
 Alpha  occ. eigenvalues --   -0.42675  -0.42251  -0.37288  -0.36620  -0.35327
 Alpha  occ. eigenvalues --   -0.33918  -0.33221  -0.33070  -0.25979
 Alpha virt. eigenvalues --    0.03415   0.05408   0.06327   0.07375   0.10713
 Alpha virt. eigenvalues --    0.12518   0.13792   0.14311   0.14692   0.15737
 Alpha virt. eigenvalues --    0.16365   0.17129   0.17489   0.18145   0.19061

 Mulliken charges:
               1
     1  C   -0.149825
     2  C    0.354416
     3  O   -0.556455
     4  C   -0.036622
     5  C   -0.265692
     6  H    0.146126
     7  H    0.144369
     8  H    0.147519
     9  N   -0.337126
    10  H    0.272447
    11  H    0.274582
    12  H    0.188416
    13  Br  -0.135251
    14  C    0.118970
    15  C   -0.279636
    16  C   -0.131159
    17  C   -0.164600
    18  C   -0.134811
    19  C   -0.273537
    20  H    0.149063
    21  H    0.139721
    22  H    0.141425
    23  H    0.139433
    24  H    0.152192
    25  N   -0.311570
    26  C   -0.253564
    27  H    0.266106
    28  H    0.127330
    29  H    0.141228
    30  H    0.126503
 Sum of Mulliken charges =  -0.00000

 Dipole moment (field-independent basis, Debye):
    X=              2.3762    Y=             -3.0887    Z=              3.3582  Tot=              5.1443
 Quadrupole moment (field-independent basis, Debye-Ang):
   XX=            -98.8597   YY=            -95.3285   ZZ=            -94.8697
   XY=             11.4526   XZ=             -6.0172   YZ=             -5.2112

  Exact polarizability: 310.662   2.796 232.035  -5.326  10.602 208.291
 Approx polarizability: 230.246  -1.667 185.524  -0.838  11.680 176.388

 ******    1 imaginary frequencies (negative Signs) ******

                      1                      2                      3
                      A                      A                      A
 Frequencies --   -372.3424                37.7915                42.1011
 Red. masses --      6.9558                 3.8457                 4.1145
 Frc consts  --      0.5682                 0.0032                 0.0043
 IR Inten    --    887.2450                 5.3052                10.1440

                      4                      5                      6
                      A                      A                      A
 Frequencies --     59.3590                61.4819                75.5062
 Red. masses --      3.3121                 2.2289                 3.0422
 Frc consts  --      0.0069                 0.0050                 0.0102
 IR Inten    --      3.1143                 1.8311                 6.3846

                      7                      8                      9
                      A                      A                      A
 Frequencies --     90.4300               109.7390               119.9714
 Red. masses --      2.2433                 1.9356                 3.0160
 Frc consts  --      0.0108                 0.0137                 0.0256
 IR Inten    --      2.5831                 6.4272                 8.8523

                     10                     11                     12
                      A                      A                      A
 Frequencies --    150.9016               157.4955               178.8957
 Red. masses --      3.2740                 3.3920                 1.6362
 Frc consts  --      0.0439                 0.0496                 0.0309
 IR Inten    --      3.1584                13.4853                16.8610

                     13                     14                     15
                      A                      A                      A
 Frequencies --    224.1880               241.3177               275.1077
 Red. masses --      5.0014                 4.7799                 4.1668
 Frc consts  --      0.1481                 0.1640                 0.1858
 IR Inten    --      0.8936                 8.8713                96.9130

                     16                     17                     18
                      A                      A                      A
 Frequencies --    302.5936               322.7109               400.4422
 Red. masses --      3.4077                 4.1570                 7.9637
 Frc consts  --      0.1838                 0.2551                 0.7524
 IR Inten    --      7.8549                10.6205                22.0150

                     19                     20                     21
                      A                      A                      A
 Frequencies --    420.1877               443.2143               495.4100
 Red. masses --      2.4553                 1.6666                 2.7140
 Frc consts  --      0.2554                 0.1929                 0.3925
 IR Inten    --     22.5376                50.9720               130.8243

                     22                     23                     24
                      A                      A                      A
 Frequencies --    528.6155               561.6643               636.5691
 Red. masses --      3.3073                 3.3564                 5.6403
 Frc consts  --      0.5445                 0.6238                 1.3466
 IR Inten    --     29.6548                 8.5111                30.4531

                     25                     26                     27
                      A                      A                      A
 Frequencies --    642.0478               663.5321               725.3108
 Red. masses --      3.3098                 2.4209                 1.6678
 Frc consts  --      0.8039                 0.6280                 0.5169
 IR Inten    --     33.8236                39.9292                65.5061

                     28                     29                     30
                      A                      A                      A
 Frequencies --    742.5502               789.5364               804.4745
 Red. masses --      2.4070                 5.3658                 2.6629
 Frc consts  --      0.7819                 1.9708                 1.0154
 IR Inten    --    135.7541                53.0003               101.2733

                     31                     32                     33
                      A                      A                      A
 Frequencies --    840.9424               872.4723               944.3942
 Red. masses --      4.1132                 1.2485                 1.4626
 Frc consts  --      1.7138                 0.5599                 0.7686
 IR Inten    --     11.3263                 2.7207                 4.1086

                     34                     35                     36
                      A                      A                      A
 Frequencies --    991.1872              1007.2282              1015.0116
 Red. masses --      2.1040                 1.3760                 1.4295
 Frc consts  --      1.2179                 0.8225                 0.8677
 IR Inten    --     10.4091                 0.1673                25.0780

                     37                     38                     39
                      A                      A                      A
 Frequencies --   1020.0643              1022.1627              1024.9566
 Red. masses --      1.5497                 2.0455                 1.4789
 Frc consts  --      0.9500                 1.2592                 0.9154
 IR Inten    --     12.1363                39.5788               104.1806

                     40                     41                     42
                      A                      A                      A
 Frequencies --   1064.4775              1072.5603              1094.7529
 Red. masses --      2.1050                 2.3260                 1.6274
 Frc consts  --      1.4053                 1.5766                 1.1491
 IR Inten    --     13.4737               200.8743                31.4475

                     43                     44                     45
                      A                      A                      A
 Frequencies --   1108.9194              1118.4017              1156.1815
 Red. masses --      2.5576                 1.5308                 1.2907
 Frc consts  --      1.8530                 1.1282                 1.0166
 IR Inten    --     11.2333                19.6950                 0.5825

                     46                     47                     48
                      A                      A                      A
 Frequencies --   1182.1631              1191.5274              1198.7749
 Red. masses --      1.1251                 1.7365                 1.4030
 Frc consts  --      0.9264                 1.4526                 1.1879
 IR Inten    --      0.7625                13.6133                22.5939

                     49                     50                     51
                      A                      A                      A
 Frequencies --   1212.8825              1247.5885              1278.7728
 Red. masses --      1.1270                 1.4408                 2.5286
 Frc consts  --      0.9768                 1.3213                 2.4362
 IR Inten    --      4.0915                34.7710                66.4424

                     52                     53                     54
                      A                      A                      A
 Frequencies --   1304.5187              1338.2135              1347.2723
 Red. masses --      3.7864                 1.3338                 2.4775
 Frc consts  --      3.7964                 1.4073                 2.6496
 IR Inten    --     93.5143                 7.0275               155.5861

                     55                     56                     57
                      A                      A                      A
 Frequencies --   1366.1167              1437.5228              1459.0471
 Red. masses --      1.5824                 3.0705                 1.2164
 Frc consts  --      1.7399                 3.7384                 1.5257
 IR Inten    --     56.1499               662.8451                25.4188

                     58                     59                     60
                      A                      A                      A
 Frequencies --   1461.2125              1475.8301              1491.2781
 Red. masses --      1.3677                 1.0471                 1.0415
 Frc consts  --      1.7205                 1.3437                 1.3647
 IR Inten    --     67.7149                11.6657                16.0921

                     61                     62                     63
                      A                      A                      A
 Frequencies --   1494.1571              1500.8950              1506.8916
 Red. masses --      2.4069                 1.0337                 1.1068
 Frc consts  --      3.1659                 1.3720                 1.4807
 IR Inten    --     43.0745                19.4832                17.7765

                     64                     65                     66
                      A                      A                      A
 Frequencies --   1538.7309              1558.3616              1637.3287
 Red. masses --      2.3019                 2.0535                 5.5659
 Frc consts  --      3.2112                 2.9382                 8.7913
 IR Inten    --    115.0007               663.4232                66.6845

                     67                     68                     69
                      A                      A                      A
 Frequencies --   1650.0449              1655.6697              1670.3643
 Red. masses --      1.3254                 3.2866                 6.0180
 Frc consts  --      2.1262                 5.3081                 9.8930
 IR Inten    --    224.5747               513.3342                15.9059

                     70                     71                     72
                      A                      A                      A
 Frequencies --   3048.8790              3058.2476              3104.7806
 Red. masses --      1.0358                 1.0370                 1.1045
 Frc consts  --      5.6732                 5.7144                 6.2731
 IR Inten    --     82.6185                72.8756                44.4999

                     73                     74                     75
                      A                      A                      A
 Frequencies --   3134.2888              3160.3336              3165.4060
 Red. masses --      1.1010                 1.1012                 1.1046
 Frc consts  --      6.3727                 6.4801                 6.5209
 IR Inten    --     20.7351                23.0485                15.4915

                     76                     77                     78
                      A                      A                      A
 Frequencies --   3187.0520              3190.7393              3201.1329
 Red. masses --      1.0859                 1.0877                 1.0912
 Frc consts  --      6.4983                 6.5244                 6.5882
 IR Inten    --     12.2001                 0.7605                 9.4679

                     79                     80                     81
                      A                      A                      A
 Frequencies --   3206.7363              3219.2619              3229.3296
 Red. masses --      1.0950                 1.0986                 1.0921
 Frc consts  --      6.6340                 6.7083                 6.7103
 IR Inten    --     47.9957                22.8705                 2.1306

                     82                     83                     84
                      A                      A                      A
 Frequencies --   3493.5999              3597.3185              3683.5576
 Red. masses --      1.0554                 1.0929                 1.0781
 Frc consts  --      7.5898                 8.3331                 8.6185
 IR Inten    --     50.8866                59.2717                79.3557

 - Thermochemistry -
 -------------------
 Temperature   298.150 Kelvin.  Pressure   1.00000 Atm.
 Atom     1 has atomic number  6 and mass  12.00000

 Molecular mass:   270.03677 amu.
 Principal axes and moments of inertia in atomic units:
                           1         2         3
     Eigenvalues --  3113.843546011.145477291.21856
           X            0.99934   0.00189  -0.03634
           Y           -0.00295   0.99957  -0.02930
           Z            0.03627   0.02939   0.99891
 This molecule is an asymmetric top.
 Rotational symmetry number  1.
 Warning -- assumption of classical behavior for rotation
           may cause significant error
 Rotational temperatures (Kelvin)      0.02782     0.01441     0.01188
 Rotational constants (GHZ):           0.57959     0.30023     0.24752
    1 imaginary frequencies ignored.
 Zero-point vibrational energy     649229.4 (Joules/Mol)
                                  155.16956 (Kcal/Mol)
 Warning -- explicit consideration of  22 degrees of freedom as
           vibrations may cause significant error
 Vibrational temperatures:     54.37    60.57    85.40    88.46   108.64
          (Kelvin)            130.11   157.89   172.61   217.11   226.60
                              257.39   322.56   347.20   395.82   435.36
                              464.31   576.15   604.56   637.69   712.78
                              760.56   808.11   915.88   923.76   954.67
                             1043.56  1068.36  1135.97  1157.46  1209.93
                             1255.29  1358.77  1426.10  1449.18  1460.38
                             1467.64  1470.66  1474.68  1531.55  1543.17
                             1575.11  1595.49  1609.13  1663.49  1700.87
                             1714.34  1724.77  1745.07  1795.00  1839.87
                             1876.91  1925.39  1938.42  1965.54  2068.27
                             2099.24  2102.36  2123.39  2145.62  2149.76
                             2159.45  2168.08  2213.89  2242.13  2355.75
                             2374.05  2382.14  2403.28  4386.66  4400.14
                             4467.09  4509.54  4547.02  4554.31  4585.46
                             4590.76  4605.72  4613.78  4631.80  4646.28
                             5026.51  5175.74  5299.82

 Zero-point correction=                           0.247278 (Hartree/Particle)
 Thermal correction to Energy=                    0.263524
 Thermal correction to Enthalpy=                  0.264468
 Thermal correction to Gibbs Free Energy=         0.201121
 Sum of electronic and zero-point Energies=          -3186.898630
 Sum of electronic and thermal Energies=             -3186.882384
 Sum of electronic and thermal Enthalpies=           -3186.881440
 Sum of electronic and thermal Free Energies=        -3186.944787

                     E (Thermal)             CV                S
                      KCal/Mol        Cal/Mol-Kelvin    Cal/Mol-Kelvin
 Total                  165.364             57.457            133.324
 Electronic               0.000              0.000              0.000
 Translational            0.889              2.981             42.679
 Rotational               0.889              2.981             33.278
 Vibrational            163.586             51.495             57.366
 Vibration     1          0.594              1.982              5.372
 Vibration     2          0.595              1.980              5.158
 Vibration     3          0.597              1.974              4.478
 Vibration     4          0.597              1.973              4.409
 Vibration     5          0.599              1.965              4.004
 Vibration     6          0.602              1.956              3.651
 Vibration     7          0.606              1.941              3.274
 Vibration     8          0.609              1.933              3.101
 Vibration     9          0.618              1.902              2.661
 Vibration    10          0.621              1.894              2.580
 Vibration    11          0.629              1.868              2.340
 Vibration    12          0.649              1.804              1.925
 Vibration    13          0.658              1.777              1.793
 Vibration    14          0.677              1.719              1.564
 Vibration    15          0.694              1.669              1.403
 Vibration    16          0.708              1.630              1.296
 Vibration    17          0.766              1.469              0.961
 Vibration    18          0.783              1.426              0.891
 Vibration    19          0.803              1.376              0.817
 Vibration    20          0.851              1.260              0.670
 Vibration    21          0.884              1.187              0.590
 Vibration    22          0.917              1.114              0.521

 Optimization completed.
    -- Stationary point found.
 Normal termination of Gaussian 16 at Tue Mar  2 04:32:07 2021.
