 Gaussian 16, Revision A.03,
 Gaussian 16:  ES64L-G16RevA.03 25-Dec-2016

 ----------------------------------------------------------------------
 # wB97XD def2tzvp, opt=(ts, noeigen, calcfc, maxcycles=70, maxstep=1),
  freq=noraman, scrf=(iefpcm, solvent=water)
 ----------------------------------------------------------------------

 ------------------------
 0_iteration/TS-398-0.out
 ------------------------
 Symbolic Z-matrix:
 Charge =  0 Multiplicity = 1

 SCF Done:  E(RwB97XD) =  -1340.98854914     A.U. after   15 cycles
 SCF Done:  E(RwB97XD) =  -1340.98854919     A.U. after    8 cycles
 Optimization completed.
    -- Stationary point found.
 Normal termination of Gaussian 16 at Tue Mar  2 02:35:33 2021.

 ---------------------------------------------------------------------
 #N Geom=AllCheck Guess=TCheck SCRF=Check GenChk RwB97XD/def2TZVP Freq
 ---------------------------------------------------------------------

 Structure from the checkpoint file:  "/beegfs/scratch/user/q/tla25/Gau-12025.chk"
 ------------------------
 0_iteration/TS-398-0.out
 ------------------------
 Charge =  0 Multiplicity = 1

                         Standard orientation:
 ---------------------------------------------------------------------
 Center     Atomic      Atomic             Coordinates (Angstroms)
 Number     Number       Type             X           Y           Z
 ---------------------------------------------------------------------
      1          6           0       -0.322999   -0.416130   -0.638247
      2          6           0        0.800386   -0.903870    0.171046
      3          8           0        0.735149   -1.945548    0.828706
      4          6           0       -1.013115    0.778200   -0.450857
      5          6           0       -2.453226   -0.243350    1.638471
      6          1           0       -2.808833   -0.133115    2.661847
      7          1           0       -3.296649   -0.425415    0.976741
      8          1           0       -1.759526   -1.079414    1.578116
      9          7           0       -1.755683    0.968663    1.202335
     10          1           0       -2.372061    1.775379    1.189677
     11          1           0       -0.982204    1.186605    1.822595
     12          1           0       -1.927617    0.871760   -1.021580
     13         17           0       -0.165971    2.354815   -0.475340
     14         17           0       -1.342752   -1.711893   -1.303624
     15          7           0        1.928558   -0.128342    0.216126
     16          6           0        2.938488   -0.470095    1.196660
     17          6           0        2.442090    0.578658   -0.942301
     18          1           0        2.468259   -0.775872    2.127720
     19          1           0        3.583807   -1.285195    0.850534
     20          1           0        3.558851    0.408007    1.379456
     21          1           0        1.683630    0.624840   -1.717267
     22          1           0        2.741460    1.594004   -0.678071
     23          1           0        3.318129    0.050401   -1.334881
 ---------------------------------------------------------------------

 SCF Done:  E(RwB97XD) =  -1340.98854919     A.U. after    1 cycles

 The electronic state is 1-A.
 Alpha  occ. eigenvalues -- -101.69965-101.68048 -19.20585 -14.50443 -14.45514
 Alpha  occ. eigenvalues --  -10.39766 -10.38159 -10.32095 -10.30421 -10.30333
 Alpha  occ. eigenvalues --  -10.30270  -9.58563  -9.56561  -7.33199  -7.32348
 Alpha  occ. eigenvalues --   -7.32312  -7.31187  -7.30370  -7.30327  -1.13392
 Alpha  occ. eigenvalues --   -1.05991  -1.02887  -0.97308  -0.93914  -0.83226
 Alpha  occ. eigenvalues --   -0.81254  -0.79708  -0.78461  -0.70878  -0.64806
 Alpha  occ. eigenvalues --   -0.61828  -0.59256  -0.58179  -0.56928  -0.55928
 Alpha  occ. eigenvalues --   -0.54660  -0.53727  -0.50736  -0.49384  -0.48472
 Alpha  occ. eigenvalues --   -0.48148  -0.47567  -0.46982  -0.45801  -0.44891
 Alpha  occ. eigenvalues --   -0.41711  -0.40055  -0.39780  -0.38396  -0.34627
 Alpha  occ. eigenvalues --   -0.31853  -0.26532
 Alpha virt. eigenvalues --    0.06351   0.07017   0.09421   0.12054   0.13923
 Alpha virt. eigenvalues --    0.14451   0.14959   0.15046   0.16766   0.17474
 Alpha virt. eigenvalues --    0.17781   0.18912   0.19072   0.20219   0.21150

 Mulliken charges:
               1
     1  C   -0.170169
     2  C    0.234082
     3  O   -0.508925
     4  C   -0.029106
     5  C   -0.300926
     6  H    0.162604
     7  H    0.161380
     8  H    0.157235
     9  N   -0.273578
    10  H    0.295652
    11  H    0.290138
    12  H    0.191346
    13  Cl  -0.122299
    14  Cl  -0.204389
    15  N   -0.140412
    16  C   -0.286066
    17  C   -0.290552
    18  H    0.138174
    19  H    0.129616
    20  H    0.136383
    21  H    0.158506
    22  H    0.142527
    23  H    0.128777
 Sum of Mulliken charges =  -0.00000

 Dipole moment (field-independent basis, Debye):
    X=             -2.9517    Y=              7.2894    Z=              3.9816  Tot=              8.8148
 Quadrupole moment (field-independent basis, Debye-Ang):
   XX=            -62.2949   YY=            -92.4587   ZZ=            -77.0964
   XY=             -4.2467   XZ=             -9.0426   YZ=              4.8820

  Exact polarizability: 175.562   4.448 176.526  -5.664   1.971 142.478
 Approx polarizability: 137.319   5.389 148.073  -2.537   0.848 122.702

 ******    1 imaginary frequencies (negative Signs) ******

                      1                      2                      3
                      A                      A                      A
 Frequencies --   -348.3124                47.6036                76.7093
 Red. masses --      6.3611                 4.9774                 6.2217
 Frc consts  --      0.4547                 0.0066                 0.0216
 IR Inten    --    757.4117                 3.4853                15.7302

                      4                      5                      6
                      A                      A                      A
 Frequencies --     86.4930                98.3389               128.4652
 Red. masses --      3.9502                 2.2606                 5.2348
 Frc consts  --      0.0174                 0.0129                 0.0509
 IR Inten    --      0.6185                18.8583                11.0188

                      7                      8                      9
                      A                      A                      A
 Frequencies --    157.0014               178.1913               203.5338
 Red. masses --      1.4832                 2.5014                 3.9933
 Frc consts  --      0.0215                 0.0468                 0.0975
 IR Inten    --      5.2753                 3.1349                11.6589

                     10                     11                     12
                      A                      A                      A
 Frequencies --    217.9986               232.9807               241.2146
 Red. masses --      2.1585                 1.2544                 3.5670
 Frc consts  --      0.0604                 0.0401                 0.1223
 IR Inten    --      6.8025                 2.2085                13.3842

                     13                     14                     15
                      A                      A                      A
 Frequencies --    278.3425               304.6500               329.1585
 Red. masses --      3.7340                 1.7496                 2.5547
 Frc consts  --      0.1704                 0.0957                 0.1631
 IR Inten    --     29.0783                 5.6310                29.4747

                     16                     17                     18
                      A                      A                      A
 Frequencies --    365.9794               380.6859               459.1855
 Red. masses --      6.2283                 3.7272                 3.1872
 Frc consts  --      0.4915                 0.3182                 0.3959
 IR Inten    --     27.7778                15.9284                44.2389

                     19                     20                     21
                      A                      A                      A
 Frequencies --    471.4035               591.4643               702.1494
 Red. masses --      2.9235                 6.2661                 2.5965
 Frc consts  --      0.3828                 1.2915                 0.7542
 IR Inten    --      8.3234                45.7635                36.3220

                     22                     23                     24
                      A                      A                      A
 Frequencies --    720.8753               767.8513               812.6901
 Red. masses --      8.0102                 2.9355                 5.4943
 Frc consts  --      2.4525                 1.0197                 2.1380
 IR Inten    --    264.1178                14.2413                22.4590

                     25                     26                     27
                      A                      A                      A
 Frequencies --    886.0723              1019.6934              1032.4360
 Red. masses --      4.6521                 2.1499                 1.1611
 Frc consts  --      2.1520                 1.3171                 0.7292
 IR Inten    --     36.3827                59.8208                44.8070

                     28                     29                     30
                      A                      A                      A
 Frequencies --   1052.1548              1082.8345              1090.4107
 Red. masses --      1.5868                 1.3844                 2.2659
 Frc consts  --      1.0350                 0.9564                 1.5874
 IR Inten    --     25.7937                19.2882                67.7801

                     31                     32                     33
                      A                      A                      A
 Frequencies --   1132.7696              1174.8195              1180.8981
 Red. masses --      1.2341                 1.4111                 2.0110
 Frc consts  --      0.9330                 1.1475                 1.6523
 IR Inten    --      2.1706                 9.1232               179.6097

                     34                     35                     36
                      A                      A                      A
 Frequencies --   1185.0502              1258.2032              1292.2209
 Red. masses --      1.1217                 1.3605                 3.4898
 Frc consts  --      0.9281                 1.2689                 3.4334
 IR Inten    --     60.4047                60.2884                24.2044

                     37                     38                     39
                      A                      A                      A
 Frequencies --   1325.8215              1346.3035              1386.8823
 Red. masses --      1.7552                 1.3109                 4.7016
 Frc consts  --      1.8178                 1.3999                 5.3282
 IR Inten    --     41.0046                 5.5712               712.3377

                     40                     41                     42
                      A                      A                      A
 Frequencies --   1423.1400              1443.0265              1467.4372
 Red. masses --      2.4015                 1.1577                 1.2051
 Frc consts  --      2.8657                 1.4203                 1.5289
 IR Inten    --    214.4986                 5.7349                 6.0370

                     43                     44                     45
                      A                      A                      A
 Frequencies --   1470.3982              1481.0843              1496.5876
 Red. masses --      1.2030                 1.0889                 1.0513
 Frc consts  --      1.5325                 1.4073                 1.3873
 IR Inten    --     33.3202                14.4383                27.5307

                     46                     47                     48
                      A                      A                      A
 Frequencies --   1497.2290              1503.0161              1506.4461
 Red. masses --      1.0392                 1.0509                 1.0318
 Frc consts  --      1.3725                 1.3988                 1.3795
 IR Inten    --     10.1120                30.4769                21.2095

                     49                     50                     51
                      A                      A                      A
 Frequencies --   1529.9296              1642.0336              1646.9857
 Red. masses --      1.3379                 1.0921                 8.7509
 Frc consts  --      1.8451                 1.7349                13.9857
 IR Inten    --    167.9864                43.6648               719.8831

                     52                     53                     54
                      A                      A                      A
 Frequencies --   3023.7934              3025.9058              3080.4549
 Red. masses --      1.0461                 1.0493                 1.0329
 Frc consts  --      5.6353                 5.6604                 5.7747
 IR Inten    --     42.0152               165.2842                27.0949

                     55                     56                     57
                      A                      A                      A
 Frequencies --   3098.9142              3106.7758              3166.4233
 Red. masses --      1.0929                 1.0913                 1.1058
 Frc consts  --      6.1837                 6.2063                 6.5325
 IR Inten    --     69.5455                23.7903                 8.1623

                     58                     59                     60
                      A                      A                      A
 Frequencies --   3167.3835              3181.4322              3187.6534
 Red. masses --      1.1012                 1.1068                 1.0978
 Frc consts  --      6.5091                 6.6003                 6.5722
 IR Inten    --     16.5888                 5.4123                 8.8354

                     61                     62                     63
                      A                      A                      A
 Frequencies --   3203.7502              3506.6721              3588.2215
 Red. masses --      1.0908                 1.0508                 1.0968
 Frc consts  --      6.5963                 7.6132                 8.3201
 IR Inten    --      1.3835                50.3103                55.1093

 - Thermochemistry -
 -------------------
 Temperature   298.150 Kelvin.  Pressure   1.00000 Atm.
 Atom     1 has atomic number  6 and mass  12.00000

 Molecular mass:   198.03267 amu.
 Principal axes and moments of inertia in atomic units:
                           1         2         3
     Eigenvalues --  2155.302192562.853423327.39346
           X            0.99824  -0.04293  -0.04086
           Y            0.04214   0.99891  -0.01987
           Z            0.04167   0.01811   0.99897
 This molecule is an asymmetric top.
 Rotational symmetry number  1.
 Warning -- assumption of classical behavior for rotation
           may cause significant error
 Rotational temperatures (Kelvin)      0.04019     0.03380     0.02603
 Rotational constants (GHZ):           0.83735     0.70419     0.54239
    1 imaginary frequencies ignored.
 Zero-point vibrational energy     488939.1 (Joules/Mol)
                                  116.85924 (Kcal/Mol)
 Warning -- explicit consideration of  19 degrees of freedom as
           vibrations may cause significant error
 Vibrational temperatures:     68.49   110.37   124.44   141.49   184.83
          (Kelvin)            225.89   256.38   292.84   313.65   335.21
                              347.05   400.47   438.32   473.59   526.56
                              547.72   660.67   678.24   850.99  1010.24
                             1037.18  1104.77  1169.28  1274.86  1467.11
                             1485.45  1513.82  1557.96  1568.86  1629.80
                             1690.30  1699.05  1705.02  1810.27  1859.22
                             1907.56  1937.03  1995.41  2047.58  2076.19
                             2111.31  2115.58  2130.95  2153.26  2154.18
                             2162.50  2167.44  2201.23  2362.52  2369.65
                             4350.56  4353.60  4432.09  4458.65  4469.96
                             4555.78  4557.16  4577.37  4586.32  4609.48
                             5045.32  5162.65

 Zero-point correction=                           0.186227 (Hartree/Particle)
 Thermal correction to Energy=                    0.199544
 Thermal correction to Enthalpy=                  0.200489
 Thermal correction to Gibbs Free Energy=         0.145811
 Sum of electronic and zero-point Energies=          -1340.802322
 Sum of electronic and thermal Energies=             -1340.789005
 Sum of electronic and thermal Enthalpies=           -1340.788061
 Sum of electronic and thermal Free Energies=        -1340.842738

                     E (Thermal)             CV                S
                      KCal/Mol        Cal/Mol-Kelvin    Cal/Mol-Kelvin
 Total                  125.216             46.043            115.079
 Electronic               0.000              0.000              0.000
 Translational            0.889              2.981             41.755
 Rotational               0.889              2.981             31.286
 Vibrational            123.439             40.082             42.038
 Vibration     1          0.595              1.978              4.915
 Vibration     2          0.599              1.965              3.973
 Vibration     3          0.601              1.959              3.738
 Vibration     4          0.604              1.950              3.487
 Vibration     5          0.611              1.925              2.969
 Vibration     6          0.621              1.895              2.586
 Vibration     7          0.629              1.869              2.347
 Vibration     8          0.639              1.835              2.101
 Vibration     9          0.646              1.814              1.976
 Vibration    10          0.654              1.790              1.856
 Vibration    11          0.658              1.777              1.794
 Vibration    12          0.679              1.714              1.544
 Vibration    13          0.696              1.665              1.391
 Vibration    14          0.712              1.617              1.264
 Vibration    15          0.739              1.542              1.097
 Vibration    16          0.750              1.511              1.036
 Vibration    17          0.817              1.341              0.768
 Vibration    18          0.828              1.313              0.734
 Vibration    19          0.949              1.050              0.465

 Optimization completed.
    -- Stationary point found.
 Normal termination of Gaussian 16 at Tue Mar  2 02:59:21 2021.
