 Gaussian 16, Revision C.01,
 Gaussian 16:  ES64L-G16RevC.01  3-Jul-2019

 ----------------------------------------------------------------------
 # opt=(calcfc,ts,noeigen,maxcycles=100,maxstep=10) freq=noraman wb97xd
  scrf=(iefpcm,solvent=water) def2tzvp
 ----------------------------------------------------------------------

 ---------
 TS-32.out
 ---------
 Symbolic Z-matrix:
 Charge =  0 Multiplicity = 1

 SCF Done:  E(RwB97XD) =  -3554.55512360     A.U. after   15 cycles
 SCF Done:  E(RwB97XD) =  -3554.55512360     A.U. after    6 cycles
 Optimization completed.
    -- Stationary point found.
 Normal termination of Gaussian 16 at Mon Jun  6 16:12:03 2022.

 ---------------------------------------------------------------------
 #N Geom=AllCheck Guess=TCheck SCRF=Check GenChk RwB97XD/def2TZVP Freq
 ---------------------------------------------------------------------

 Structure from the checkpoint file:  "/local/jobs/107532/Gau-798703.chk"
 ---------
 TS-32.out
 ---------
 Charge =  0 Multiplicity = 1

                         Standard orientation:
 ---------------------------------------------------------------------
 Center     Atomic      Atomic             Coordinates (Angstroms)
 Number     Number       Type             X           Y           Z
 ---------------------------------------------------------------------
      1          6           0        0.365327   -0.194123    0.085556
      2          6           0        1.440561    0.632243    0.522374
      3          8           0        1.247288    1.599914    1.277757
      4          6           0       -0.981251    0.168223    0.332544
      5          6           0       -0.237661   -0.588259    3.062583
      6          1           0        0.537820   -0.984737    2.403463
      7          1           0        0.247104   -0.072476    3.890716
      8          1           0       -0.826549   -1.413278    3.455299
      9          7           0       -1.081282    0.326029    2.302324
     10          1           0       -2.035923    0.334723    2.635592
     11          1           0       -0.694305    1.262095    2.341799
     12          6           0       -2.066909   -0.820000   -0.017599
     13          6           0       -2.735651   -0.668028   -1.230108
     14          6           0       -3.705829   -1.576038   -1.623823
     15          6           0       -4.037067   -2.642833   -0.802338
     16          6           0       -3.381121   -2.798385    0.409295
     17          6           0       -2.399090   -1.898837    0.793343
     18          1           0       -2.492917    0.165354   -1.876520
     19          1           0       -4.208266   -1.442602   -2.573366
     20          1           0       -4.801793   -3.347254   -1.103486
     21          1           0       -3.628936   -3.626931    1.060371
     22          1           0       -1.883973   -2.058496    1.728519
     23          6           0       -1.404522    1.587684    0.004968
     24          6           0       -2.563927    2.132294    0.553816
     25          6           0       -3.000693    3.395343    0.189528
     26          6           0       -2.296748    4.131127   -0.752330
     27          6           0       -1.161310    3.585434   -1.331102
     28          6           0       -0.723704    2.324178   -0.958726
     29          1           0       -3.155678    1.563771    1.259520
     30          1           0       -3.900596    3.799046    0.635560
     31          1           0       -2.639238    5.116089   -1.042733
     32          1           0       -0.613241    4.139873   -2.082268
     33          1           0        0.151737    1.899435   -1.430123
     34         35           0        0.770958   -1.965298   -0.533644
     35          6           0        2.852889    0.362380    0.093503
     36          6           0        3.852420    0.283520    1.056865
     37          6           0        5.174665    0.100733    0.681127
     38          6           0        5.510297    0.024311   -0.663622
     39          6           0        4.518492    0.123371   -1.630111
     40          6           0        3.193999    0.280754   -1.252376
     41          1           0        3.587921    0.362562    2.104190
     42          1           0        5.945085    0.024209    1.438041
     43          1           0        6.543533   -0.109117   -0.958436
     44          1           0        4.777027    0.074645   -2.680370
     45          1           0        2.419341    0.346466   -2.006740
 ---------------------------------------------------------------------

 SCF Done:  E(RwB97XD) =  -3554.55512360     A.U. after    1 cycles

 The electronic state is 1-A.
 Alpha  occ. eigenvalues -- -483.12163 -62.66968 -56.46085 -56.45735 -56.45733
 Alpha  occ. eigenvalues --  -19.21707 -14.48188 -10.37095 -10.36405 -10.31580
 Alpha  occ. eigenvalues --  -10.31183 -10.31102 -10.31040 -10.29789 -10.29661
 Alpha  occ. eigenvalues --  -10.29622 -10.29554 -10.29404 -10.29382 -10.29371
 Alpha  occ. eigenvalues --  -10.29340 -10.29314 -10.29312 -10.29307 -10.29237
 Alpha  occ. eigenvalues --  -10.29226 -10.29186 -10.29112 -10.29088  -8.81058
 Alpha  occ. eigenvalues --   -6.63192  -6.62076  -6.62071  -2.73583  -2.73255
 Alpha  occ. eigenvalues --   -2.73252  -2.72348  -2.72348  -1.12453  -1.03803
 Alpha  occ. eigenvalues --   -0.98552  -0.96865  -0.96785  -0.93209  -0.88948
 Alpha  occ. eigenvalues --   -0.86144  -0.85812  -0.85598  -0.85338  -0.85252
 Alpha  occ. eigenvalues --   -0.81439  -0.78931  -0.76157  -0.72018  -0.71417
 Alpha  occ. eigenvalues --   -0.70588  -0.70342  -0.70213  -0.67185  -0.64672
 Alpha  occ. eigenvalues --   -0.63073  -0.62315  -0.60673  -0.58413  -0.57325
 Alpha  occ. eigenvalues --   -0.56598  -0.56349  -0.55353  -0.54990  -0.54427
 Alpha  occ. eigenvalues --   -0.53950  -0.53191  -0.52630  -0.52094  -0.51628
 Alpha  occ. eigenvalues --   -0.51097  -0.51028  -0.50747  -0.48529  -0.47818
 Alpha  occ. eigenvalues --   -0.47247  -0.47214  -0.46501  -0.45431  -0.44914
 Alpha  occ. eigenvalues --   -0.44069  -0.43895  -0.42980  -0.42711  -0.42491
 Alpha  occ. eigenvalues --   -0.41459  -0.39577  -0.37772  -0.35558  -0.34584
 Alpha  occ. eigenvalues --   -0.34114  -0.33847  -0.33173  -0.32926  -0.31933
 Alpha  occ. eigenvalues --   -0.27713
 Alpha virt. eigenvalues --    0.00227   0.03882   0.04338   0.04382   0.05141
 Alpha virt. eigenvalues --    0.05620   0.07176   0.09307   0.10698   0.12285
 Alpha virt. eigenvalues --    0.12654   0.13339   0.14037   0.14563   0.14793

 Mulliken charges:
               1
     1  C   -0.375956
     2  C    0.304473
     3  O   -0.512415
     4  C    0.567785
     5  C   -0.286059
     6  H    0.144919
     7  H    0.157334
     8  H    0.159936
     9  N   -0.364191
    10  H    0.286252
    11  H    0.286383
    12  C    0.022797
    13  C   -0.254199
    14  C   -0.147493
    15  C   -0.131648
    16  C   -0.152987
    17  C   -0.187174
    18  H    0.158723
    19  H    0.143613
    20  H    0.145859
    21  H    0.142420
    22  H    0.130715
    23  C    0.044942
    24  C   -0.242979
    25  C   -0.153901
    26  C   -0.120045
    27  C   -0.168749
    28  C   -0.165668
    29  H    0.148574
    30  H    0.143787
    31  H    0.145517
    32  H    0.140827
    33  H    0.162656
    34  Br  -0.128853
    35  C    0.144202
    36  C   -0.241951
    37  C   -0.154884
    38  C   -0.130521
    39  C   -0.140605
    40  C   -0.256670
    41  H    0.143533
    42  H    0.142449
    43  H    0.145461
    44  H    0.142814
    45  H    0.160979
 Sum of Mulliken charges =  -0.00000

 Dipole moment (field-independent basis, Debye):
    X=             -5.2918    Y=             -0.3848    Z=              2.9694  Tot=              6.0802
 Quadrupole moment (field-independent basis, Debye-Ang):
   XX=           -140.6131   YY=           -159.4071   ZZ=           -137.3610
   XY=             -3.1685   XZ=             -8.5257   YZ=             -8.9148

  Exact polarizability:     449.895       5.796     379.477     -10.119     -14.055     376.198
 Approx polarizability:     339.801       2.901     308.425      -8.546      -9.492     325.333

 ******    1 imaginary frequencies (negative Signs) ******

                      1                      2                      3
                      A                      A                      A
 Frequencies --   -325.9757                16.4811                27.0898
 Red. masses --      5.6283                 4.8131                 5.0256
 Frc consts  --      0.3524                 0.0008                 0.0022
 IR Inten    --    506.4141                 0.5219                 0.4006

                      4                      5                      6
                      A                      A                      A
 Frequencies --     39.6510                51.2973                53.0003
 Red. masses --      4.2832                 3.8341                 5.2050
 Frc consts  --      0.0040                 0.0059                 0.0086
 IR Inten    --      1.7801                 0.7698                 2.4508

                      7                      8                      9
                      A                      A                      A
 Frequencies --     61.1877                72.4898                91.3021
 Red. masses --      5.5567                 5.7335                 7.1225
 Frc consts  --      0.0123                 0.0178                 0.0350
 IR Inten    --      1.1071                 1.7906                 0.8518

                     10                     11                     12
                      A                      A                      A
 Frequencies --    134.1659               136.8890               137.6529
 Red. masses --      2.4452                 3.2189                 3.8453
 Frc consts  --      0.0259                 0.0355                 0.0429
 IR Inten    --      5.0242                 2.9591                11.4118

                     13                     14                     15
                      A                      A                      A
 Frequencies --    163.9065               188.2858               192.2578
 Red. masses --      2.4636                 4.6904                 1.6558
 Frc consts  --      0.0390                 0.0980                 0.0361
 IR Inten    --     10.4190                 3.5037                 0.2406

                     16                     17                     18
                      A                      A                      A
 Frequencies --    194.7237               204.9578               243.9504
 Red. masses --      5.8018                 4.8669                 5.2454
 Frc consts  --      0.1296                 0.1205                 0.1839
 IR Inten    --      0.7111                 8.4751                 0.8677

                     19                     20                     21
                      A                      A                      A
 Frequencies --    268.3392               270.4456               308.1549
 Red. masses --      4.6853                 4.5083                 3.6986
 Frc consts  --      0.1988                 0.1943                 0.2069
 IR Inten    --      2.4925                 1.2933                 7.1599

                     22                     23                     24
                      A                      A                      A
 Frequencies --    317.6571               345.7000               385.3274
 Red. masses --      3.9478                 8.6890                 6.9513
 Frc consts  --      0.2347                 0.6118                 0.6081
 IR Inten    --      4.3066                50.3800                10.4583

                     25                     26                     27
                      A                      A                      A
 Frequencies --    410.8438               416.6244               418.5520
 Red. masses --      4.9304                 2.8659                 2.9696
 Frc consts  --      0.4903                 0.2931                 0.3065
 IR Inten    --      6.2689                 1.2142                 1.9286

                     28                     29                     30
                      A                      A                      A
 Frequencies --    424.9608               483.3338               508.6415
 Red. masses --      2.9352                 3.9571                 4.4267
 Frc consts  --      0.3123                 0.5447                 0.6748
 IR Inten    --      0.3134                18.9822                 8.7331

                     31                     32                     33
                      A                      A                      A
 Frequencies --    560.1813               578.0973               624.7819
 Red. masses --      4.1261                 2.0720                 4.8056
 Frc consts  --      0.7629                 0.4080                 1.1052
 IR Inten    --     15.0966                68.9981               133.1031

                     34                     35                     36
                      A                      A                      A
 Frequencies --    635.5944               637.9416               640.9766
 Red. masses --      6.3543                 5.8643                 4.6951
 Frc consts  --      1.5124                 1.4061                 1.1365
 IR Inten    --      4.9746                 8.4512                29.6970

                     37                     38                     39
                      A                      A                      A
 Frequencies --    644.7381               656.6849               696.3935
 Red. masses --      3.5404                 4.6612                 5.7745
 Frc consts  --      0.8671                 1.1843                 1.6500
 IR Inten    --    106.2102                49.2199                 9.2486

                     40                     41                     42
                      A                      A                      A
 Frequencies --    723.7509               724.1169               725.5955
 Red. masses --      1.6423                 1.5766                 1.5647
 Frc consts  --      0.5068                 0.4871                 0.4854
 IR Inten    --    124.2700                60.9311                85.5488

                     43                     44                     45
                      A                      A                      A
 Frequencies --    754.7916               774.0584               791.2939
 Red. masses --      3.7981                 3.4778                 2.1032
 Frc consts  --      1.2749                 1.2277                 0.7759
 IR Inten    --     55.0824                40.0675                34.3987

                     46                     47                     48
                      A                      A                      A
 Frequencies --    811.3837               828.7312               873.9582
 Red. masses --      2.9007                 2.9850                 1.2590
 Frc consts  --      1.1251                 1.2079                 0.5666
 IR Inten    --     25.3369                21.6976                 0.1986

                     49                     50                     51
                      A                      A                      A
 Frequencies --    876.4897               878.6825               881.8033
 Red. masses --      1.3794                 1.2495                 4.4796
 Frc consts  --      0.6244                 0.5684                 2.0523
 IR Inten    --      7.7472                 0.7471                39.3576

                     52                     53                     54
                      A                      A                      A
 Frequencies --    954.7565               959.0318               963.3208
 Red. masses --      1.5640                 1.4717                 1.4762
 Frc consts  --      0.8400                 0.7975                 0.8071
 IR Inten    --      4.0451                 4.4485                 8.9957

                     55                     56                     57
                      A                      A                      A
 Frequencies --    987.5257              1011.9534              1012.1926
 Red. masses --      3.8378                 1.3208                 1.3809
 Frc consts  --      2.2051                 0.7969                 0.8336
 IR Inten    --     17.9447                32.0686                 3.2554

                     58                     59                     60
                      A                      A                      A
 Frequencies --   1012.6153              1020.5895              1026.2681
 Red. masses --      1.3641                 1.3928                 5.7555
 Frc consts  --      0.8241                 0.8547                 3.5715
 IR Inten    --      6.8783                45.2920                 2.3098

                     61                     62                     63
                      A                      A                      A
 Frequencies --   1028.2222              1028.4045              1030.4381
 Red. masses --      4.2396                 4.0782                 1.3281
 Frc consts  --      2.6409                 2.5413                 0.8308
 IR Inten    --     10.0473                 5.4743                 0.3423

                     64                     65                     66
                      A                      A                      A
 Frequencies --   1031.9477              1032.5735              1059.3140
 Red. masses --      1.3305                 1.3905                 2.2578
 Frc consts  --      0.8348                 0.8735                 1.4927
 IR Inten    --      1.1112                 7.5031                16.0495

                     67                     68                     69
                      A                      A                      A
 Frequencies --   1062.9908              1067.4229              1071.9453
 Red. masses --      2.6211                 1.9632                 2.0749
 Frc consts  --      1.7450                 1.3179                 1.4047
 IR Inten    --     32.4950                25.5126                42.3286

                     70                     71                     72
                      A                      A                      A
 Frequencies --   1099.3043              1110.2815              1122.1156
 Red. masses --      1.4959                 1.5443                 1.6454
 Frc consts  --      1.0651                 1.1216                 1.2207
 IR Inten    --     28.4538                13.0465                 2.4354

                     73                     74                     75
                      A                      A                      A
 Frequencies --   1123.2074              1144.4204              1182.2158
 Red. masses --      1.6020                 3.3651                 1.6209
 Frc consts  --      1.1908                 2.5967                 1.3348
 IR Inten    --     16.8059                 4.9178                29.4784

                     76                     77                     78
                      A                      A                      A
 Frequencies --   1183.9675              1185.5895              1186.4518
 Red. masses --      1.8226                 1.1326                 1.1316
 Frc consts  --      1.5053                 0.9380                 0.9385
 IR Inten    --     32.1876                 0.0591                 0.1635

                     79                     80                     81
                      A                      A                      A
 Frequencies --   1197.5349              1204.2930              1217.8000
 Red. masses --      1.3997                 1.1284                 1.1224
 Frc consts  --      1.1827                 0.9642                 0.9807
 IR Inten    --     34.5653                 7.7829                 5.3287

                     82                     83                     84
                      A                      A                      A
 Frequencies --   1220.3773              1267.3270              1316.1265
 Red. masses --      1.1354                 4.4765                 4.3526
 Frc consts  --      0.9963                 4.2361                 4.4421
 IR Inten    --      5.7941                22.0203                 6.2167

                     85                     86                     87
                      A                      A                      A
 Frequencies --   1323.0262              1323.9313              1338.0391
 Red. masses --      4.3904                 4.2988                 5.5401
 Frc consts  --      4.5279                 4.4395                 5.8440
 IR Inten    --     32.3746                11.7769                 4.7649

                     88                     89                     90
                      A                      A                      A
 Frequencies --   1351.5162              1356.6767              1365.0451
 Red. masses --      1.4286                 1.5033                 1.4292
 Frc consts  --      1.5374                 1.6302                 1.5690
 IR Inten    --     57.7858                24.1234                 6.6650

                     91                     92                     93
                      A                      A                      A
 Frequencies --   1366.3716              1383.1777              1460.3587
 Red. masses --      1.4277                 4.9567                 1.1746
 Frc consts  --      1.5704                 5.5873                 1.4759
 IR Inten    --     29.8953              1325.0712                13.3983

                     94                     95                     96
                      A                      A                      A
 Frequencies --   1489.6272              1490.9325              1492.9006
 Red. masses --      2.2436                 2.2368                 2.1008
 Frc consts  --      2.9332                 2.9295                 2.7586
 IR Inten    --     23.9825                18.8883                38.4317

                     97                     98                     99
                      A                      A                      A
 Frequencies --   1495.0399              1503.9416              1541.3703
 Red. masses --      1.0851                 1.0421                 2.3480
 Frc consts  --      1.4290                 1.3888                 3.2867
 IR Inten    --     16.1272                13.9931                 9.2912

                    100                    101                    102
                      A                      A                      A
 Frequencies --   1542.8347              1545.8179              1591.4130
 Red. masses --      2.2296                 2.2909                 2.9205
 Frc consts  --      3.1270                 3.2253                 4.3579
 IR Inten    --     17.7365                 7.2633               451.9196

                    103                    104                    105
                      A                      A                      A
 Frequencies --   1626.2159              1652.2277              1652.8472
 Red. masses --      1.5261                 5.7398                 5.7832
 Frc consts  --      2.3778                 9.2319                 9.3086
 IR Inten    --     71.6027                 0.3199                 7.3743

                    106                    107                    108
                      A                      A                      A
 Frequencies --   1654.7073              1673.5348              1674.6099
 Red. masses --      5.9186                 5.8899                 5.8967
 Frc consts  --      9.5480                 9.7191                 9.7429
 IR Inten    --     10.2643                 2.1802                 4.5170

                    109                    110                    111
                      A                      A                      A
 Frequencies --   1676.7283              3061.2244              3131.8808
 Red. masses --      5.9297                 1.0360                 1.1008
 Frc consts  --      9.8221                 5.7201                 6.3616
 IR Inten    --      0.7760                33.7702                12.1341

                    112                    113                    114
                      A                      A                      A
 Frequencies --   3170.0430              3193.0228              3197.5792
 Red. masses --      1.1048                 1.0859                 1.0859
 Frc consts  --      6.5416                 6.5227                 6.5415
 IR Inten    --     18.4808                 2.7364                 0.9699

                    115                    116                    117
                      A                      A                      A
 Frequencies --   3197.8498              3198.4597              3205.3283
 Red. masses --      1.0880                 1.0861                 1.0887
 Frc consts  --      6.5554                 6.5465                 6.5903
 IR Inten    --      0.4602                 0.0650                 5.0028

                    118                    119                    120
                      A                      A                      A
 Frequencies --   3205.4585              3207.0420              3212.8351
 Red. masses --      1.0916                 1.0895                 1.0953
 Frc consts  --      6.6085                 6.6019                 6.6613
 IR Inten    --      9.2698                 5.8080                37.3190

                    121                    122                    123
                      A                      A                      A
 Frequencies --   3214.4099              3215.8542              3222.0911
 Red. masses --      1.0924                 1.0935                 1.0989
 Frc consts  --      6.6504                 6.6627                 6.7217
 IR Inten    --     24.7373                24.7103                21.1029

                    124                    125                    126
                      A                      A                      A
 Frequencies --   3223.0513              3224.2716              3228.7919
 Red. masses --      1.0954                 1.0979                 1.0962
 Frc consts  --      6.7041                 6.7250                 6.7332
 IR Inten    --     25.6306                20.8505                 9.6745

                    127                    128                    129
                      A                      A                      A
 Frequencies --   3251.4414              3524.6392              3624.7764
 Red. masses --      1.0916                 1.0520                 1.0955
 Frc consts  --      6.7993                 7.7003                 8.4804
 IR Inten    --      7.1440                37.4524                78.3398

 - Thermochemistry -
 -------------------
 Temperature   298.150 Kelvin.  Pressure   1.00000 Atm.
 Atom     1 has atomic number  6 and mass  12.00000

 Molecular mass:   393.07283 amu.
 Principal axes and moments of inertia in atomic units:
                           1         2         3
     Eigenvalues --  6732.48713********************
           X            0.99992   0.01289  -0.00074
           Y           -0.01290   0.99950  -0.02885
           Z            0.00037   0.02885   0.99958
 This molecule is an asymmetric top.
 Rotational symmetry number  1.
 Warning -- assumption of classical behavior for rotation
           may cause significant error
 Rotational temperatures (Kelvin)      0.01287     0.00759     0.00598
 Rotational constants (GHZ):           0.26806     0.15809     0.12465
    1 imaginary frequencies ignored.
 Zero-point vibrational energy     958767.3 (Joules/Mol)
                                  229.15089 (Kcal/Mol)
 Warning -- explicit consideration of  31 degrees of freedom as
           vibrations may cause significant error
 Vibrational temperatures:     23.71    38.98    57.05    73.81    76.26
          (Kelvin)             88.04   104.30   131.36   193.03   196.95
                              198.05   235.82   270.90   276.62   280.16
                              294.89   350.99   386.08   389.11   443.37
                              457.04   497.39   554.40   591.11   599.43
                              602.20   611.42   695.41   731.82   805.98
                              831.75   898.92   914.48   917.86   922.22
                              927.63   944.82  1001.95  1041.32  1041.84
                             1043.97  1085.98  1113.70  1138.50  1167.40
                             1192.36  1257.43  1261.07  1264.23  1268.72
                             1373.68  1379.83  1386.00  1420.83  1455.98
                             1456.32  1456.93  1468.40  1476.57  1479.38
                             1479.64  1482.57  1484.74  1485.64  1524.12
                             1529.41  1535.78  1542.29  1581.65  1597.45
                             1614.47  1616.04  1646.57  1700.94  1703.47
                             1705.80  1707.04  1722.99  1732.71  1752.14
                             1755.85  1823.40  1893.61  1903.54  1904.84
                             1925.14  1944.53  1951.96  1964.00  1965.90
                             1990.08  2101.13  2143.24  2145.12  2147.95
                             2151.03  2163.84  2217.69  2219.80  2224.09
                             2289.69  2339.76  2377.19  2378.08  2380.75
                             2407.84  2409.39  2412.44  4404.42  4506.08
                             4560.98  4594.05  4600.60  4600.99  4601.87
                             4611.75  4611.94  4614.22  4622.55  4624.82
                             4626.90  4635.87  4637.25  4639.01  4645.51
                             4678.10  5071.17  5215.24

 Zero-point correction=                           0.365175 (Hartree/Particle)
 Thermal correction to Energy=                    0.387388
 Thermal correction to Enthalpy=                  0.388332
 Thermal correction to Gibbs Free Energy=         0.311156
 Sum of electronic and zero-point Energies=          -3554.189948
 Sum of electronic and thermal Energies=             -3554.167736
 Sum of electronic and thermal Enthalpies=           -3554.166791
 Sum of electronic and thermal Free Energies=        -3554.243968

                     E (Thermal)             CV                S
                      KCal/Mol        Cal/Mol-Kelvin    Cal/Mol-Kelvin
 Total                  243.090             84.891            162.432
 Electronic               0.000              0.000              0.000
 Translational            0.889              2.981             43.798
 Rotational               0.889              2.981             35.363
 Vibrational            241.312             78.929             83.270
 Vibration     1          0.593              1.986              7.019
 Vibration     2          0.593              1.984              6.032
 Vibration     3          0.594              1.981              5.276
 Vibration     4          0.596              1.977              4.767
 Vibration     5          0.596              1.976              4.702
 Vibration     6          0.597              1.973              4.419
 Vibration     7          0.599              1.967              4.085
 Vibration     8          0.602              1.955              3.632
 Vibration     9          0.613              1.919              2.885
 Vibration    10          0.614              1.916              2.847
 Vibration    11          0.614              1.916              2.836
 Vibration    12          0.623              1.887              2.504
 Vibration    13          0.633              1.856              2.245
 Vibration    14          0.634              1.851              2.206
 Vibration    15          0.635              1.847              2.182
 Vibration    16          0.640              1.833              2.088
 Vibration    17          0.659              1.773              1.774
 Vibration    18          0.673              1.731              1.607
 Vibration    19          0.674              1.728              1.593
 Vibration    20          0.698              1.658              1.372
 Vibration    21          0.704              1.640              1.322
 Vibration    22          0.724              1.584              1.186
 Vibration    23          0.754              1.502              1.018
 Vibration    24          0.775              1.447              0.924
 Vibration    25          0.780              1.434              0.904
 Vibration    26          0.781              1.430              0.897
 Vibration    27          0.787              1.416              0.875
 Vibration    28          0.840              1.287              0.701
 Vibration    29          0.864              1.231              0.637
 Vibration    30          0.916              1.117              0.523
 Vibration    31          0.935              1.079              0.489

 Optimization completed.
    -- Stationary point found.
 Normal termination of Gaussian 16 at Mon Jun  6 19:15:41 2022.
