 Gaussian 16, Revision A.03,
 Gaussian 16:  ES64L-G16RevA.03 25-Dec-2016

 ----------------------------------------------------------------------
 # wB97XD def2tzvp, opt=(ts, noeigen, calcfc, maxcycles=70, maxstep=8),
  freq=noraman, scrf=(iefpcm, solvent=water)
 ----------------------------------------------------------------------

 ------------------------
 0_iteration/TS-309-0.out
 ------------------------
 Symbolic Z-matrix:
 Charge =  0 Multiplicity = 1

 SCF Done:  E(RwB97XD) =  -2995.41314925     A.U. after   14 cycles
 SCF Done:  E(RwB97XD) =  -2995.41315282     A.U. after   12 cycles
 SCF Done:  E(RwB97XD) =  -2995.41318652     A.U. after   10 cycles
 SCF Done:  E(RwB97XD) =  -2995.41330777     A.U. after   11 cycles
 SCF Done:  E(RwB97XD) =  -2995.41360879     A.U. after   12 cycles
 SCF Done:  E(RwB97XD) =  -2995.41370575     A.U. after   11 cycles
 SCF Done:  E(RwB97XD) =  -2995.41380033     A.U. after   12 cycles
 SCF Done:  E(RwB97XD) =  -2995.41382427     A.U. after   11 cycles
 SCF Done:  E(RwB97XD) =  -2995.41385216     A.U. after   12 cycles
 SCF Done:  E(RwB97XD) =  -2995.41388435     A.U. after   11 cycles
 SCF Done:  E(RwB97XD) =  -2995.41389243     A.U. after   10 cycles
 SCF Done:  E(RwB97XD) =  -2995.41389224     A.U. after   10 cycles
 SCF Done:  E(RwB97XD) =  -2995.41389333     A.U. after    9 cycles
 SCF Done:  E(RwB97XD) =  -2995.41387199     A.U. after   10 cycles
 SCF Done:  E(RwB97XD) =  -2995.41389326     A.U. after   10 cycles
 SCF Done:  E(RwB97XD) =  -2995.41389340     A.U. after    7 cycles
 Optimization completed.
    -- Stationary point found.
 Normal termination of Gaussian 16 at Fri Feb 12 14:37:41 2021.

 ---------------------------------------------------------------------
 #N Geom=AllCheck Guess=TCheck SCRF=Check GenChk RwB97XD/def2TZVP Freq
 ---------------------------------------------------------------------

 Structure from the checkpoint file:  "/beegfs/scratch/user/q/tla25/Gau-62283.chk"
 ------------------------
 0_iteration/TS-309-0.out
 ------------------------
 Charge =  0 Multiplicity = 1

                         Standard orientation:
 ---------------------------------------------------------------------
 Center     Atomic      Atomic             Coordinates (Angstroms)
 Number     Number       Type             X           Y           Z
 ---------------------------------------------------------------------
      1          6           0        0.062801   -0.007297    0.416616
      2          6           0        1.033408   -1.007247    0.051413
      3          8           0        0.749138   -2.218581    0.024415
      4          6           0       -1.287118   -0.249382    0.695017
      5          6           0       -3.700115   -0.383924   -0.891839
      6          1           0       -4.127490   -0.279864   -1.889540
      7          1           0       -4.041983   -1.320223   -0.457445
      8          1           0       -4.043835    0.441854   -0.269843
      9          7           0       -2.237432   -0.371835   -0.928417
     10          1           0       -1.861109   -1.202911   -1.370633
     11          1           0       -1.889521    0.429402   -1.442276
     12          1           0       -1.827435    0.629497    1.033159
     13          6           0       -1.753947   -1.505234    1.388544
     14          1           0       -1.297240   -1.544616    2.378457
     15          1           0       -2.835315   -1.491013    1.520166
     16          1           0       -1.452644   -2.396947    0.847478
     17         35           0        0.496268    1.851713    0.089479
     18          7           0        2.297200   -0.612266   -0.269526
     19          6           0        3.341024   -1.569817   -0.540332
     20          1           0        2.550803    0.351196   -0.152511
     21          1           0        3.054858   -2.238964   -1.352803
     22          1           0        4.238165   -1.029484   -0.836518
     23          1           0        3.575569   -2.183124    0.334319
 ---------------------------------------------------------------------

 SCF Done:  E(RwB97XD) =  -2995.41389340     A.U. after    1 cycles

 The electronic state is 1-A.
 Alpha  occ. eigenvalues -- -483.11776 -62.66622 -56.45707 -56.45402 -56.45387
 Alpha  occ. eigenvalues --  -19.19156 -14.48413 -14.43818 -10.37174 -10.34137
 Alpha  occ. eigenvalues --  -10.31897 -10.30360 -10.29227 -10.27525  -8.80741
 Alpha  occ. eigenvalues --   -6.62796  -6.61824  -6.61775  -2.73199  -2.72926
 Alpha  occ. eigenvalues --   -2.72885  -2.72099  -2.72098  -1.11848  -1.03910
 Alpha  occ. eigenvalues --   -1.00531  -0.92002  -0.86092  -0.80576  -0.79278
 Alpha  occ. eigenvalues --   -0.76139  -0.69741  -0.65548  -0.62941  -0.58846
 Alpha  occ. eigenvalues --   -0.55485  -0.55109  -0.54197  -0.53086  -0.52487
 Alpha  occ. eigenvalues --   -0.49378  -0.49028  -0.48072  -0.46902  -0.46267
 Alpha  occ. eigenvalues --   -0.45139  -0.43903  -0.42151  -0.38658  -0.37097
 Alpha  occ. eigenvalues --   -0.33090  -0.32512  -0.26038
 Alpha virt. eigenvalues --    0.07075   0.08392   0.10365   0.12929   0.14110
 Alpha virt. eigenvalues --    0.14302   0.15550   0.16496   0.16893   0.17997
 Alpha virt. eigenvalues --    0.19003   0.19390   0.20358   0.20968   0.21500

 Mulliken charges:
               1
     1  C   -0.178821
     2  C    0.330547
     3  O   -0.571703
     4  C   -0.059778
     5  C   -0.292793
     6  H    0.155109
     7  H    0.159611
     8  H    0.152769
     9  N   -0.315189
    10  H    0.283768
    11  H    0.280532
    12  H    0.154912
    13  C   -0.354107
    14  H    0.137089
    15  H    0.137800
    16  H    0.143928
    17  Br  -0.210221
    18  N   -0.334578
    19  C   -0.245109
    20  H    0.245540
    21  H    0.123935
    22  H    0.137058
    23  H    0.119701
 Sum of Mulliken charges =  -0.00000

 Dipole moment (field-independent basis, Debye):
    X=             -5.9820    Y=              1.5614    Z=             -2.7999  Tot=              6.7868
 Quadrupole moment (field-independent basis, Debye-Ang):
   XX=            -49.0857   YY=            -87.0318   ZZ=            -71.4695
   XY=              4.1396   XZ=              3.7721   YZ=              0.6438

  Exact polarizability: 198.012   0.720 163.356   2.030  -2.792 125.176
 Approx polarizability: 143.273   2.753 136.248   1.040  -1.382 107.967

 ******    1 imaginary frequencies (negative Signs) ******

                      1                      2                      3
                      A                      A                      A
 Frequencies --   -347.1079                33.5795                51.3900
 Red. masses --      6.1856                 3.4902                 1.9345
 Frc consts  --      0.4391                 0.0023                 0.0030
 IR Inten    --    918.6850                 8.0228                 4.1999

                      4                      5                      6
                      A                      A                      A
 Frequencies --     58.7543                93.4137               114.4075
 Red. masses --      4.0288                 2.2947                 2.8218
 Frc consts  --      0.0082                 0.0118                 0.0218
 IR Inten    --     29.0739                 6.9596                24.0784

                      7                      8                      9
                      A                      A                      A
 Frequencies --    138.1250               139.0625               161.2992
 Red. masses --      1.3700                 1.2291                 2.9171
 Frc consts  --      0.0154                 0.0140                 0.0447
 IR Inten    --      8.9025                 1.8469                11.3624

                     10                     11                     12
                      A                      A                      A
 Frequencies --    191.3321               203.7725               249.6662
 Red. masses --      1.6657                 4.3685                 1.8834
 Frc consts  --      0.0359                 0.1069                 0.0692
 IR Inten    --     14.6470                 4.8692                 5.2743

                     13                     14                     15
                      A                      A                      A
 Frequencies --    294.1374               305.1775               376.6681
 Red. masses --      3.6463                 3.5515                 1.9027
 Frc consts  --      0.1859                 0.1949                 0.1591
 IR Inten    --     36.2007                 6.0369                62.7837

                     16                     17                     18
                      A                      A                      A
 Frequencies --    388.4727               411.0185               443.0055
 Red. masses --      1.9753                 3.6971                 3.9396
 Frc consts  --      0.1756                 0.3680                 0.4555
 IR Inten    --     28.1811                 5.2408               153.1106

                     19                     20                     21
                      A                      A                      A
 Frequencies --    578.6408               679.4852               772.1202
 Red. masses --      3.5858                 1.3255                 7.9235
 Frc consts  --      0.7074                 0.3606                 2.7831
 IR Inten    --     31.3314                32.4150                45.3660

                     22                     23                     24
                      A                      A                      A
 Frequencies --    780.3254               942.9936               958.5095
 Red. masses --      3.8076                 3.8434                 1.7708
 Frc consts  --      1.3660                 2.0136                 0.9585
 IR Inten    --     29.1488                82.0095                21.2746

                     25                     26                     27
                      A                      A                      A
 Frequencies --   1002.1994              1046.2214              1051.5582
 Red. masses --      1.1697                 1.4558                 1.3270
 Frc consts  --      0.6922                 0.9388                 0.8645
 IR Inten    --      9.6155                13.2446                78.3057

                     28                     29                     30
                      A                      A                      A
 Frequencies --   1078.3522              1111.8342              1155.8252
 Red. masses --      2.9433                 2.2021                 1.3079
 Frc consts  --      2.0165                 1.6039                 1.0295
 IR Inten    --    202.7786                44.4289                 6.4486

                     31                     32                     33
                      A                      A                      A
 Frequencies --   1160.9740              1183.1264              1199.8036
 Red. masses --      2.5157                 1.6979                 1.1837
 Frc consts  --      1.9978                 1.4003                 1.0039
 IR Inten    --     11.9550                70.0269               171.7424

                     34                     35                     36
                      A                      A                      A
 Frequencies --   1232.3121              1278.2748              1346.7038
 Red. masses --      1.4182                 1.8455                 1.2996
 Frc consts  --      1.2689                 1.7767                 1.3887
 IR Inten    --     23.9934               101.0714                 1.4178

                     37                     38                     39
                      A                      A                      A
 Frequencies --   1370.8718              1403.5524              1445.1697
 Red. masses --      1.9319                 1.2851                 1.8413
 Frc consts  --      2.1391                 1.4916                 2.2657
 IR Inten    --    389.2017                75.7569               254.3959

                     40                     41                     42
                      A                      A                      A
 Frequencies --   1455.4937              1465.9985              1470.6895
 Red. masses --      1.2084                 1.2221                 1.1624
 Frc consts  --      1.5083                 1.5475                 1.4813
 IR Inten    --     31.2258                60.8695                20.0253

                     43                     44                     45
                      A                      A                      A
 Frequencies --   1476.5119              1492.6625              1500.3722
 Red. masses --      1.0612                 1.0760                 1.1007
 Frc consts  --      1.3630                 1.4125                 1.4599
 IR Inten    --     17.4687                33.2041                25.5237

                     46                     47                     48
                      A                      A                      A
 Frequencies --   1509.5217              1511.3726              1560.3900
 Red. masses --      1.0726                 1.0808                 1.9441
 Frc consts  --      1.4400                 1.4546                 2.7889
 IR Inten    --      7.8764                44.3279               722.7151

                     49                     50                     51
                      A                      A                      A
 Frequencies --   1627.6414              1646.1964              3040.0798
 Red. masses --      5.4891                 1.0982                 1.0413
 Frc consts  --      8.5678                 1.7534                 5.6701
 IR Inten    --    463.9366                49.3960                99.7567

                     52                     53                     54
                      A                      A                      A
 Frequencies --   3069.5117              3072.7869              3103.9930
 Red. masses --      1.0344                 1.0376                 1.0969
 Frc consts  --      5.7424                 5.7720                 6.2270
 IR Inten    --     47.5024                34.9294                47.7747

                     55                     56                     57
                      A                      A                      A
 Frequencies --   3140.0430              3144.3203              3153.4011
 Red. masses --      1.1013                 1.1049                 1.1019
 Frc consts  --      6.3978                 6.4362                 6.4560
 IR Inten    --     33.0171                19.3066                26.3954

                     58                     59                     60
                      A                      A                      A
 Frequencies --   3155.1247              3173.2747              3183.4636
 Red. masses --      1.0908                 1.1043                 1.1014
 Frc consts  --      6.3980                 6.5516                 6.5764
 IR Inten    --     12.3741                16.7205                 7.4862

                     61                     62                     63
                      A                      A                      A
 Frequencies --   3523.5939              3602.6913              3685.3054
 Red. masses --      1.0512                 1.0964                 1.0775
 Frc consts  --      7.6893                 8.3842                 8.6217
 IR Inten    --     19.1703                49.1455                71.5191

 - Thermochemistry -
 -------------------
 Temperature   298.150 Kelvin.  Pressure   1.00000 Atm.
 Atom     1 has atomic number  6 and mass  12.00000

 Molecular mass:   208.02112 amu.
 Principal axes and moments of inertia in atomic units:
                           1         2         3
     Eigenvalues --  1883.437492633.193853958.46942
           X            0.99893  -0.04608  -0.00260
           Y            0.04605   0.99890  -0.00882
           Z            0.00300   0.00869   0.99996
 This molecule is an asymmetric top.
 Rotational symmetry number  1.
 Warning -- assumption of classical behavior for rotation
           may cause significant error
 Rotational temperatures (Kelvin)      0.04599     0.03289     0.02188
 Rotational constants (GHZ):           0.95822     0.68538     0.45592
    1 imaginary frequencies ignored.
 Zero-point vibrational energy     509588.7 (Joules/Mol)
                                  121.79462 (Kcal/Mol)
 Warning -- explicit consideration of  18 degrees of freedom as
           vibrations may cause significant error
 Vibrational temperatures:     48.31    73.94    84.53   134.40   164.61
          (Kelvin)            198.73   200.08   232.07   275.28   293.18
                              359.21   423.20   439.08   541.94   558.93
                              591.36   637.39   832.54   977.63  1110.91
                             1122.71  1356.76  1379.08  1441.94  1505.28
                             1512.96  1551.51  1599.68  1662.97  1670.38
                             1702.26  1726.25  1773.02  1839.15  1937.61
                             1972.38  2019.40  2079.28  2094.13  2109.24
                             2115.99  2124.37  2147.61  2158.70  2171.86
                             2174.53  2245.05  2341.81  2368.51  4374.00
                             4416.34  4421.06  4465.95  4517.82  4523.98
                             4537.04  4539.52  4565.63  4580.29  5069.67
                             5183.47  5302.33

 Zero-point correction=                           0.194092 (Hartree/Particle)
 Thermal correction to Energy=                    0.207414
 Thermal correction to Enthalpy=                  0.208358
 Thermal correction to Gibbs Free Energy=         0.152249
 Sum of electronic and zero-point Energies=          -2995.219801
 Sum of electronic and thermal Energies=             -2995.206480
 Sum of electronic and thermal Enthalpies=           -2995.205536
 Sum of electronic and thermal Free Energies=        -2995.261644

                     E (Thermal)             CV                S
                      KCal/Mol        Cal/Mol-Kelvin    Cal/Mol-Kelvin
 Total                  130.154             44.393            118.090
 Electronic               0.000              0.000              0.000
 Translational            0.889              2.981             41.901
 Rotational               0.889              2.981             31.352
 Vibrational            128.376             38.431             44.837
 Vibration     1          0.594              1.983              5.606
 Vibration     2          0.596              1.977              4.763
 Vibration     3          0.596              1.974              4.499
 Vibration     4          0.602              1.954              3.587
 Vibration     5          0.607              1.937              3.193
 Vibration     6          0.614              1.915              2.830
 Vibration     7          0.615              1.914              2.817
 Vibration     8          0.622              1.890              2.535
 Vibration     9          0.634              1.852              2.215
 Vibration    10          0.639              1.835              2.099
 Vibration    11          0.662              1.763              1.733
 Vibration    12          0.689              1.685              1.450
 Vibration    13          0.696              1.664              1.388
 Vibration    14          0.747              1.520              1.053
 Vibration    15          0.757              1.495              1.006
 Vibration    16          0.775              1.446              0.923
 Vibration    17          0.803              1.376              0.817
 Vibration    18          0.935              1.077              0.488

 Optimization completed.
    -- Stationary point found.
 Normal termination of Gaussian 16 at Fri Feb 12 14:57:11 2021.
