 Gaussian 16, Revision A.03,
 Gaussian 16:  ES64L-G16RevA.03 25-Dec-2016

 ----------------------------------------------------------------------
 # wB97XD def2tzvp, opt=(ts, noeigen, calcfc, maxcycles=70, maxstep=1),
  freq=noraman, scrf=(iefpcm, solvent=water)
 ----------------------------------------------------------------------

 ------------------------
 0_iteration/TS-387-0.out
 ------------------------
 Symbolic Z-matrix:
 Charge =  0 Multiplicity = 1

 SCF Done:  E(RwB97XD) =  -3376.39385250     A.U. after   15 cycles
 Optimization completed.
    -- Stationary point found.
 Normal termination of Gaussian 16 at Tue Mar  2 02:18:34 2021.

 ---------------------------------------------------------------------
 #N Geom=AllCheck Guess=TCheck SCRF=Check GenChk RwB97XD/def2TZVP Freq
 ---------------------------------------------------------------------

 Structure from the checkpoint file:  "/beegfs/scratch/user/q/tla25/Gau-29223.chk"
 ------------------------
 0_iteration/TS-387-0.out
 ------------------------
 Charge =  0 Multiplicity = 1

                         Standard orientation:
 ---------------------------------------------------------------------
 Center     Atomic      Atomic             Coordinates (Angstroms)
 Number     Number       Type             X           Y           Z
 ---------------------------------------------------------------------
      1          6           0       -0.403750    0.244021    0.193101
      2          6           0       -0.622872    1.548441   -0.405819
      3          8           0        0.325828    2.264412   -0.743989
      4          6           0        0.828510   -0.266198    0.528381
      5          6           0        3.096571   -1.456446   -0.973309
      6          1           0        3.519671   -1.699896   -1.949269
      7          1           0        3.795420   -0.821906   -0.432339
      8          1           0        2.948312   -2.377626   -0.411419
      9          7           0        1.818590   -0.761497   -1.095259
     10          1           0        1.906420    0.136113   -1.558719
     11          1           0        1.136371   -1.311578   -1.603429
     12          1           0        0.863591   -1.257568    0.955801
     13         17           0        2.061159    0.744203    1.277581
     14         35           0       -1.825659   -1.044310    0.180051
     15          7           0       -1.900512    1.957670   -0.604059
     16          1           0       -2.688251    1.446229   -0.251809
     17          1           0       -2.047083    2.878230   -0.976509
 ---------------------------------------------------------------------

 SCF Done:  E(RwB97XD) =  -3376.39385250     A.U. after    1 cycles

 The electronic state is 1-A.
 Alpha  occ. eigenvalues -- -483.12940-101.70076 -62.67779 -56.46885 -56.46550
 Alpha  occ. eigenvalues --  -56.46533 -19.20628 -14.47909 -14.44346 -10.39399
 Alpha  occ. eigenvalues --  -10.39001 -10.31665 -10.31287  -9.58650  -8.81896
 Alpha  occ. eigenvalues --   -7.33307  -7.32438  -7.32379  -6.64018  -6.62946
 Alpha  occ. eigenvalues --   -6.62891  -2.74411  -2.74109  -2.74063  -2.73197
 Alpha  occ. eigenvalues --   -2.73196  -1.13342  -1.03622  -1.00106  -0.97408
 Alpha  occ. eigenvalues --   -0.91311  -0.82042  -0.78545  -0.74441  -0.65906
 Alpha  occ. eigenvalues --   -0.62860  -0.62009  -0.57228  -0.56026  -0.54735
 Alpha  occ. eigenvalues --   -0.53222  -0.51514  -0.50546  -0.47926  -0.46943
 Alpha  occ. eigenvalues --   -0.45898  -0.40402  -0.40356  -0.39064  -0.37770
 Alpha  occ. eigenvalues --   -0.35213  -0.34006  -0.27830
 Alpha virt. eigenvalues --    0.03683   0.07014   0.09635   0.11734   0.13229
 Alpha virt. eigenvalues --    0.14806   0.15514   0.17399   0.17932   0.18520
 Alpha virt. eigenvalues --    0.19496   0.20403   0.21180   0.22784   0.25332

 Mulliken charges:
               1
     1  C   -0.160576
     2  C    0.295756
     3  O   -0.520236
     4  C   -0.014726
     5  C   -0.265699
     6  H    0.149317
     7  H    0.145602
     8  H    0.149637
     9  N   -0.364594
    10  H    0.281994
    11  H    0.280615
    12  H    0.195980
    13  Cl  -0.098731
    14  Br  -0.150433
    15  N   -0.469562
    16  H    0.274064
    17  H    0.271593
 Sum of Mulliken charges =  -0.00000

 Dipole moment (field-independent basis, Debye):
    X=              1.4210    Y=             -4.7144    Z=             -2.6635  Tot=              5.5982
 Quadrupole moment (field-independent basis, Debye-Ang):
   XX=            -60.6548   YY=            -75.0603   ZZ=            -71.9564
   XY=            -14.7216   XZ=             -4.2179   YZ=              3.0387

  Exact polarizability: 186.340  -6.601 143.417  -1.406   2.151 111.265
 Approx polarizability: 142.248   2.184 119.673  -0.825   0.724  97.747

 ******    1 imaginary frequencies (negative Signs) ******

                      1                      2                      3
                      A                      A                      A
 Frequencies --   -347.4141                36.1380                68.5892
 Red. masses --      6.6194                 4.4516                 4.9025
 Frc consts  --      0.4707                 0.0034                 0.0136
 IR Inten    --    847.2254                 8.0215                12.6941

                      4                      5                      6
                      A                      A                      A
 Frequencies --     85.5965                97.0968               126.3908
 Red. masses --      2.1491                 3.7646                 1.2198
 Frc consts  --      0.0093                 0.0209                 0.0115
 IR Inten    --     12.3597                 3.9314               330.4175

                      7                      8                      9
                      A                      A                      A
 Frequencies --    160.8515               171.5505               187.0487
 Red. masses --      2.2100                 3.0670                 3.8288
 Frc consts  --      0.0337                 0.0532                 0.0789
 IR Inten    --      2.4084                 5.8404                41.9390

                     10                     11                     12
                      A                      A                      A
 Frequencies --    194.6596               268.8610               332.8412
 Red. masses --      4.8607                 6.5242                 4.6293
 Frc consts  --      0.1085                 0.2779                 0.3022
 IR Inten    --      7.1291                 0.8526                 5.3339

                     13                     14                     15
                      A                      A                      A
 Frequencies --    388.8820               419.0148               531.0502
 Red. masses --      5.2386                 5.4510                 3.2508
 Frc consts  --      0.4668                 0.5639                 0.5401
 IR Inten    --     57.1394               141.5603                11.5039

                     16                     17                     18
                      A                      A                      A
 Frequencies --    543.9342               633.3285               752.8680
 Red. masses --      1.1393                 1.4822                 5.1883
 Frc consts  --      0.1986                 0.3503                 1.7326
 IR Inten    --      8.6140                15.7900                50.8158

                     19                     20                     21
                      A                      A                      A
 Frequencies --    771.9786               779.8755               984.6015
 Red. masses --      4.4042                 8.2570                 2.0168
 Frc consts  --      1.5464                 2.9589                 1.1519
 IR Inten    --    184.6906                56.9770                 2.6768

                     22                     23                     24
                      A                      A                      A
 Frequencies --   1015.0506              1023.6820              1071.6508
 Red. masses --      1.3074                 1.1252                 3.6140
 Frc consts  --      0.7936                 0.6947                 2.4454
 IR Inten    --     26.2954               107.6995               207.5871

                     25                     26                     27
                      A                      A                      A
 Frequencies --   1090.0870              1118.5836              1209.0211
 Red. masses --      2.1797                 1.1542                 1.4124
 Frc consts  --      1.5261                 0.8509                 1.2164
 IR Inten    --     20.7495                51.2113                22.4225

                     28                     29                     30
                      A                      A                      A
 Frequencies --   1286.6082              1342.2136              1396.1253
 Red. masses --      1.3744                 1.3195                 3.0987
 Frc consts  --      1.3405                 1.4006                 3.5586
 IR Inten    --     19.0979                 2.2022               245.6217

                     31                     32                     33
                      A                      A                      A
 Frequencies --   1440.9976              1464.5277              1491.1482
 Red. masses --      3.3394                 1.4677                 1.0403
 Frc consts  --      4.0854                 1.8547                 1.3629
 IR Inten    --    864.7198               219.3628                16.3836

                     34                     35                     36
                      A                      A                      A
 Frequencies --   1502.7143              1596.7393              1646.2147
 Red. masses --      1.0331                 1.3564                 1.0893
 Frc consts  --      1.3745                 2.0375                 1.7393
 IR Inten    --     22.7933               310.4705                45.3791

                     37                     38                     39
                      A                      A                      A
 Frequencies --   1668.2666              3063.5913              3139.8580
 Red. masses --      5.8868                 1.0356                 1.1028
 Frc consts  --      9.6529                 5.7267                 6.4059
 IR Inten    --    612.7925                58.9404                18.1658

                     40                     41                     42
                      A                      A                      A
 Frequencies --   3168.2313              3228.0435              3523.7813
 Red. masses --      1.1050                 1.0925                 1.0508
 Frc consts  --      6.5350                 6.7076                 7.6878
 IR Inten    --     13.4353                 1.3861                23.2486

                     43                     44                     45
                      A                      A                      A
 Frequencies --   3607.5910              3629.8117              3758.1011
 Red. masses --      1.0967                 1.0454                 1.1056
 Frc consts  --      8.4093                 8.1156                 9.2003
 IR Inten    --     47.9766                96.8516                98.2964

 - Thermochemistry -
 -------------------
 Temperature   298.150 Kelvin.  Pressure   1.00000 Atm.
 Atom     1 has atomic number  6 and mass  12.00000

 Molecular mass:   213.95085 amu.
 Principal axes and moments of inertia in atomic units:
                           1         2         3
     Eigenvalues --  1572.641462908.382093637.99000
           X            0.99218  -0.12293  -0.02153
           Y            0.12331   0.99222   0.01735
           Z            0.01923  -0.01987   0.99962
 This molecule is an asymmetric top.
 Rotational symmetry number  1.
 Warning -- assumption of classical behavior for rotation
           may cause significant error
 Rotational temperatures (Kelvin)      0.05508     0.02978     0.02381
 Rotational constants (GHZ):           1.14759     0.62053     0.49608
    1 imaginary frequencies ignored.
 Zero-point vibrational energy     335060.8 (Joules/Mol)
                                   80.08146 (Kcal/Mol)
 Warning -- explicit consideration of  15 degrees of freedom as
           vibrations may cause significant error
 Vibrational temperatures:     51.99    98.68   123.15   139.70   181.85
          (Kelvin)            231.43   246.82   269.12   280.07   386.83
                              478.88   559.51   602.87   764.06   782.60
                              911.22  1083.21  1110.71  1122.07  1416.62
                             1460.43  1472.85  1541.87  1568.39  1609.39
                             1739.51  1851.14  1931.15  2008.71  2073.27
                             2107.13  2145.43  2162.07  2297.35  2368.54
                             2400.26  4407.82  4517.56  4558.38  4644.43
                             5069.94  5190.52  5222.49  5407.07

 Zero-point correction=                           0.127618 (Hartree/Particle)
 Thermal correction to Energy=                    0.139196
 Thermal correction to Enthalpy=                  0.140141
 Thermal correction to Gibbs Free Energy=         0.087812
 Sum of electronic and zero-point Energies=          -3376.266235
 Sum of electronic and thermal Energies=             -3376.254656
 Sum of electronic and thermal Enthalpies=           -3376.253712
 Sum of electronic and thermal Free Energies=        -3376.306040

                     E (Thermal)             CV                S
                      KCal/Mol        Cal/Mol-Kelvin    Cal/Mol-Kelvin
 Total                   87.347             37.919            110.134
 Electronic               0.000              0.000              0.000
 Translational            0.889              2.981             41.985
 Rotational               0.889              2.981             31.187
 Vibrational             85.570             31.957             36.962
 Vibration     1          0.594              1.982              5.460
 Vibration     2          0.598              1.969              4.193
 Vibration     3          0.601              1.959              3.758
 Vibration     4          0.603              1.951              3.512
 Vibration     5          0.611              1.927              3.000
 Vibration     6          0.622              1.890              2.540
 Vibration     7          0.626              1.877              2.418
 Vibration     8          0.632              1.858              2.257
 Vibration     9          0.635              1.847              2.183
 Vibration    10          0.673              1.730              1.604
 Vibration    11          0.715              1.610              1.246
 Vibration    12          0.757              1.494              1.004
 Vibration    13          0.782              1.429              0.895
 Vibration    14          0.886              1.181              0.585
 Vibration    15          0.899              1.153              0.557

 Optimization completed.
    -- Stationary point found.
 Normal termination of Gaussian 16 at Tue Mar  2 02:28:27 2021.
