 Gaussian 16, Revision A.03,
 Gaussian 16:  ES64L-G16RevA.03 25-Dec-2016

 ----------------------------------------------------------------------
 # wB97XD def2tzvp, opt=(ts, noeigen, calcfc, maxcycles=70, maxstep=1),
  freq=noraman, scrf=(iefpcm, solvent=water)
 ----------------------------------------------------------------------

 ------------------------
 0_iteration/TS-351-0.out
 ------------------------
 Symbolic Z-matrix:
 Charge =  0 Multiplicity = 1

 SCF Done:  E(RwB97XD) =  -5721.44163613     A.U. after   15 cycles
 SCF Done:  E(RwB97XD) =  -5721.44163643     A.U. after    8 cycles
 Optimization completed.
    -- Stationary point found.
 Normal termination of Gaussian 16 at Tue Mar  2 03:28:37 2021.

 ---------------------------------------------------------------------
 #N Geom=AllCheck Guess=TCheck SCRF=Check GenChk RwB97XD/def2TZVP Freq
 ---------------------------------------------------------------------

 Structure from the checkpoint file:  "/beegfs/scratch/user/q/tla25/Gau-65284.chk"
 ------------------------
 0_iteration/TS-351-0.out
 ------------------------
 Charge =  0 Multiplicity = 1

                         Standard orientation:
 ---------------------------------------------------------------------
 Center     Atomic      Atomic             Coordinates (Angstroms)
 Number     Number       Type             X           Y           Z
 ---------------------------------------------------------------------
      1          6           0       -1.232031   -0.473409   -0.239822
      2          6           0        0.133712   -0.984574   -0.239079
      3          8           0        0.396052   -2.162369   -0.458048
      4          6           0       -1.734758    0.788589   -0.022650
      5          6           0       -1.979414    0.178762    2.704367
      6          1           0       -1.813463    0.420728    3.753652
      7          1           0       -3.006571   -0.150357    2.564450
      8          1           0       -1.307985   -0.628630    2.411939
      9          7           0       -1.721510    1.329806    1.846674
     10          1           0       -2.422540    2.054251    1.955881
     11          1           0       -0.818376    1.744762    2.046506
     12          1           0       -2.801567    0.908881   -0.129745
     13         35           0       -0.892547    2.385304   -0.750570
     14         35           0       -2.574116   -1.832202   -0.389794
     15          7           0        1.117693   -0.067120    0.050952
     16          6           0        2.507180   -0.243042    0.063623
     17          6           0        3.143835   -1.484032    0.043324
     18          6           0        4.530407   -1.545321    0.080115
     19          6           0        5.301443   -0.395605    0.141758
     20          6           0        4.665991    0.838938    0.168197
     21          6           0        3.286145    0.916348    0.128870
     22          1           0        0.831950    0.894549    0.123060
     23          1           0        2.555495   -2.385066   -0.003223
     24          1           0        5.009742   -2.516482    0.062502
     25          1           0        6.381410   -0.458011    0.170538
     26          1           0        5.247233    1.751147    0.217728
     27          1           0        2.801132    1.885889    0.148221
 ---------------------------------------------------------------------

 SCF Done:  E(RwB97XD) =  -5721.44163643     A.U. after    1 cycles

 The electronic state is 1-A.
 Alpha  occ. eigenvalues -- -483.14496-483.12434 -62.69342 -62.67262 -56.48458
 Alpha  occ. eigenvalues --  -56.48105 -56.48092 -56.46379 -56.46023 -56.46019
 Alpha  occ. eigenvalues --  -19.21376 -14.49355 -14.46919 -10.39898 -10.39754
 Alpha  occ. eigenvalues --  -10.34021 -10.32024 -10.32023 -10.29149 -10.29006
 Alpha  occ. eigenvalues --  -10.28986 -10.28380 -10.28365  -8.83450  -8.81372
 Alpha  occ. eigenvalues --   -6.65600  -6.64474  -6.64435  -6.63524  -6.62386
 Alpha  occ. eigenvalues --   -6.62371  -2.75984  -2.75668  -2.75636  -2.74727
 Alpha  occ. eigenvalues --   -2.74725  -2.73912  -2.73580  -2.73568  -2.72647
 Alpha  occ. eigenvalues --   -2.72647  -1.14619  -1.04852  -1.04396  -0.96082
 Alpha  occ. eigenvalues --   -0.94586  -0.89926  -0.85503  -0.85197  -0.81269
 Alpha  occ. eigenvalues --   -0.79328  -0.75533  -0.72014  -0.69438  -0.65833
 Alpha  occ. eigenvalues --   -0.63801  -0.62717  -0.58846  -0.58231  -0.57764
 Alpha  occ. eigenvalues --   -0.55107  -0.54125  -0.53577  -0.52470  -0.52088
 Alpha  occ. eigenvalues --   -0.51581  -0.50260  -0.48382  -0.47375  -0.45900
 Alpha  occ. eigenvalues --   -0.45269  -0.44678  -0.43056  -0.40707  -0.39296
 Alpha  occ. eigenvalues --   -0.38479  -0.38208  -0.37166  -0.34660  -0.33803
 Alpha  occ. eigenvalues --   -0.30871  -0.27750
 Alpha virt. eigenvalues --    0.01931   0.03816   0.05263   0.07439   0.08418
 Alpha virt. eigenvalues --    0.10361   0.13083   0.13869   0.14270   0.15557
 Alpha virt. eigenvalues --    0.16427   0.16915   0.17614   0.18022   0.18916

 Mulliken charges:
               1
     1  C   -0.217200
     2  C    0.369100
     3  O   -0.502580
     4  C   -0.075568
     5  C   -0.287964
     6  H    0.162613
     7  H    0.162762
     8  H    0.154969
     9  N   -0.327621
    10  H    0.295810
    11  H    0.285710
    12  H    0.208988
    13  Br  -0.089757
    14  Br  -0.129523
    15  N   -0.245850
    16  C    0.294269
    17  C   -0.295447
    18  C   -0.105602
    19  C   -0.193930
    20  C   -0.105696
    21  C   -0.298085
    22  H    0.208810
    23  H    0.159891
    24  H    0.142064
    25  H    0.141106
    26  H    0.143936
    27  H    0.144794
 Sum of Mulliken charges =  -0.00000

 Dipole moment (field-independent basis, Debye):
    X=             -2.9437    Y=              9.1879    Z=              7.0222  Tot=             11.9329
 Quadrupole moment (field-independent basis, Debye-Ang):
   XX=           -103.0426   YY=           -116.4814   ZZ=           -106.8644
   XY=             -6.7293   XZ=            -10.1804   YZ=              4.2797

  Exact polarizability: 304.773   3.324 287.955  -7.564  11.404 184.586
 Approx polarizability: 228.485   3.608 238.116  -3.847   8.714 157.521

 ******    1 imaginary frequencies (negative Signs) ******

                      1                      2                      3
                      A                      A                      A
 Frequencies --   -357.4235                19.4826                32.1376
 Red. masses --      5.9887                 3.9797                 4.6391
 Frc consts  --      0.4508                 0.0009                 0.0028
 IR Inten    --    817.5039                 0.6025                 2.9971

                      4                      5                      6
                      A                      A                      A
 Frequencies --     54.1747                65.4411                68.2691
 Red. masses --      4.2356                 3.0477                 7.5060
 Frc consts  --      0.0073                 0.0077                 0.0206
 IR Inten    --      0.7166                10.5318                15.2217

                      7                      8                      9
                      A                      A                      A
 Frequencies --     85.7363               117.2225               140.5789
 Red. masses --      6.0893                 4.6694                10.6065
 Frc consts  --      0.0264                 0.0378                 0.1235
 IR Inten    --      9.6194                 4.1179                 0.6988

                     10                     11                     12
                      A                      A                      A
 Frequencies --    162.5444               191.6777               215.1125
 Red. masses --      7.4938                 1.1231                 5.4327
 Frc consts  --      0.1167                 0.0243                 0.1481
 IR Inten    --      5.7690                 2.1950                 4.9664

                     13                     14                     15
                      A                      A                      A
 Frequencies --    241.8431               261.1460               271.8429
 Red. masses --      6.8268                 7.0204                 3.9656
 Frc consts  --      0.2353                 0.2821                 0.1727
 IR Inten    --      4.4314                11.9509                22.3221

                     16                     17                     18
                      A                      A                      A
 Frequencies --    298.2549               363.1275               423.8817
 Red. masses --      5.8489                 6.9396                 2.9795
 Frc consts  --      0.3065                 0.5391                 0.3154
 IR Inten    --     10.6905                 8.6240                 0.4957

                     19                     20                     21
                      A                      A                      A
 Frequencies --    448.8548               524.6184               546.4876
 Red. masses --      4.2524                 2.2997                 1.5090
 Frc consts  --      0.5048                 0.3729                 0.2655
 IR Inten    --     60.6649                71.5519                46.3147

                     22                     23                     24
                      A                      A                      A
 Frequencies --    561.5528               588.0404               635.7201
 Red. masses --      4.3898                 2.6928                 6.1526
 Frc consts  --      0.8156                 0.5486                 1.4650
 IR Inten    --     41.6501                48.3896                 4.5807

                     25                     26                     27
                      A                      A                      A
 Frequencies --    675.0617               715.8578               720.8314
 Red. masses --      3.5181                 2.5045                 2.0078
 Frc consts  --      0.9446                 0.7562                 0.6147
 IR Inten    --    143.7030                43.5645                85.8185

                     28                     29                     30
                      A                      A                      A
 Frequencies --    769.3827               784.1759               796.0127
 Red. masses --      9.7074                 1.8535                 5.1155
 Frc consts  --      3.3856                 0.6715                 1.9098
 IR Inten    --     25.4257               102.6536                11.3940

                     31                     32                     33
                      A                      A                      A
 Frequencies --    862.2095               896.3616               935.5902
 Red. masses --      1.2609                 5.8652                 1.4687
 Frc consts  --      0.5523                 2.7765                 0.7574
 IR Inten    --      0.4269                34.2692                12.2074

                     34                     35                     36
                      A                      A                      A
 Frequencies --   1003.1165              1004.8417              1008.8898
 Red. masses --      1.3611                 2.2535                 1.3315
 Frc consts  --      0.8070                 1.3406                 0.7985
 IR Inten    --      0.1846                 1.1760                32.2540

                     37                     38                     39
                      A                      A                      A
 Frequencies --   1020.1751              1021.4320              1032.4961
 Red. masses --      1.2923                 5.1487                 1.2113
 Frc consts  --      0.7924                 3.1650                 0.7608
 IR Inten    --      0.7192                 6.7181                76.4670

                     40                     41                     42
                      A                      A                      A
 Frequencies --   1065.6835              1078.9127              1118.4372
 Red. masses --      2.0587                 4.8690                 1.1206
 Frc consts  --      1.3775                 3.3394                 0.8259
 IR Inten    --     19.9531                64.8255                65.0924

                     43                     44                     45
                      A                      A                      A
 Frequencies --   1124.4708              1182.9834              1209.4095
 Red. masses --      1.5155                 1.1261                 1.3247
 Frc consts  --      1.1290                 0.9285                 1.1416
 IR Inten    --     19.4648                 7.4651               133.8925

                     46                     47                     48
                      A                      A                      A
 Frequencies --   1216.3949              1225.1689              1275.5219
 Red. masses --      1.5053                 1.4231                 2.8039
 Frc consts  --      1.3123                 1.2585                 2.6877
 IR Inten    --     78.2679                62.0109               233.0868

                     49                     50                     51
                      A                      A                      A
 Frequencies --   1326.8565              1342.9302              1352.6021
 Red. masses --      1.8797                 1.4118                 3.2303
 Frc consts  --      1.9498                 1.5002                 3.4820
 IR Inten    --     10.9290                54.8400               460.5024

                     52                     53                     54
                      A                      A                      A
 Frequencies --   1364.6163              1426.6924              1467.0866
 Red. masses --      1.4915                 4.0896                 1.3481
 Frc consts  --      1.6365                 4.9045                 1.7096
 IR Inten    --     43.9870               683.0012                76.2601

                     55                     56                     57
                      A                      A                      A
 Frequencies --   1482.2790              1492.8185              1503.1706
 Red. masses --      2.1463                 1.0423                 1.0337
 Frc consts  --      2.7784                 1.3686                 1.3761
 IR Inten    --    178.9354                25.5001                14.9491

                     58                     59                     60
                      A                      A                      A
 Frequencies --   1546.4005              1579.3834              1646.0448
 Red. masses --      2.3921                 2.0025                 1.0886
 Frc consts  --      3.3704                 2.9431                 1.7378
 IR Inten    --    220.6507               569.5675                63.9131

                     61                     62                     63
                      A                      A                      A
 Frequencies --   1662.8109              1673.6440              1693.0210
 Red. masses --      5.6809                 4.8375                 6.1286
 Frc consts  --      9.2546                 7.9835                10.3499
 IR Inten    --    151.6583                46.1275               719.9448

                     64                     65                     66
                      A                      A                      A
 Frequencies --   3072.1479              3150.0194              3172.1211
 Red. masses --      1.0330                 1.1049                 1.1058
 Frc consts  --      5.7441                 6.4597                 6.5560
 IR Inten    --     25.8661                10.2812                12.2977

                     67                     68                     69
                      A                      A                      A
 Frequencies --   3187.2351              3197.3158              3207.2241
 Red. masses --      1.0882                 1.0882                 1.0930
 Frc consts  --      6.5131                 6.5546                 6.6244
 IR Inten    --     12.6696                 3.0633                27.7283

                     70                     71                     72
                      A                      A                      A
 Frequencies --   3222.2563              3242.2557              3276.4905
 Red. masses --      1.0980                 1.0919                 1.0922
 Frc consts  --      6.7168                 6.7627                 6.9080
 IR Inten    --     22.2066                 2.6236                 4.2412

                     73                     74                     75
                      A                      A                      A
 Frequencies --   3523.7884              3606.0967              3635.3558
 Red. masses --      1.0506                 1.0964                 1.0763
 Frc consts  --      7.6863                 8.4000                 8.3806
 IR Inten    --     63.0080                54.3730               138.5965

 - Thermochemistry -
 -------------------
 Temperature   298.150 Kelvin.  Pressure   1.00000 Atm.
 Atom     1 has atomic number  6 and mass  12.00000

 Molecular mass:   333.93164 amu.
 Principal axes and moments of inertia in atomic units:
                           1         2         3
     Eigenvalues --  4176.553698148.50865**********
           X            0.99927  -0.03343  -0.01838
           Y            0.03388   0.99911   0.02507
           Z            0.01752  -0.02567   0.99952
 This molecule is an asymmetric top.
 Rotational symmetry number  1.
 Warning -- assumption of classical behavior for rotation
           may cause significant error
 Rotational temperatures (Kelvin)      0.02074     0.01063     0.00811
 Rotational constants (GHZ):           0.43211     0.22148     0.16894
    1 imaginary frequencies ignored.
 Zero-point vibrational energy     550963.1 (Joules/Mol)
                                  131.68333 (Kcal/Mol)
 Warning -- explicit consideration of  22 degrees of freedom as
           vibrations may cause significant error
 Vibrational temperatures:     28.03    46.24    77.95    94.16    98.22
          (Kelvin)            123.36   168.66   202.26   233.87   275.78
                              309.50   347.96   375.73   391.12   429.12
                              522.46   609.87   645.80   754.81   786.27
                              807.95   846.06   914.66   971.26  1029.96
                             1037.12  1106.97  1128.25  1145.28  1240.53
                             1289.66  1346.11  1443.26  1445.74  1451.57
                             1467.80  1469.61  1485.53  1533.28  1552.31
                             1609.18  1617.86  1702.05  1740.07  1750.12
                             1762.74  1835.19  1909.05  1932.18  1946.09
                             1963.38  2052.69  2110.81  2132.67  2147.83
                             2162.73  2224.93  2272.38  2368.29  2392.41
                             2408.00  2435.88  4420.14  4532.18  4563.97
                             4585.72  4600.22  4614.48  4636.11  4664.88
                             4714.14  5069.95  5188.37  5230.47

 Zero-point correction=                           0.209851 (Hartree/Particle)
 Thermal correction to Energy=                    0.225594
 Thermal correction to Enthalpy=                  0.226538
 Thermal correction to Gibbs Free Energy=         0.162651
 Sum of electronic and zero-point Energies=          -5721.231786
 Sum of electronic and thermal Energies=             -5721.216043
 Sum of electronic and thermal Enthalpies=           -5721.215099
 Sum of electronic and thermal Free Energies=        -5721.278986

                     E (Thermal)             CV                S
                      KCal/Mol        Cal/Mol-Kelvin    Cal/Mol-Kelvin
 Total                  141.562             55.413            134.461
 Electronic               0.000              0.000              0.000
 Translational            0.889              2.981             43.312
 Rotational               0.889              2.981             34.252
 Vibrational            139.785             49.452             56.897
 Vibration     1          0.593              1.986              6.686
 Vibration     2          0.594              1.983              5.693
 Vibration     3          0.596              1.976              4.659
 Vibration     4          0.597              1.971              4.286
 Vibration     5          0.598              1.969              4.203
 Vibration     6          0.601              1.959              3.755
 Vibration     7          0.608              1.935              3.146
 Vibration     8          0.615              1.913              2.796
 Vibration     9          0.623              1.888              2.520
 Vibration    10          0.634              1.851              2.212
 Vibration    11          0.645              1.818              2.000
 Vibration    12          0.658              1.776              1.789
 Vibration    13          0.669              1.744              1.654
 Vibration    14          0.675              1.725              1.584
 Vibration    15          0.691              1.677              1.427
 Vibration    16          0.737              1.548              1.109
 Vibration    17          0.786              1.418              0.879
 Vibration    18          0.808              1.363              0.799
 Vibration    19          0.880              1.195              0.599
 Vibration    20          0.902              1.147              0.551
 Vibration    21          0.917              1.114              0.521
 Vibration    22          0.945              1.057              0.471

 Optimization completed.
    -- Stationary point found.
 Normal termination of Gaussian 16 at Tue Mar  2 04:20:43 2021.
