 Gaussian 16, Revision A.03,
 Gaussian 16:  ES64L-G16RevA.03 25-Dec-2016

 ----------------------------------------------------------------------
 # wB97XD def2tzvp, opt=(ts, noeigen, calcfc, maxcycles=70, maxstep=1),
  freq=noraman, scrf=(iefpcm, solvent=water)
 ----------------------------------------------------------------------

 ------------------------
 0_iteration/TS-345-0.out
 ------------------------
 Symbolic Z-matrix:
 Charge =  0 Multiplicity = 1

 SCF Done:  E(RwB97XD) =  -5435.01212628     A.U. after   15 cycles
 SCF Done:  E(RwB97XD) =  -5435.01212810     A.U. after    9 cycles
 SCF Done:  E(RwB97XD) =  -5435.01212719     A.U. after    8 cycles
 Optimization completed on the basis of negligible forces.
    -- Stationary point found.
 Normal termination of Gaussian 16 at Tue Mar  2 02:05:57 2021.

 ---------------------------------------------------------------------
 #N Geom=AllCheck Guess=TCheck SCRF=Check GenChk RwB97XD/def2TZVP Freq
 ---------------------------------------------------------------------

 Structure from the checkpoint file:  "/beegfs/scratch/user/q/tla25/Gau-79564.chk"
 ------------------------
 0_iteration/TS-345-0.out
 ------------------------
 Charge =  0 Multiplicity = 1

                         Standard orientation:
 ---------------------------------------------------------------------
 Center     Atomic      Atomic             Coordinates (Angstroms)
 Number     Number       Type             X           Y           Z
 ---------------------------------------------------------------------
      1          6           0       -0.697629   -0.423823    0.023830
      2          6           0       -0.839668   -1.598423    0.815780
      3          8           0       -1.887377   -2.090961    1.210261
      4          6           0        0.482221    0.177741   -0.347132
      5          6           0        1.973952    2.593872    0.564976
      6          1           0        2.142511    3.365975    1.317314
      7          1           0        2.916747    2.090671    0.357167
      8          1           0        1.618302    3.066405   -0.349907
      9          7           0        0.992318    1.607116    1.004046
     10          1           0        1.298353    1.101267    1.826854
     11          1           0        0.097967    2.034692    1.213819
     12          1           0        0.482778    0.924414   -1.126903
     13         35           0        2.110933   -0.816826   -0.377215
     14         35           0       -2.283472    0.544807   -0.404368
     15          1           0        0.121754   -2.081094    1.061957
 ---------------------------------------------------------------------

 SCF Done:  E(RwB97XD) =  -5435.01212719     A.U. after    1 cycles

 The electronic state is 1-A.
 Alpha  occ. eigenvalues -- -483.14628-483.13012 -62.69478 -62.67851 -56.48604
 Alpha  occ. eigenvalues --  -56.48236 -56.48219 -56.46960 -56.46613 -56.46609
 Alpha  occ. eigenvalues --  -19.22786 -14.47811 -10.39967 -10.36474 -10.32440
 Alpha  occ. eigenvalues --  -10.31797  -8.83596  -8.81969  -6.65786  -6.64607
 Alpha  occ. eigenvalues --   -6.64554  -6.64104  -6.62989  -6.62977  -2.76171
 Alpha  occ. eigenvalues --   -2.75833  -2.75792  -2.74839  -2.74839  -2.74497
 Alpha  occ. eigenvalues --   -2.74168  -2.74158  -2.73256  -2.73256  -1.13240
 Alpha  occ. eigenvalues --   -1.03323  -0.95914  -0.90365  -0.82446  -0.78776
 Alpha  occ. eigenvalues --   -0.75401  -0.63014  -0.62785  -0.59377  -0.55681
 Alpha  occ. eigenvalues --   -0.54693  -0.53916  -0.51015  -0.49267  -0.48032
 Alpha  occ. eigenvalues --   -0.45774  -0.45128  -0.39923  -0.39296  -0.37803
 Alpha  occ. eigenvalues --   -0.37271  -0.33797  -0.29218
 Alpha virt. eigenvalues --    0.01377   0.03978   0.09012   0.10508   0.13551
 Alpha virt. eigenvalues --    0.14379   0.15507   0.16179   0.18826   0.19070
 Alpha virt. eigenvalues --    0.19726   0.20174   0.22932   0.23566   0.25847

 Mulliken charges:
               1
     1  C   -0.070561
     2  C    0.076831
     3  O   -0.457818
     4  C   -0.047284
     5  C   -0.267064
     6  H    0.151223
     7  H    0.149035
     8  H    0.150084
     9  N   -0.388414
    10  H    0.284391
    11  H    0.280170
    12  H    0.204187
    13  Br  -0.044104
    14  Br  -0.121421
    15  H    0.100744
 Sum of Mulliken charges =   0.00000

 Dipole moment (field-independent basis, Debye):
    X=              7.5819    Y=              7.4367    Z=              0.7317  Tot=             10.6455
 Quadrupole moment (field-independent basis, Debye-Ang):
   XX=            -81.3311   YY=            -70.9547   ZZ=            -71.5806
   XY=             -3.8203   XZ=              7.2620   YZ=              7.4918

  Exact polarizability: 191.089  18.593 161.398  -2.566  -6.040 107.186
 Approx polarizability: 146.362   8.885 128.727  -2.524  -5.929  95.792

 ******    1 imaginary frequencies (negative Signs) ******

                      1                      2                      3
                      A                      A                      A
 Frequencies --   -337.5508                23.7225                56.8936
 Red. masses --      6.3069                 2.3645                 4.3932
 Frc consts  --      0.4234                 0.0008                 0.0084
 IR Inten    --    959.9366                 1.1447                 3.1188

                      4                      5                      6
                      A                      A                      A
 Frequencies --     91.0165               149.6902               156.5481
 Red. masses --      4.0554                 3.7630                 2.4106
 Frc consts  --      0.0198                 0.0497                 0.0348
 IR Inten    --      9.3829                13.2155                 2.4101

                      7                      8                      9
                      A                      A                      A
 Frequencies --    177.5509               184.3347               228.0666
 Red. masses --      5.9579                 2.4694                12.4197
 Frc consts  --      0.1107                 0.0494                 0.3806
 IR Inten    --      7.8232                 2.9984                 2.0680

                     10                     11                     12
                      A                      A                      A
 Frequencies --    258.3880               304.5556               460.3569
 Red. masses --      3.3035                 2.6813                 5.4601
 Frc consts  --      0.1299                 0.1465                 0.6818
 IR Inten    --      3.3530                29.4177               175.5994

                     13                     14                     15
                      A                      A                      A
 Frequencies --    569.7558               599.2344               695.6248
 Red. masses --      2.1436                 2.5970                 6.2891
 Frc consts  --      0.4100                 0.5494                 1.7930
 IR Inten    --     25.8392                66.5164                22.7502

                     16                     17                     18
                      A                      A                      A
 Frequencies --    736.9317               995.3545              1008.0831
 Red. masses --      3.8754                 1.0793                 1.1174
 Frc consts  --      1.2400                 0.6300                 0.6691
 IR Inten    --    150.3917                13.4590               154.1732

                     19                     20                     21
                      A                      A                      A
 Frequencies --   1017.3564              1070.3888              1099.9503
 Red. masses --      1.6165                 3.6662                 1.2711
 Frc consts  --      0.9858                 2.4749                 0.9061
 IR Inten    --      0.7067               224.9490                86.0858

                     22                     23                     24
                      A                      A                      A
 Frequencies --   1121.4437              1205.9486              1316.3791
 Red. masses --      1.7766                 1.4178                 1.6531
 Frc consts  --      1.3165                 1.2148                 1.6877
 IR Inten    --     22.5176                14.9312                80.2636

                     25                     26                     27
                      A                      A                      A
 Frequencies --   1342.2977              1396.3923              1460.6736
 Red. masses --      1.3315                 1.9309                 1.1935
 Frc consts  --      1.4135                 2.2183                 1.5004
 IR Inten    --      0.7889               607.3221                32.7041

                     28                     29                     30
                      A                      A                      A
 Frequencies --   1490.2531              1491.5680              1506.7409
 Red. masses --      1.0409                 2.5155                 1.0335
 Frc consts  --      1.3620                 3.2973                 1.3824
 IR Inten    --     16.2661               465.5858                18.5302

                     31                     32                     33
                      A                      A                      A
 Frequencies --   1641.7006              1697.8328              2980.9375
 Red. masses --      1.0891                 8.9247                 1.0827
 Frc consts  --      1.7294                15.1577                 5.6685
 IR Inten    --     61.4829               988.2881                69.9067

                     34                     35                     36
                      A                      A                      A
 Frequencies --   3062.6397              3137.9734              3161.2966
 Red. masses --      1.0345                 1.1037                 1.1054
 Frc consts  --      5.7168                 6.4032                 6.5088
 IR Inten    --     58.1789                18.1345                15.3704

                     37                     38                     39
                      A                      A                      A
 Frequencies --   3231.8173              3524.9474              3609.8166
 Red. masses --      1.0935                 1.0504                 1.0966
 Frc consts  --      6.7294                 7.6898                 8.4192
 IR Inten    --      0.9393                23.5898                43.1225

 - Thermochemistry -
 -------------------
 Temperature   298.150 Kelvin.  Pressure   1.00000 Atm.
 Atom     1 has atomic number  6 and mass  12.00000

 Molecular mass:   242.88944 amu.
 Principal axes and moments of inertia in atomic units:
                           1         2         3
     Eigenvalues --  1468.677473579.911654451.86169
           X            0.99681   0.07949   0.00683
           Y           -0.07962   0.99659   0.02182
           Z           -0.00507  -0.02230   0.99974
 This molecule is an asymmetric top.
 Rotational symmetry number  1.
 Warning -- assumption of classical behavior for rotation
           may cause significant error
 Rotational temperatures (Kelvin)      0.05897     0.02419     0.01946
 Rotational constants (GHZ):           1.22882     0.50413     0.40539
    1 imaginary frequencies ignored.
 Zero-point vibrational energy     288685.6 (Joules/Mol)
                                   68.99751 (Kcal/Mol)
 Warning -- explicit consideration of  13 degrees of freedom as
           vibrations may cause significant error
 Vibrational temperatures:     34.13    81.86   130.95   215.37   225.24
          (Kelvin)            255.46   265.22   328.14   371.76   438.19
                              662.35   819.75   862.16  1000.85  1060.28
                             1432.09  1450.41  1463.75  1540.05  1582.58
                             1613.51  1735.09  1893.98  1931.27  2009.10
                             2101.58  2144.14  2146.03  2167.86  2362.04
                             2442.80  4288.90  4406.46  4514.84  4548.40
                             4649.86  5071.61  5193.72

 Zero-point correction=                           0.109955 (Hartree/Particle)
 Thermal correction to Energy=                    0.120175
 Thermal correction to Enthalpy=                  0.121120
 Thermal correction to Gibbs Free Energy=         0.070671
 Sum of electronic and zero-point Energies=          -5434.902173
 Sum of electronic and thermal Energies=             -5434.891952
 Sum of electronic and thermal Enthalpies=           -5434.891008
 Sum of electronic and thermal Free Energies=        -5434.941456

                     E (Thermal)             CV                S
                      KCal/Mol        Cal/Mol-Kelvin    Cal/Mol-Kelvin
 Total                   75.411             32.616            106.178
 Electronic               0.000              0.000              0.000
 Translational            0.889              2.981             42.363
 Rotational               0.889              2.981             31.526
 Vibrational             73.634             26.654             32.288
 Vibration     1          0.593              1.985              6.295
 Vibration     2          0.596              1.975              4.562
 Vibration     3          0.602              1.956              3.638
 Vibration     4          0.618              1.903              2.676
 Vibration     5          0.620              1.895              2.591
 Vibration     6          0.628              1.870              2.354
 Vibration     7          0.631              1.861              2.284
 Vibration     8          0.651              1.798              1.894
 Vibration     9          0.667              1.749              1.673
 Vibration    10          0.695              1.665              1.392
 Vibration    11          0.818              1.338              0.765
 Vibration    12          0.926              1.097              0.505
 Vibration    13          0.957              1.033              0.451

 Optimization completed on the basis of negligible forces.
    -- Stationary point found.
 Normal termination of Gaussian 16 at Tue Mar  2 02:13:49 2021.
