 Gaussian 16, Revision A.03,
 Gaussian 16:  ES64L-G16RevA.03 25-Dec-2016

 ----------------------------------------------------------------------
 # wB97XD def2tzvp, opt=(ts, noeigen, calcfc, maxcycles=70, maxstep=1),
  freq=noraman, scrf=(iefpcm, solvent=water)
 ----------------------------------------------------------------------

 ------------------------
 0_iteration/TS-372-0.out
 ------------------------
 Symbolic Z-matrix:
 Charge =  0 Multiplicity = 1

 SCF Done:  E(RwB97XD) =  -861.954067487     A.U. after   14 cycles
 SCF Done:  E(RwB97XD) =  -861.954067491     A.U. after    7 cycles
 Optimization completed.
    -- Stationary point found.
 Normal termination of Gaussian 16 at Tue Mar  2 01:58:53 2021.

 ---------------------------------------------------------------------
 #N Geom=AllCheck Guess=TCheck SCRF=Check GenChk RwB97XD/def2TZVP Freq
 ---------------------------------------------------------------------

 Structure from the checkpoint file:  "/beegfs/scratch/user/q/tla25/Gau-25584.chk"
 ------------------------
 0_iteration/TS-372-0.out
 ------------------------
 Charge =  0 Multiplicity = 1

                         Standard orientation:
 ---------------------------------------------------------------------
 Center     Atomic      Atomic             Coordinates (Angstroms)
 Number     Number       Type             X           Y           Z
 ---------------------------------------------------------------------
      1          6           0       -0.398183   -0.207244    1.040040
      2          6           0       -1.423387   -0.034635    0.058877
      3          8           0       -1.298857    0.377937   -1.084592
      4          6           0        0.926676    0.123337    0.864573
      5          6           0        3.277155   -1.148174   -0.396468
      6          1           0        3.657729   -1.981133   -0.989434
      7          1           0        3.543146   -0.213238   -0.885103
      8          1           0        3.738176   -1.175522    0.589961
      9          7           0        1.825773   -1.209329   -0.244713
     10          1           0        1.343633   -1.131948   -1.133271
     11          1           0        1.526939   -2.070848    0.196773
     12          1           0        1.591945   -0.013775    1.705723
     13         17           0        1.415816    1.559841   -0.044720
     14          1           0       -0.642619   -0.762461    1.934944
     15          8           0       -2.637379   -0.413387    0.537230
     16          6           0       -3.727505   -0.319147   -0.368263
     17          1           0       -4.600271   -0.668034    0.178467
     18          1           0       -3.881652    0.710507   -0.693042
     19          1           0       -3.564964   -0.946769   -1.245440
 ---------------------------------------------------------------------

 SCF Done:  E(RwB97XD) =  -861.954067491     A.U. after    1 cycles

 The electronic state is 1-A.
 Alpha  occ. eigenvalues -- -101.69577 -19.27942 -19.21312 -14.47970 -10.39591
 Alpha  occ. eigenvalues --  -10.38836 -10.32484 -10.31666 -10.25701  -9.58163
 Alpha  occ. eigenvalues --   -7.32799  -7.31962  -7.31903  -1.19251  -1.09829
 Alpha  occ. eigenvalues --   -1.03622  -0.96493  -0.86605  -0.81248  -0.78506
 Alpha  occ. eigenvalues --   -0.71492  -0.63987  -0.62867  -0.58767  -0.57575
 Alpha  occ. eigenvalues --   -0.56476  -0.55490  -0.53889  -0.53581  -0.49722
 Alpha  occ. eigenvalues --   -0.48047  -0.47944  -0.47221  -0.45549  -0.43336
 Alpha  occ. eigenvalues --   -0.40004  -0.38624  -0.37841  -0.34808  -0.28469
 Alpha virt. eigenvalues --    0.04891   0.09452   0.10793   0.13586   0.14794
 Alpha virt. eigenvalues --    0.15235   0.17005   0.17397   0.17667   0.19434
 Alpha virt. eigenvalues --    0.19661   0.20075   0.20686   0.21483   0.23352

 Mulliken charges:
               1
     1  C   -0.446110
     2  C    0.433750
     3  O   -0.500840
     4  C    0.028120
     5  C   -0.266618
     6  H    0.150153
     7  H    0.145913
     8  H    0.148853
     9  N   -0.354518
    10  H    0.282596
    11  H    0.278616
    12  H    0.182766
    13  Cl  -0.119342
    14  H    0.148000
    15  O   -0.311859
    16  C   -0.184846
    17  H    0.136768
    18  H    0.124627
    19  H    0.123971
 Sum of Mulliken charges =  -0.00000

 Dipole moment (field-independent basis, Debye):
    X=              5.0190    Y=             -5.3989    Z=              0.8231  Tot=              7.4173
 Quadrupole moment (field-independent basis, Debye-Ang):
   XX=            -46.0526   YY=            -58.1702   ZZ=            -62.5185
   XY=             -6.6818   XZ=              0.4543   YZ=              1.5077

  Exact polarizability: 170.040  -4.259 111.309  -5.842  -4.161 107.970
 Approx polarizability: 119.839  -1.143  94.703  -4.740  -6.026  97.569

 ******    1 imaginary frequencies (negative Signs) ******

                      1                      2                      3
                      A                      A                      A
 Frequencies --   -362.3246                42.0186                58.7495
 Red. masses --      6.3783                 3.5808                 4.4586
 Frc consts  --      0.4933                 0.0037                 0.0091
 IR Inten    --    909.3473                 9.9040                 6.6671

                      4                      5                      6
                      A                      A                      A
 Frequencies --     88.0358               122.1943               143.5586
 Red. masses --      1.9740                 2.2077                 3.7316
 Frc consts  --      0.0090                 0.0194                 0.0453
 IR Inten    --      7.2068                 4.3824                 7.6430

                      7                      8                      9
                      A                      A                      A
 Frequencies --    157.5164               170.2409               189.7954
 Red. masses --      1.7045                 1.2466                 4.0179
 Frc consts  --      0.0249                 0.0213                 0.0853
 IR Inten    --      3.8155                 3.4005                32.9836

                     10                     11                     12
                      A                      A                      A
 Frequencies --    268.8521               312.3538               370.8160
 Red. masses --      4.4987                 3.1129                 5.9926
 Frc consts  --      0.1916                 0.1789                 0.4855
 IR Inten    --     24.3332                 9.5789                23.4555

                     13                     14                     15
                      A                      A                      A
 Frequencies --    413.7631               576.6174               613.0017
 Red. masses --      4.2501                 3.6981                 1.8672
 Frc consts  --      0.4287                 0.7244                 0.4134
 IR Inten    --    121.4722                 8.4975                10.5498

                     16                     17                     18
                      A                      A                      A
 Frequencies --    677.2319               694.9138               781.8249
 Red. masses --      1.4181                 2.5980                 4.3893
 Frc consts  --      0.3832                 0.7392                 1.5808
 IR Inten    --     56.9179               120.2757                 7.8922

                     19                     20                     21
                      A                      A                      A
 Frequencies --    804.8859               957.4258              1009.0265
 Red. masses --      7.6403                 3.7321                 1.1278
 Frc consts  --      2.9163                 2.0156                 0.6765
 IR Inten    --    111.5629               121.2453                29.5593

                     22                     23                     24
                      A                      A                      A
 Frequencies --   1025.6917              1069.9242              1073.9715
 Red. masses --      1.1428                 4.7019                 4.8640
 Frc consts  --      0.7084                 3.1712                 3.3054
 IR Inten    --     83.1806                31.9377               288.2485

                     25                     26                     27
                      A                      A                      A
 Frequencies --   1131.8405              1181.4429              1187.3605
 Red. masses --      1.1388                 1.2857                 1.4520
 Frc consts  --      0.8596                 1.0573                 1.2061
 IR Inten    --    132.5444                 9.1209               568.2213

                     28                     29                     30
                      A                      A                      A
 Frequencies --   1210.9077              1215.6492              1234.7441
 Red. masses --      1.6569                 1.4363                 1.8398
 Frc consts  --      1.4314                 1.2505                 1.6526
 IR Inten    --     65.2753                30.4221               277.5546

                     31                     32                     33
                      A                      A                      A
 Frequencies --   1341.7951              1363.1291              1457.6577
 Red. masses --      1.3246                 1.6989                 1.2116
 Frc consts  --      1.4051                 1.8599                 1.5168
 IR Inten    --      3.4469                19.9304                55.5856

                     34                     35                     36
                      A                      A                      A
 Frequencies --   1472.0789              1480.8711              1491.2752
 Red. masses --      1.2750                 1.0448                 1.0408
 Frc consts  --      1.6279                 1.3500                 1.3638
 IR Inten    --     54.6645                11.4498                17.8331

                     37                     38                     39
                      A                      A                      A
 Frequencies --   1492.3048              1503.2527              1513.6186
 Red. masses --      1.1304                 1.0351                 2.5820
 Frc consts  --      1.4832                 1.3781                 3.4853
 IR Inten    --    215.1218                21.3715               803.7363

                     40                     41                     42
                      A                      A                      A
 Frequencies --   1643.9045              1707.9332              3057.7196
 Red. masses --      1.0886                10.6517                 1.0312
 Frc consts  --      1.7334                18.3068                 5.6804
 IR Inten    --     52.4964               577.0748                62.0665

                     43                     44                     45
                      A                      A                      A
 Frequencies --   3064.2500              3130.8626              3140.5365
 Red. masses --      1.0352                 1.1065                 1.1032
 Frc consts  --      5.7271                 6.3905                 6.4110
 IR Inten    --     53.1908                42.1611                18.3133

                     46                     47                     48
                      A                      A                      A
 Frequencies --   3167.5819              3168.2898              3209.4427
 Red. masses --      1.1048                 1.1050                 1.0877
 Frc consts  --      6.5312                 6.5352                 6.6012
 IR Inten    --     28.4337                14.1864                 1.3692

                     49                     50                     51
                      A                      A                      A
 Frequencies --   3225.1753              3522.7678              3607.4400
 Red. masses --      1.0939                 1.0508                 1.0969
 Frc consts  --      6.7042                 7.6831                 8.4105
 IR Inten    --      6.6537                22.8482                45.6130

 - Thermochemistry -
 -------------------
 Temperature   298.150 Kelvin.  Pressure   1.00000 Atm.
 Atom     1 has atomic number  6 and mass  12.00000

 Molecular mass:   151.04001 amu.
 Principal axes and moments of inertia in atomic units:
                           1         2         3
     Eigenvalues --   724.334902665.064642946.17375
           X            0.99961  -0.02774   0.00287
           Y            0.02768   0.99945   0.01805
           Z           -0.00336  -0.01796   0.99983
 This molecule is an asymmetric top.
 Rotational symmetry number  1.
 Warning -- assumption of classical behavior for rotation
           may cause significant error
 Rotational temperatures (Kelvin)      0.11958     0.03250     0.02940
 Rotational constants (GHZ):           2.49158     0.67718     0.61257
    1 imaginary frequencies ignored.
 Zero-point vibrational energy     404016.2 (Joules/Mol)
                                   96.56220 (Kcal/Mol)
 Warning -- explicit consideration of  14 degrees of freedom as
           vibrations may cause significant error
 Vibrational temperatures:     60.46    84.53   126.66   175.81   206.55
          (Kelvin)            226.63   244.94   273.07   386.82   449.41
                              533.52   595.31   829.62   881.97   974.39
                              999.83  1124.87  1158.05  1377.52  1451.76
                             1475.74  1539.38  1545.21  1628.47  1699.83
                             1708.35  1742.23  1749.05  1776.52  1930.54
                             1961.24  2097.24  2117.99  2130.64  2145.61
                             2147.09  2162.85  2177.76  2365.21  2457.33
                             4399.38  4408.77  4504.61  4518.53  4557.44
                             4558.46  4617.67  4640.31  5068.48  5190.30

 Zero-point correction=                           0.153882 (Hartree/Particle)
 Thermal correction to Energy=                    0.164860
 Thermal correction to Enthalpy=                  0.165804
 Thermal correction to Gibbs Free Energy=         0.115794
 Sum of electronic and zero-point Energies=           -861.800186
 Sum of electronic and thermal Energies=              -861.789208
 Sum of electronic and thermal Enthalpies=            -861.788264
 Sum of electronic and thermal Free Energies=         -861.838273

                     E (Thermal)             CV                S
                      KCal/Mol        Cal/Mol-Kelvin    Cal/Mol-Kelvin
 Total                  103.451             36.710            105.255
 Electronic               0.000              0.000              0.000
 Translational            0.889              2.981             40.947
 Rotational               0.889              2.981             30.121
 Vibrational            101.674             30.748             34.187
 Vibration     1          0.595              1.980              5.162
 Vibration     2          0.596              1.974              4.499
 Vibration     3          0.601              1.958              3.703
 Vibration     4          0.610              1.931              3.065
 Vibration     5          0.616              1.910              2.756
 Vibration     6          0.621              1.894              2.579
 Vibration     7          0.625              1.879              2.433
 Vibration     8          0.633              1.854              2.230
 Vibration     9          0.673              1.730              1.604
 Vibration    10          0.701              1.650              1.350
 Vibration    11          0.743              1.532              1.076
 Vibration    12          0.777              1.440              0.913
 Vibration    13          0.933              1.082              0.492
 Vibration    14          0.972              1.004              0.428

 Optimization completed.
    -- Stationary point found.
 Normal termination of Gaussian 16 at Tue Mar  2 02:07:24 2021.
