 Gaussian 16, Revision A.03,
 Gaussian 16:  ES64L-G16RevA.03 25-Dec-2016

 ----------------------------------------------------------------------
 # wB97XD def2tzvp, opt=(ts, noeigen, calcfc, maxcycles=70, maxstep=3),
  freq=noraman, scrf=(iefpcm, solvent=water)
 ----------------------------------------------------------------------

 ------------------------
 0_iteration/TS-317-0.out
 ------------------------
 Symbolic Z-matrix:
 Charge =  0 Multiplicity = 1

 SCF Done:  E(RwB97XD) =  -881.407998686     A.U. after   15 cycles
 SCF Done:  E(RwB97XD) =  -881.408107207     A.U. after   11 cycles
 SCF Done:  E(RwB97XD) =  -881.408191479     A.U. after   11 cycles
 SCF Done:  E(RwB97XD) =  -881.408283657     A.U. after   11 cycles
 SCF Done:  E(RwB97XD) =  -881.408396874     A.U. after   11 cycles
 SCF Done:  E(RwB97XD) =  -881.408523306     A.U. after   10 cycles
 SCF Done:  E(RwB97XD) =  -881.408654744     A.U. after   10 cycles
 SCF Done:  E(RwB97XD) =  -881.408782146     A.U. after   10 cycles
 SCF Done:  E(RwB97XD) =  -881.408881714     A.U. after   10 cycles
 SCF Done:  E(RwB97XD) =  -881.408927019     A.U. after   10 cycles
 SCF Done:  E(RwB97XD) =  -881.408949465     A.U. after   10 cycles
 SCF Done:  E(RwB97XD) =  -881.408970634     A.U. after   10 cycles
 SCF Done:  E(RwB97XD) =  -881.408988195     A.U. after   10 cycles
 SCF Done:  E(RwB97XD) =  -881.408994755     A.U. after   10 cycles
 SCF Done:  E(RwB97XD) =  -881.408996957     A.U. after    9 cycles
 SCF Done:  E(RwB97XD) =  -881.408983732     A.U. after   10 cycles
 SCF Done:  E(RwB97XD) =  -881.408997013     A.U. after   10 cycles
 SCF Done:  E(RwB97XD) =  -881.408996738     A.U. after    9 cycles
 SCF Done:  E(RwB97XD) =  -881.408997181     A.U. after    9 cycles
 Optimization completed.
    -- Stationary point found.
 Normal termination of Gaussian 16 at Wed Apr 14 21:46:37 2021.

 ---------------------------------------------------------------------
 #N Geom=AllCheck Guess=TCheck SCRF=Check GenChk RwB97XD/def2TZVP Freq
 ---------------------------------------------------------------------

 Structure from the checkpoint file:  "/beegfs/scratch/user/q/tla25/Gau-375027.chk"
 ------------------------
 0_iteration/TS-317-0.out
 ------------------------
 Charge =  0 Multiplicity = 1

                         Standard orientation:
 ---------------------------------------------------------------------
 Center     Atomic      Atomic             Coordinates (Angstroms)
 Number     Number       Type             X           Y           Z
 ---------------------------------------------------------------------
      1          6           0       -0.126274    0.362293   -0.452850
      2          6           0       -1.197465   -0.504229   -0.043900
      3          8           0       -1.065492   -1.740673    0.022626
      4          6           0        1.198131   -0.024105   -0.698431
      5          6           0        3.583586   -0.209145    0.885374
      6          1           0        4.019696   -0.053940    1.872309
      7          1           0        3.855714   -1.199992    0.530262
      8          1           0        3.982326    0.536548    0.198535
      9          7           0        2.124984   -0.089241    0.918796
     10          1           0        1.693704   -0.852717    1.427956
     11          1           0        1.838808    0.773650    1.366800
     12          1           0        1.809066    0.775464   -1.107886
     13          6           0        1.542895   -1.368524   -1.288714
     14          1           0        1.080772   -1.445776   -2.273593
     15          1           0        2.620302   -1.467910   -1.416177
     16          1           0        1.160100   -2.181595   -0.679009
     17         17           0       -0.361498    2.119390   -0.252488
     18          7           0       -2.397643    0.059291    0.278180
     19          6           0       -3.558470   -0.748450    0.560127
     20          1           0       -2.524559    1.041531    0.118716
     21          1           0       -4.374193   -0.091595    0.856802
     22          1           0       -3.878877   -1.331631   -0.308388
     23          1           0       -3.359264   -1.443677    1.376485
 ---------------------------------------------------------------------

 SCF Done:  E(RwB97XD) =  -881.408997181     A.U. after    1 cycles

 The electronic state is 1-A.
 Alpha  occ. eigenvalues -- -101.68196 -19.18915 -14.48735 -14.43595 -10.36889
 Alpha  occ. eigenvalues --  -10.34072 -10.31998 -10.30274 -10.29250 -10.27531
 Alpha  occ. eigenvalues --   -9.56733  -7.31318  -7.30563  -7.30517  -1.11587
 Alpha  occ. eigenvalues --   -1.04227  -1.00428  -0.95022  -0.87526  -0.80816
 Alpha  occ. eigenvalues --   -0.79427  -0.76261  -0.69808  -0.65313  -0.63144
 Alpha  occ. eigenvalues --   -0.59065  -0.55623  -0.55327  -0.54855  -0.52967
 Alpha  occ. eigenvalues --   -0.52524  -0.49464  -0.49162  -0.48278  -0.46842
 Alpha  occ. eigenvalues --   -0.46367  -0.45347  -0.45020  -0.42714  -0.40673
 Alpha  occ. eigenvalues --   -0.39214  -0.33028  -0.32416  -0.25777
 Alpha virt. eigenvalues --    0.07709   0.09855   0.11689   0.13005   0.14389
 Alpha virt. eigenvalues --    0.14612   0.15633   0.16556   0.17160   0.18170
 Alpha virt. eigenvalues --    0.19092   0.19445   0.20425   0.20999   0.21662

 Mulliken charges:
               1
     1  C   -0.152521
     2  C    0.324120
     3  O   -0.578303
     4  C   -0.057247
     5  C   -0.293754
     6  H    0.156537
     7  H    0.160293
     8  H    0.153360
     9  N   -0.305422
    10  H    0.285270
    11  H    0.282488
    12  H    0.147817
    13  C   -0.351752
    14  H    0.136666
    15  H    0.137372
    16  H    0.141587
    17  Cl  -0.224256
    18  N   -0.337155
    19  C   -0.243169
    20  H    0.240130
    21  H    0.136217
    22  H    0.118450
    23  H    0.123270
 Sum of Mulliken charges =  -0.00000

 Dipole moment (field-independent basis, Debye):
    X=              6.4744    Y=              1.5781    Z=              2.9151  Tot=              7.2736
 Quadrupole moment (field-independent basis, Debye-Ang):
   XX=            -45.2490   YY=            -78.9158   ZZ=            -65.5055
   XY=             -5.4136   XZ=              3.8933   YZ=              0.8124

  Exact polarizability: 188.943  -1.498 145.071   2.223   0.829 116.535
 Approx polarizability: 135.027  -2.097 124.590   1.187  -0.224 100.924

 ******    1 imaginary frequencies (negative Signs) ******

                      1                      2                      3
                      A                      A                      A
 Frequencies --   -345.2173                35.2093                51.7481
 Red. masses --      6.1732                 3.4382                 2.2958
 Frc consts  --      0.4335                 0.0025                 0.0036
 IR Inten    --    949.1091                 4.1425                10.9411

                      4                      5                      6
                      A                      A                      A
 Frequencies --     62.4545                88.8397               130.5725
 Red. masses --      3.0242                 1.7861                 3.2880
 Frc consts  --      0.0070                 0.0083                 0.0330
 IR Inten    --     20.1718                12.9208                23.2002

                      7                      8                      9
                      A                      A                      A
 Frequencies --    134.0286               154.5931               178.9032
 Red. masses --      1.8834                 1.6285                 1.7137
 Frc consts  --      0.0199                 0.0229                 0.0323
 IR Inten    --     13.8714                 7.9738                19.8261

                     10                     11                     12
                      A                      A                      A
 Frequencies --    219.8267               252.2367               259.2631
 Red. masses --      2.5164                 2.4013                 1.8555
 Frc consts  --      0.0716                 0.0900                 0.0735
 IR Inten    --      9.1196                 9.7140                 4.1579

                     13                     14                     15
                      A                      A                      A
 Frequencies --    307.3025               332.0870               393.7536
 Red. masses --      2.9813                 2.7213                 1.2984
 Frc consts  --      0.1659                 0.1768                 0.1186
 IR Inten    --     35.4525                19.8573                74.8631

                     16                     17                     18
                      A                      A                      A
 Frequencies --    417.7475               445.5058               456.8966
 Red. masses --      3.6274                 4.3199                 7.1768
 Frc consts  --      0.3730                 0.5052                 0.8827
 IR Inten    --      2.4225               109.6439                53.5315

                     19                     20                     21
                      A                      A                      A
 Frequencies --    584.5128               684.0333               771.3932
 Red. masses --      3.5882                 1.3301                 8.6894
 Frc consts  --      0.7223                 0.3667                 3.0464
 IR Inten    --     31.6281                33.2642                45.5149

                     22                     23                     24
                      A                      A                      A
 Frequencies --    793.9089               958.9402               963.0808
 Red. masses --      3.5903                 3.2454                 1.9128
 Frc consts  --      1.3333                 1.7583                 1.0453
 IR Inten    --     21.7869               105.8456                16.1258

                     25                     26                     27
                      A                      A                      A
 Frequencies --   1002.9118              1048.5369              1056.8811
 Red. masses --      1.1761                 1.5416                 1.4101
 Frc consts  --      0.6970                 0.9986                 0.9280
 IR Inten    --      9.5596                16.6711                69.4705

                     28                     29                     30
                      A                      A                      A
 Frequencies --   1080.9772              1116.0308              1155.9397
 Red. masses --      2.5671                 2.1399                 1.2971
 Frc consts  --      1.7673                 1.5703                 1.0212
 IR Inten    --    189.1946                45.6837                 8.2566

                     31                     32                     33
                      A                      A                      A
 Frequencies --   1166.3158              1181.8927              1210.5329
 Red. masses --      2.4607                 1.7162                 1.1548
 Frc consts  --      1.9722                 1.4124                 0.9970
 IR Inten    --     21.5253                55.1679               213.2066

                     34                     35                     36
                      A                      A                      A
 Frequencies --   1238.8852              1271.4599              1346.9870
 Red. masses --      1.4231                 1.8022                 1.2949
 Frc consts  --      1.2869                 1.7166                 1.3843
 IR Inten    --     19.3519                87.7505                 0.8442

                     37                     38                     39
                      A                      A                      A
 Frequencies --   1372.6816              1408.1225              1446.5306
 Red. masses --      1.8954                 1.3137                 1.7352
 Frc consts  --      2.1042                 1.5348                 2.1392
 IR Inten    --    308.5566               105.7841               240.4063

                     40                     41                     42
                      A                      A                      A
 Frequencies --   1455.7401              1468.4430              1476.2533
 Red. masses --      1.2216                 1.3644                 1.0607
 Frc consts  --      1.5253                 1.7334                 1.3620
 IR Inten    --     27.3750                77.9988                23.1002

                     43                     44                     45
                      A                      A                      A
 Frequencies --   1483.3752              1492.5444              1499.9453
 Red. masses --      1.0888                 1.0758                 1.1033
 Frc consts  --      1.4115                 1.4120                 1.4625
 IR Inten    --     24.6336                33.3706                23.7697

                     46                     47                     48
                      A                      A                      A
 Frequencies --   1508.2367              1510.8649              1553.0430
 Red. masses --      1.0801                 1.0863                 1.9880
 Frc consts  --      1.4476                 1.4610                 2.8251
 IR Inten    --     14.6529                47.3876               755.2406

                     49                     50                     51
                      A                      A                      A
 Frequencies --   1629.1301              1644.4775              3036.6165
 Red. masses --      5.4033                 1.1048                 1.0430
 Frc consts  --      8.4492                 1.7602                 5.6665
 IR Inten    --    456.7600                51.8601               103.3292

                     52                     53                     54
                      A                      A                      A
 Frequencies --   3070.9334              3075.6842              3102.5855
 Red. masses --      1.0342                 1.0379                 1.0952
 Frc consts  --      5.7466                 5.7846                 6.2113
 IR Inten    --     46.3609                30.6634                48.6998

                     55                     56                     57
                      A                      A                      A
 Frequencies --   3141.3850              3145.3695              3148.1700
 Red. masses --      1.0998                 1.0976                 1.0991
 Frc consts  --      6.3943                 6.3980                 6.4183
 IR Inten    --     22.7302                30.2770                14.8286

                     58                     59                     60
                      A                      A                      A
 Frequencies --   3153.2749              3174.4559              3187.3669
 Red. masses --      1.1017                 1.1047                 1.1009
 Frc consts  --      6.4543                 6.5587                 6.5896
 IR Inten    --     27.4113                15.4785                 7.8640

                     61                     62                     63
                      A                      A                      A
 Frequencies --   3523.2034              3602.0338              3684.5677
 Red. masses --      1.0512                 1.0963                 1.0774
 Frc consts  --      7.6878                 8.3809                 8.6182
 IR Inten    --     20.5258                48.9345                69.2813

 - Thermochemistry -
 -------------------
 Temperature   298.150 Kelvin.  Pressure   1.00000 Atm.
 Atom     1 has atomic number  6 and mass  12.00000

 Molecular mass:   164.07164 amu.
 Principal axes and moments of inertia in atomic units:
                           1         2         3
     Eigenvalues --  1190.403332606.134163254.12468
           X            0.99999  -0.00287  -0.00198
           Y            0.00291   0.99975   0.02226
           Z            0.00191  -0.02227   0.99975
 This molecule is an asymmetric top.
 Rotational symmetry number  1.
 Warning -- assumption of classical behavior for rotation
           may cause significant error
 Rotational temperatures (Kelvin)      0.07276     0.03323     0.02662
 Rotational constants (GHZ):           1.51608     0.69250     0.55460
    1 imaginary frequencies ignored.
 Zero-point vibrational energy     511698.0 (Joules/Mol)
                                  122.29875 (Kcal/Mol)
 Warning -- explicit consideration of  18 degrees of freedom as
           vibrations may cause significant error
 Vibrational temperatures:     50.66    74.45    89.86   127.82   187.86
          (Kelvin)            192.84   222.42   257.40   316.28   362.91
                              373.02   442.14   477.80   566.52   601.05
                              640.98   657.37   840.98   984.17  1109.86
                             1142.26  1379.70  1385.66  1442.97  1508.61
                             1520.62  1555.29  1605.72  1663.14  1678.07
                             1700.48  1741.69  1782.48  1829.35  1938.01
                             1974.98  2025.97  2081.23  2094.49  2112.76
                             2124.00  2134.25  2147.44  2158.09  2170.02
                             2173.80  2234.48  2343.95  2366.04  4369.01
                             4418.39  4425.22  4463.93  4519.75  4525.49
                             4529.51  4536.86  4567.33  4585.91  5069.10
                             5182.52  5301.27

 Zero-point correction=                           0.194895 (Hartree/Particle)
 Thermal correction to Energy=                    0.207853
 Thermal correction to Enthalpy=                  0.208797
 Thermal correction to Gibbs Free Energy=         0.154296
 Sum of electronic and zero-point Energies=           -881.214102
 Sum of electronic and thermal Energies=              -881.201144
 Sum of electronic and thermal Enthalpies=            -881.200200
 Sum of electronic and thermal Free Energies=         -881.254701

                     E (Thermal)             CV                S
                      KCal/Mol        Cal/Mol-Kelvin    Cal/Mol-Kelvin
 Total                  130.430             43.832            114.708
 Electronic               0.000              0.000              0.000
 Translational            0.889              2.981             41.194
 Rotational               0.889              2.981             30.691
 Vibrational            128.652             37.870             42.823
 Vibration     1          0.594              1.982              5.512
 Vibration     2          0.596              1.977              4.749
 Vibration     3          0.597              1.972              4.378
 Vibration     4          0.602              1.957              3.685
 Vibration     5          0.612              1.923              2.938
 Vibration     6          0.613              1.919              2.887
 Vibration     7          0.620              1.898              2.615
 Vibration     8          0.629              1.868              2.340
 Vibration     9          0.647              1.811              1.961
 Vibration    10          0.664              1.759              1.715
 Vibration    11          0.668              1.747              1.667
 Vibration    12          0.697              1.660              1.377
 Vibration    13          0.714              1.611              1.250
 Vibration    14          0.761              1.484              0.986
 Vibration    15          0.781              1.432              0.900
 Vibration    16          0.805              1.371              0.809
 Vibration    17          0.815              1.346              0.775
 Vibration    18          0.941              1.065              0.477

 Optimization completed.
    -- Stationary point found.
 Normal termination of Gaussian 16 at Wed Apr 14 21:53:06 2021.
