 Gaussian 16, Revision A.03,
 Gaussian 16:  ES64L-G16RevA.03 25-Dec-2016

 ----------------------------------------------------------------------
 # wB97XD def2tzvp, opt=(ts, noeigen, calcfc, maxcycles=70, maxstep=8),
  freq=noraman, scrf=(iefpcm, solvent=water)
 ----------------------------------------------------------------------

 ------------------------
 0_iteration/TS-332-0.out
 ------------------------
 Symbolic Z-matrix:
 Charge =  0 Multiplicity = 1

 SCF Done:  E(RwB97XD) =  -2975.95664699     A.U. after   14 cycles
 SCF Done:  E(RwB97XD) =  -2975.95614541     A.U. after   12 cycles
 SCF Done:  E(RwB97XD) =  -2975.95598817     A.U. after   12 cycles
 SCF Done:  E(RwB97XD) =  -2975.95613097     A.U. after   11 cycles
 SCF Done:  E(RwB97XD) =  -2975.95678509     A.U. after   14 cycles
 SCF Done:  E(RwB97XD) =  -2975.95727118     A.U. after   14 cycles
 SCF Done:  E(RwB97XD) =  -2975.95749971     A.U. after   13 cycles
 SCF Done:  E(RwB97XD) =  -2975.95755507     A.U. after   11 cycles
 SCF Done:  E(RwB97XD) =  -2975.95756302     A.U. after   10 cycles
 SCF Done:  E(RwB97XD) =  -2975.95756359     A.U. after    8 cycles
 SCF Done:  E(RwB97XD) =  -2975.95756380     A.U. after    8 cycles
 SCF Done:  E(RwB97XD) =  -2975.95756392     A.U. after    7 cycles
 SCF Done:  E(RwB97XD) =  -2975.95756407     A.U. after    9 cycles
 SCF Done:  E(RwB97XD) =  -2975.95756400     A.U. after    8 cycles
 Optimization completed.
    -- Stationary point found.
 Normal termination of Gaussian 16 at Fri Feb 12 12:36:56 2021.

 ---------------------------------------------------------------------
 #N Geom=AllCheck Guess=TCheck SCRF=Check GenChk RwB97XD/def2TZVP Freq
 ---------------------------------------------------------------------

 Structure from the checkpoint file:  "/beegfs/scratch/user/q/tla25/Gau-45505.chk"
 ------------------------
 0_iteration/TS-332-0.out
 ------------------------
 Charge =  0 Multiplicity = 1

                         Standard orientation:
 ---------------------------------------------------------------------
 Center     Atomic      Atomic             Coordinates (Angstroms)
 Number     Number       Type             X           Y           Z
 ---------------------------------------------------------------------
      1          6           0        0.750629    0.490183    1.039715
      2          6           0        1.738999    0.149153    0.062437
      3          8           0        1.550557   -0.281575   -1.064789
      4          6           0       -0.604376    0.327182    0.886749
      5          6           0       -2.784966    1.889829   -0.403607
      6          1           0       -3.046513    2.756213   -1.013085
      7          1           0       -3.203141    0.995368   -0.860776
      8          1           0       -3.214876    2.012226    0.589647
      9          7           0       -1.338727    1.731018   -0.278994
     10          1           0       -0.892853    1.552373   -1.171714
     11          1           0       -0.902281    2.550220    0.126988
     12          1           0       -1.241170    0.582552    1.721522
     13         35           0       -1.357704   -1.209348   -0.013479
     14          1           0        1.075619    1.039193    1.913359
     15          8           0        2.994313    0.379280    0.524412
     16          6           0        4.056780    0.110228   -0.379543
     17          1           0        4.971302    0.361413    0.152152
     18          1           0        4.072014   -0.941962   -0.665937
     19          1           0        3.971263    0.721366   -1.278908
 ---------------------------------------------------------------------

 SCF Done:  E(RwB97XD) =  -2975.95756400     A.U. after    1 cycles

 The electronic state is 1-A.
 Alpha  occ. eigenvalues -- -483.12767 -62.67631 -56.46740 -56.46398 -56.46377
 Alpha  occ. eigenvalues --  -19.28074 -19.21477 -14.47908 -10.39713 -10.38355
 Alpha  occ. eigenvalues --  -10.32543 -10.31652 -10.25919  -8.81754  -6.63895
 Alpha  occ. eigenvalues --   -6.62803  -6.62732  -2.74285  -2.73981  -2.73925
 Alpha  occ. eigenvalues --   -2.73042  -2.73041  -1.19406  -1.09988  -1.03341
 Alpha  occ. eigenvalues --   -0.92395  -0.85595  -0.81007  -0.78476  -0.71306
 Alpha  occ. eigenvalues --   -0.63936  -0.62700  -0.58437  -0.57420  -0.56559
 Alpha  occ. eigenvalues --   -0.55408  -0.53486  -0.53068  -0.49446  -0.47986
 Alpha  occ. eigenvalues --   -0.47909  -0.45577  -0.44538  -0.43367  -0.38429
 Alpha  occ. eigenvalues --   -0.37585  -0.36878  -0.34486  -0.28517
 Alpha virt. eigenvalues --    0.04348   0.06735   0.10499   0.13565   0.14702
 Alpha virt. eigenvalues --    0.15111   0.16766   0.17239   0.17447   0.19303
 Alpha virt. eigenvalues --    0.19420   0.19930   0.20225   0.21270   0.23191

 Mulliken charges:
               1
     1  C   -0.453601
     2  C    0.447580
     3  O   -0.497626
     4  C    0.002741
     5  C   -0.265865
     6  H    0.150448
     7  H    0.147496
     8  H    0.149263
     9  N   -0.358839
    10  H    0.283475
    11  H    0.278573
    12  H    0.185590
    13  Br  -0.108934
    14  H    0.148306
    15  O   -0.310283
    16  C   -0.185853
    17  H    0.137406
    18  H    0.125330
    19  H    0.124791
 Sum of Mulliken charges =  -0.00000

 Dipole moment (field-independent basis, Debye):
    X=             -3.9531    Y=              6.1074    Z=              0.6213  Tot=              7.3017
 Quadrupole moment (field-independent basis, Debye-Ang):
   XX=            -56.6185   YY=            -58.5372   ZZ=            -68.2391
   XY=             -7.4641   XZ=             -0.1480   YZ=             -1.1223

  Exact polarizability: 180.035  -7.589 129.126   8.143   4.588 115.583
 Approx polarizability: 127.949  -2.436 106.653   6.680   6.631 104.342

 ******    1 imaginary frequencies (negative Signs) ******

                      1                      2                      3
                      A                      A                      A
 Frequencies --   -362.1559                42.8421                60.8021
 Red. masses --      6.2987                 3.1476                 4.7191
 Frc consts  --      0.4867                 0.0034                 0.0103
 IR Inten    --    864.0960                 7.5693                 5.7526

                      4                      5                      6
                      A                      A                      A
 Frequencies --     79.7246               113.0088               136.5736
 Red. masses --      2.1904                 4.1653                 2.9264
 Frc consts  --      0.0082                 0.0313                 0.0322
 IR Inten    --      8.9305                 1.6762                10.4520

                      7                      8                      9
                      A                      A                      A
 Frequencies --    156.6753               170.5456               184.5939
 Red. masses --      1.6503                 1.4741                 1.9574
 Frc consts  --      0.0239                 0.0253                 0.0393
 IR Inten    --      6.8286                 6.1282                23.8905

                     10                     11                     12
                      A                      A                      A
 Frequencies --    260.0269               282.8113               354.7896
 Red. masses --      5.2363                 2.8067                 5.7092
 Frc consts  --      0.2086                 0.1323                 0.4234
 IR Inten    --     23.7009                 1.5605                50.7657

                     13                     14                     15
                      A                      A                      A
 Frequencies --    398.9531               546.4767               569.2993
 Red. masses --      4.0353                 2.6749                 3.7020
 Frc consts  --      0.3784                 0.4707                 0.7069
 IR Inten    --     78.5604                21.2836                12.4439

                     16                     17                     18
                      A                      A                      A
 Frequencies --    668.2883               673.8233               765.9672
 Red. masses --      1.7202                 1.3736                 4.3019
 Frc consts  --      0.4526                 0.3674                 1.4871
 IR Inten    --     64.3063                87.5021                 4.4090

                     19                     20                     21
                      A                      A                      A
 Frequencies --    804.6489               948.8315              1004.5675
 Red. masses --      8.5130                 3.9312                 1.0986
 Frc consts  --      3.2475                 2.0852                 0.6532
 IR Inten    --    112.6941               124.6164                21.9236

                     22                     23                     24
                      A                      A                      A
 Frequencies --   1024.8690              1069.1774              1072.4892
 Red. masses --      1.1336                 4.8290                 4.9402
 Frc consts  --      0.7015                 3.2524                 3.3479
 IR Inten    --     93.5333                14.5500               272.2553

                     25                     26                     27
                      A                      A                      A
 Frequencies --   1127.7855              1182.6908              1186.4956
 Red. masses --      1.1207                 1.2852                 1.3870
 Frc consts  --      0.8398                 1.0592                 1.1504
 IR Inten    --    106.2095                 9.2473               530.2542

                     28                     29                     30
                      A                      A                      A
 Frequencies --   1209.5895              1214.4290              1227.8135
 Red. masses --      1.7045                 1.4350                 1.7196
 Frc consts  --      1.4694                 1.2470                 1.5274
 IR Inten    --    156.2186                13.1753               351.6795

                     31                     32                     33
                      A                      A                      A
 Frequencies --   1338.8881              1346.9298              1457.5786
 Red. masses --      1.3952                 1.7756                 1.2126
 Frc consts  --      1.4736                 1.8980                 1.5179
 IR Inten    --     10.6978                24.0444                54.9949

                     34                     35                     36
                      A                      A                      A
 Frequencies --   1472.7594              1481.5030              1491.6786
 Red. masses --      1.2767                 1.0459                 1.0401
 Frc consts  --      1.6315                 1.3525                 1.3635
 IR Inten    --     54.8839                12.3136                15.8230

                     37                     38                     39
                      A                      A                      A
 Frequencies --   1493.0896              1503.9685              1513.3987
 Red. masses --      1.1389                 1.0353                 2.5570
 Frc consts  --      1.4959                 1.3797                 3.4505
 IR Inten    --    229.8771                21.9812               785.7151

                     40                     41                     42
                      A                      A                      A
 Frequencies --   1643.2541              1710.5623              3058.8905
 Red. masses --      1.0883                10.7248                 1.0311
 Frc consts  --      1.7314                18.4891                 5.6844
 IR Inten    --     52.9470               538.6959                62.4063

                     43                     44                     45
                      A                      A                      A
 Frequencies --   3064.6001              3132.4066              3140.7861
 Red. masses --      1.0351                 1.1064                 1.1032
 Frc consts  --      5.7278                 6.3963                 6.4116
 IR Inten    --     53.3698                41.7145                18.3491

                     46                     47                     48
                      A                      A                      A
 Frequencies --   3167.0531              3168.6985              3206.2389
 Red. masses --      1.1050                 1.1049                 1.0867
 Frc consts  --      6.5302                 6.5364                 6.5821
 IR Inten    --     14.8146                28.1869                 0.2765

                     49                     50                     51
                      A                      A                      A
 Frequencies --   3228.9107              3523.7270              3608.7254
 Red. masses --      1.0945                 1.0508                 1.0968
 Frc consts  --      6.7234                 7.6876                 8.4157
 IR Inten    --      4.6612                22.9476                45.2099

 - Thermochemistry -
 -------------------
 Temperature   298.150 Kelvin.  Pressure   1.00000 Atm.
 Atom     1 has atomic number  6 and mass  12.00000

 Molecular mass:   194.98949 amu.
 Principal axes and moments of inertia in atomic units:
                           1         2         3
     Eigenvalues --  1037.764533019.498483613.85119
           X            0.99817  -0.06037  -0.00299
           Y            0.06035   0.99815  -0.00760
           Z            0.00345   0.00741   0.99997
 This molecule is an asymmetric top.
 Rotational symmetry number  1.
 Warning -- assumption of classical behavior for rotation
           may cause significant error
 Rotational temperatures (Kelvin)      0.08346     0.02868     0.02397
 Rotational constants (GHZ):           1.73907     0.59770     0.49940
    1 imaginary frequencies ignored.
 Zero-point vibrational energy     402497.0 (Joules/Mol)
                                   96.19908 (Kcal/Mol)
 Warning -- explicit consideration of  14 degrees of freedom as
           vibrations may cause significant error
 Vibrational temperatures:     61.64    87.48   114.71   162.59   196.50
          (Kelvin)            225.42   245.38   265.59   374.12   406.90
                              510.46   574.00   786.26   819.09   961.52
                              969.48  1102.06  1157.71  1365.16  1445.35
                             1474.56  1538.31  1543.07  1622.63  1701.63
                             1707.10  1740.33  1747.29  1766.55  1926.36
                             1937.93  2097.13  2118.97  2131.55  2146.19
                             2148.22  2163.88  2177.44  2364.28  2461.12
                             4401.06  4409.28  4506.83  4518.89  4556.68
                             4559.05  4613.06  4645.68  5069.86  5192.15

 Zero-point correction=                           0.153303 (Hartree/Particle)
 Thermal correction to Energy=                    0.164476
 Thermal correction to Enthalpy=                  0.165420
 Thermal correction to Gibbs Free Energy=         0.114277
 Sum of electronic and zero-point Energies=          -2975.804261
 Sum of electronic and thermal Energies=             -2975.793088
 Sum of electronic and thermal Enthalpies=           -2975.792144
 Sum of electronic and thermal Free Energies=        -2975.843287

                     E (Thermal)             CV                S
                      KCal/Mol        Cal/Mol-Kelvin    Cal/Mol-Kelvin
 Total                  103.210             37.152            107.640
 Electronic               0.000              0.000              0.000
 Translational            0.889              2.981             41.709
 Rotational               0.889              2.981             30.805
 Vibrational            101.433             31.190             35.127
 Vibration     1          0.595              1.980              5.123
 Vibration     2          0.597              1.973              4.431
 Vibration     3          0.600              1.963              3.898
 Vibration     4          0.607              1.939              3.217
 Vibration     5          0.614              1.917              2.851
 Vibration     6          0.620              1.895              2.590
 Vibration     7          0.626              1.879              2.429
 Vibration     8          0.631              1.861              2.281
 Vibration     9          0.668              1.746              1.662
 Vibration    10          0.682              1.705              1.517
 Vibration    11          0.731              1.565              1.145
 Vibration    12          0.765              1.472              0.967
 Vibration    13          0.902              1.147              0.552
 Vibration    14          0.925              1.098              0.506

 Optimization completed.
    -- Stationary point found.
 Normal termination of Gaussian 16 at Fri Feb 12 12:46:28 2021.
