 Gaussian 16, Revision A.03,
 Gaussian 16:  ES64L-G16RevA.03 25-Dec-2016

 ----------------------------------------------------------------------
 # wB97XD def2tzvp, opt=(ts, noeigen, calcfc, maxcycles=70, maxstep=8),
  freq=noraman, scrf=(iefpcm, solvent=water)
 ----------------------------------------------------------------------

 ------------------------
 0_iteration/TS-302-0.out
 ------------------------
 Symbolic Z-matrix:
 Charge =  0 Multiplicity = 1

 SCF Done:  E(RwB97XD) =  -500.396810365     A.U. after   14 cycles
 SCF Done:  E(RwB97XD) =  -500.395076446     A.U. after   13 cycles
 SCF Done:  E(RwB97XD) =  -500.393472239     A.U. after   13 cycles
 SCF Done:  E(RwB97XD) =  -500.392420938     A.U. after   13 cycles
 SCF Done:  E(RwB97XD) =  -500.392799782     A.U. after   13 cycles
 SCF Done:  E(RwB97XD) =  -500.397725641     A.U. after   14 cycles
 SCF Done:  E(RwB97XD) =  -500.400753927     A.U. after   13 cycles
 SCF Done:  E(RwB97XD) =  -500.403435126     A.U. after   13 cycles
 SCF Done:  E(RwB97XD) =  -500.405394001     A.U. after   13 cycles
 SCF Done:  E(RwB97XD) =  -500.406089316     A.U. after   13 cycles
 SCF Done:  E(RwB97XD) =  -500.408134695     A.U. after   12 cycles
 SCF Done:  E(RwB97XD) =  -500.408404258     A.U. after   12 cycles
 SCF Done:  E(RwB97XD) =  -500.408418275     A.U. after   11 cycles
 SCF Done:  E(RwB97XD) =  -500.408425362     A.U. after   10 cycles
 SCF Done:  E(RwB97XD) =  -500.408425392     A.U. after    8 cycles
 SCF Done:  E(RwB97XD) =  -500.408389178     A.U. after   11 cycles
 SCF Done:  E(RwB97XD) =  -500.408425166     A.U. after   11 cycles
 SCF Done:  E(RwB97XD) =  -500.408425353     A.U. after    8 cycles
 SCF Done:  E(RwB97XD) =  -500.408425447     A.U. after    8 cycles
 Optimization completed.
    -- Stationary point found.
 Normal termination of Gaussian 16 at Fri Feb 12 16:43:08 2021.

 ---------------------------------------------------------------------
 #N Geom=AllCheck Guess=TCheck SCRF=Check GenChk RwB97XD/def2TZVP Freq
 ---------------------------------------------------------------------

 Structure from the checkpoint file:  "/beegfs/scratch/user/q/tla25/Gau-62177.chk"
 ------------------------
 0_iteration/TS-302-0.out
 ------------------------
 Charge =  0 Multiplicity = 1

                         Standard orientation:
 ---------------------------------------------------------------------
 Center     Atomic      Atomic             Coordinates (Angstroms)
 Number     Number       Type             X           Y           Z
 ---------------------------------------------------------------------
      1          6           0        0.000851    0.843120    0.034098
      2          6           0        0.777210   -0.362596    0.052909
      3          8           0        0.257487   -1.504260    0.142418
      4          6           0       -1.335780    0.778730    0.480548
      5          6           0       -3.665046   -0.648371   -0.629184
      6          1           0       -4.025043   -1.200475   -1.499334
      7          1           0       -3.794196   -1.269935    0.254152
      8          1           0       -4.260942    0.256448   -0.512663
      9          7           0       -2.256797   -0.287090   -0.764642
     10          1           0       -1.624486   -1.085132   -0.697607
     11          1           0       -2.073554    0.188467   -1.638898
     12          1           0       -1.893286    1.699364    0.318358
     13          6           0       -1.736806    0.111196    1.772464
     14          1           0       -1.388581    0.736401    2.597017
     15          1           0       -2.819598    0.024634    1.866790
     16          1           0       -1.285019   -0.873038    1.869621
     17          6           0        0.409286    2.021112   -0.828304
     18          1           0       -0.456170    2.410609   -1.374470
     19          1           0        0.831830    2.867503   -0.273591
     20          1           0        1.152459    1.736911   -1.577384
     21          7           0        2.145636   -0.281882   -0.114225
     22          6           0        2.923100    0.838338    0.367122
     23          6           0        2.900756   -1.489842   -0.348073
     24          1           0        2.278322    1.556388    0.866117
     25          1           0        3.664953    0.488521    1.092967
     26          1           0        3.455779    1.347107   -0.442241
     27          1           0        2.301664   -2.199334   -0.912758
     28          1           0        3.798871   -1.245688   -0.919684
     29          1           0        3.213798   -1.971986    0.586853
 ---------------------------------------------------------------------

 SCF Done:  E(RwB97XD) =  -500.408425447     A.U. after    1 cycles

 The electronic state is 1-A.
 Alpha  occ. eigenvalues --  -19.18307 -14.46824 -14.43630 -10.35282 -10.32250
 Alpha  occ. eigenvalues --  -10.31271 -10.29906 -10.29562 -10.26727 -10.26241
 Alpha  occ. eigenvalues --  -10.23302  -1.10560  -1.02540  -1.01040  -0.89179
 Alpha  occ. eigenvalues --   -0.82759  -0.80251  -0.78512  -0.77286  -0.72749
 Alpha  occ. eigenvalues --   -0.67532  -0.62326  -0.60635  -0.56578  -0.55456
 Alpha  occ. eigenvalues --   -0.54655  -0.54264  -0.53000  -0.52230  -0.49344
 Alpha  occ. eigenvalues --   -0.48771  -0.48036  -0.47730  -0.47078  -0.46678
 Alpha  occ. eigenvalues --   -0.45475  -0.43932  -0.43445  -0.43350  -0.42209
 Alpha  occ. eigenvalues --   -0.40150  -0.32454  -0.30322  -0.24091
 Alpha virt. eigenvalues --    0.08034   0.10189   0.12046   0.13458   0.14795
 Alpha virt. eigenvalues --    0.15359   0.15963   0.16391   0.17435   0.18263
 Alpha virt. eigenvalues --    0.18470   0.19265   0.19582   0.20010   0.20252

 Mulliken charges:
               1
     1  C   -0.268241
     2  C    0.321017
     3  O   -0.622646
     4  C    0.015276
     5  C   -0.295875
     6  H    0.147665
     7  H    0.154385
     8  H    0.150111
     9  N   -0.300250
    10  H    0.266000
    11  H    0.270994
    12  H    0.136810
    13  C   -0.406023
    14  H    0.128172
    15  H    0.128654
    16  H    0.143220
    17  C   -0.391641
    18  H    0.119901
    19  H    0.111963
    20  H    0.119652
    21  N   -0.135119
    22  C   -0.283455
    23  C   -0.293139
    24  H    0.144155
    25  H    0.129202
    26  H    0.127677
    27  H    0.131999
    28  H    0.130598
    29  H    0.118940
 Sum of Mulliken charges =  -0.00000

 Dipole moment (field-independent basis, Debye):
    X=             -4.1102    Y=              2.0805    Z=             -2.0754  Tot=              5.0527
 Quadrupole moment (field-independent basis, Debye-Ang):
   XX=            -49.5793   YY=            -75.6139   ZZ=            -67.8324
   XY=              1.2479   XZ=              4.3433   YZ=              1.6546

  Exact polarizability: 216.611   2.390 157.973   4.719   0.290 136.816
 Approx polarizability: 153.291   2.823 130.904   2.735   0.935 114.533

 ******    1 imaginary frequencies (negative Signs) ******

                      1                      2                      3
                      A                      A                      A
 Frequencies --   -403.5769                60.3278                66.9840
 Red. masses --      6.1195                 2.9780                 3.4058
 Frc consts  --      0.5872                 0.0064                 0.0090
 IR Inten    --   1006.6297                 9.1766                10.9869

                      4                      5                      6
                      A                      A                      A
 Frequencies --     99.8620               104.0611               129.3642
 Red. masses --      1.4346                 2.4405                 1.8037
 Frc consts  --      0.0084                 0.0156                 0.0178
 IR Inten    --      1.8712                 1.0321                21.3181

                      7                      8                      9
                      A                      A                      A
 Frequencies --    146.5123               158.2235               171.6649
 Red. masses --      1.5079                 1.8132                 1.1712
 Frc consts  --      0.0191                 0.0267                 0.0203
 IR Inten    --      5.1116                 0.9407                 5.9131

                     10                     11                     12
                      A                      A                      A
 Frequencies --    187.4520               204.0816               213.8520
 Red. masses --      1.1708                 1.9996                 3.0014
 Frc consts  --      0.0242                 0.0491                 0.0809
 IR Inten    --      3.3633                14.5665                11.9952

                     13                     14                     15
                      A                      A                      A
 Frequencies --    238.9203               276.1057               291.4950
 Red. masses --      1.6834                 1.6711                 2.4512
 Frc consts  --      0.0566                 0.0751                 0.1227
 IR Inten    --     32.2469                 2.6289                25.4126

                     16                     17                     18
                      A                      A                      A
 Frequencies --    312.5281               367.3957               405.2451
 Red. masses --      2.6292                 2.5930                 2.7454
 Frc consts  --      0.1513                 0.2062                 0.2656
 IR Inten    --     22.5235                15.6283                 6.5649

                     19                     20                     21
                      A                      A                      A
 Frequencies --    462.8877               479.2583               564.8406
 Red. masses --      3.0591                 3.5134                 4.1465
 Frc consts  --      0.3862                 0.4755                 0.7794
 IR Inten    --     45.9431                66.7353                18.0303

                     22                     23                     24
                      A                      A                      A
 Frequencies --    604.0605               703.2636               722.1228
 Red. masses --      3.2116                 1.3226                 4.6024
 Frc consts  --      0.6904                 0.3854                 1.4140
 IR Inten    --     48.7988                14.1860                 7.5384

                     25                     26                     27
                      A                      A                      A
 Frequencies --    792.3237               892.3534               989.2716
 Red. masses --      7.9782                 1.9108                 2.0081
 Frc consts  --      2.9510                 0.8965                 1.1579
 IR Inten    --     59.1043                29.4106                16.3019

                     28                     29                     30
                      A                      A                      A
 Frequencies --   1004.4197              1034.8270              1047.7068
 Red. masses --      1.2106                 1.2512                 1.6358
 Frc consts  --      0.7196                 0.7894                 1.0579
 IR Inten    --     31.0218                94.9185               179.7101

                     31                     32                     33
                      A                      A                      A
 Frequencies --   1055.2640              1062.8851              1087.7139
 Red. masses --      1.5596                 1.4037                 1.3581
 Frc consts  --      1.0233                 0.9343                 0.9467
 IR Inten    --     74.4154                 5.1540                50.3899

                     34                     35                     36
                      A                      A                      A
 Frequencies --   1095.2361              1125.1842              1134.3033
 Red. masses --      1.7919                 2.4344                 1.2391
 Frc consts  --      1.2664                 1.8159                 0.9393
 IR Inten    --    252.9090                62.5840                 1.5771

                     37                     38                     39
                      A                      A                      A
 Frequencies --   1161.9945              1168.9377              1176.1122
 Red. masses --      1.8548                 1.5148                 1.2998
 Frc consts  --      1.4756                 1.2195                 1.0593
 IR Inten    --     21.8720                66.8918               101.6041

                     40                     41                     42
                      A                      A                      A
 Frequencies --   1214.0606              1256.2271              1308.2266
 Red. masses --      1.3833                 2.0964                 4.7096
 Frc consts  --      1.2013                 1.9492                 4.7490
 IR Inten    --     64.5092                 1.9463                15.0100

                     43                     44                     45
                      A                      A                      A
 Frequencies --   1347.1263              1359.8915              1390.2403
 Red. masses --      1.3141                 2.3756                 1.3261
 Frc consts  --      1.4051                 2.5884                 1.5101
 IR Inten    --     13.9127               126.0278                95.6345

                     46                     47                     48
                      A                      A                      A
 Frequencies --   1405.6800              1423.1246              1440.2994
 Red. masses --      1.7790                 1.5628                 1.3441
 Frc consts  --      2.0710                 1.8648                 1.6427
 IR Inten    --    407.1261               392.2376                74.9189

                     49                     50                     51
                      A                      A                      A
 Frequencies --   1448.6790              1464.3850              1474.7322
 Red. masses --      1.3296                 1.2993                 1.1705
 Frc consts  --      1.6441                 1.6416                 1.4998
 IR Inten    --     20.3618                54.1337                52.5323

                     52                     53                     54
                      A                      A                      A
 Frequencies --   1479.7458              1484.3165              1490.5027
 Red. masses --      1.0455                 1.0795                 1.1486
 Frc consts  --      1.3488                 1.4013                 1.5034
 IR Inten    --      6.5137                 4.4614                 8.9433

                     55                     56                     57
                      A                      A                      A
 Frequencies --   1492.1734              1495.6172              1498.3602
 Red. masses --      1.0581                 1.0755                 1.0919
 Frc consts  --      1.3880                 1.4175                 1.4443
 IR Inten    --     14.3116                74.8873                11.0747

                     58                     59                     60
                      A                      A                      A
 Frequencies --   1502.8763              1508.3852              1511.8263
 Red. masses --      1.0683                 1.0410                 1.1010
 Frc consts  --      1.4217                 1.3955                 1.4827
 IR Inten    --     10.1157                12.5062                88.8766

                     61                     62                     63
                      A                      A                      A
 Frequencies --   1533.7507              1581.0399              1658.5608
 Red. masses --      1.3808                 5.7490                 1.0873
 Frc consts  --      1.9138                 8.4669                 1.7622
 IR Inten    --    201.1828               557.5153                45.0986

                     64                     65                     66
                      A                      A                      A
 Frequencies --   3000.1444              3003.8606              3019.7881
 Red. masses --      1.0448                 1.0514                 1.0408
 Frc consts  --      5.5409                 5.5897                 5.5920
 IR Inten    --    170.8296               110.4759               165.2542

                     67                     68                     69
                      A                      A                      A
 Frequencies --   3048.7582              3058.9958              3063.3235
 Red. masses --      1.0931                 1.0363                 1.0382
 Frc consts  --      5.9861                 5.7133                 5.7401
 IR Inten    --     57.8903                68.9497                39.6360

                     70                     71                     72
                      A                      A                      A
 Frequencies --   3067.0100              3084.3552              3091.6973
 Red. masses --      1.1019                 1.0888                 1.0989
 Frc consts  --      6.1071                 6.1028                 6.1890
 IR Inten    --     86.9981                47.9577                45.8593

                     73                     74                     75
                      A                      A                      A
 Frequencies --   3126.5981              3129.7085              3132.8910
 Red. masses --      1.0998                 1.0913                 1.1007
 Frc consts  --      6.3344                 6.2978                 6.3649
 IR Inten    --     36.2261                53.2084                13.1744

                     76                     77                     78
                      A                      A                      A
 Frequencies --   3164.6984              3164.9485              3170.2127
 Red. masses --      1.0981                 1.1036                 1.1021
 Frc consts  --      6.4796                 6.5135                 6.5262
 IR Inten    --     16.9738                28.9893                12.3256

                     79                     80                     81
                      A                      A                      A
 Frequencies --   3171.4209              3436.4223              3591.2498
 Red. masses --      1.0955                 1.0636                 1.0858
 Frc consts  --      6.4916                 7.4001                 8.2506
 IR Inten    --     15.1082               106.1256                51.6269

 - Thermochemistry -
 -------------------
 Temperature   298.150 Kelvin.  Pressure   1.00000 Atm.
 Atom     1 has atomic number  6 and mass  12.00000

 Molecular mass:   158.14191 amu.
 Principal axes and moments of inertia in atomic units:
                           1         2         3
     Eigenvalues --   997.558142845.272883173.84695
           X            0.99997   0.00732  -0.00130
           Y           -0.00733   0.99993  -0.00981
           Z            0.00123   0.00982   0.99995
 This molecule is an asymmetric top.
 Rotational symmetry number  1.
 Warning -- assumption of classical behavior for rotation
           may cause significant error
 Rotational temperatures (Kelvin)      0.08683     0.03044     0.02729
 Rotational constants (GHZ):           1.80916     0.63429     0.56863
    1 imaginary frequencies ignored.
 Zero-point vibrational energy     682439.4 (Joules/Mol)
                                  163.10692 (Kcal/Mol)
 Warning -- explicit consideration of  21 degrees of freedom as
           vibrations may cause significant error
 Vibrational temperatures:     86.80    96.38   143.68   149.72   186.13
          (Kelvin)            210.80   227.65   246.99   269.70   293.63
                              307.69   343.75   397.25   419.40   449.66
                              528.60   583.06   665.99   689.55   812.68
                              869.11  1011.84  1038.97  1139.98  1283.90
                             1423.34  1445.14  1488.89  1507.42  1518.29
                             1529.25  1564.98  1575.80  1618.89  1632.01
                             1671.85  1681.84  1692.16  1746.76  1807.43
                             1882.25  1938.21  1956.58  2000.25  2022.46
                             2047.56  2072.27  2084.33  2106.92  2121.81
                             2129.02  2135.60  2144.50  2146.90  2151.86
                             2155.81  2162.30  2170.23  2175.18  2206.73
                             2274.76  2386.30  4316.54  4321.89  4344.80
                             4386.48  4401.21  4407.44  4412.74  4437.70
                             4448.26  4498.48  4502.95  4507.53  4553.30
                             4553.65  4561.23  4562.97  4944.25  5167.01

 Zero-point correction=                           0.259927 (Hartree/Particle)
 Thermal correction to Energy=                    0.274200
 Thermal correction to Enthalpy=                  0.275144
 Thermal correction to Gibbs Free Energy=         0.219532
 Sum of electronic and zero-point Energies=           -500.148498
 Sum of electronic and thermal Energies=              -500.134225
 Sum of electronic and thermal Enthalpies=            -500.133281
 Sum of electronic and thermal Free Energies=         -500.188894

                     E (Thermal)             CV                S
                      KCal/Mol        Cal/Mol-Kelvin    Cal/Mol-Kelvin
 Total                  172.063             50.389            117.046
 Electronic               0.000              0.000              0.000
 Translational            0.889              2.981             41.084
 Rotational               0.889              2.981             30.578
 Vibrational            170.286             44.427             45.384
 Vibration     1          0.597              1.973              4.446
 Vibration     2          0.598              1.970              4.240
 Vibration     3          0.604              1.949              3.457
 Vibration     4          0.605              1.946              3.377
 Vibration     5          0.612              1.924              2.955
 Vibration     6          0.617              1.906              2.717
 Vibration     7          0.621              1.893              2.571
 Vibration     8          0.626              1.877              2.417
 Vibration     9          0.632              1.857              2.253
 Vibration    10          0.640              1.834              2.096
 Vibration    11          0.644              1.820              2.011
 Vibration    12          0.657              1.781              1.811
 Vibration    13          0.678              1.718              1.558
 Vibration    14          0.687              1.690              1.465
 Vibration    15          0.701              1.650              1.349
 Vibration    16          0.740              1.539              1.091
 Vibration    17          0.770              1.459              0.944
 Vibration    18          0.821              1.332              0.758
 Vibration    19          0.836              1.296              0.712
 Vibration    20          0.921              1.107              0.514
 Vibration    21          0.963              1.023              0.443

 Optimization completed.
    -- Stationary point found.
 Normal termination of Gaussian 16 at Fri Feb 12 17:27:42 2021.
