 Gaussian 16, Revision A.03,
 Gaussian 16:  ES64L-G16RevA.03 25-Dec-2016

 ----------------------------------------------------------------------
 # wB97XD def2tzvp, opt=(ts, noeigen, calcfc, maxcycles=70, maxstep=5),
  freq=noraman, scrf=(iefpcm, solvent=water)
 ----------------------------------------------------------------------

 -----------------------
 2_iteration/TS-31-2.out
 -----------------------
 Symbolic Z-matrix:
 Charge =  0 Multiplicity = 1

 SCF Done:  E(RwB97XD) =  -3609.92580338     A.U. after   15 cycles
 SCF Done:  E(RwB97XD) =  -3609.92580339     A.U. after    7 cycles
 Optimization completed.
    -- Stationary point found.
 Normal termination of Gaussian 16 at Sun Apr 18 02:28:47 2021.

 ---------------------------------------------------------------------
 #N Geom=AllCheck Guess=TCheck SCRF=Check GenChk RwB97XD/def2TZVP Freq
 ---------------------------------------------------------------------

 Structure from the checkpoint file:  "/beegfs/scratch/user/q/tla25/Gau-15111.chk"
 -----------------------
 2_iteration/TS-31-2.out
 -----------------------
 Charge =  0 Multiplicity = 1

                         Standard orientation:
 ---------------------------------------------------------------------
 Center     Atomic      Atomic             Coordinates (Angstroms)
 Number     Number       Type             X           Y           Z
 ---------------------------------------------------------------------
      1          6           0       -0.363181   -0.915592   -0.318786
      2          6           0        1.039272   -1.221323   -0.387999
      3          8           0        1.498723   -2.262299   -0.861971
      4          6           0       -0.973210    0.203323    0.328696
      5          6           0       -0.465884   -1.296029    2.602761
      6          1           0       -1.381586   -1.859966    2.449590
      7          1           0        0.334495   -1.767646    2.040315
      8          1           0       -0.209635   -1.285719    3.660599
      9          7           0       -0.638949    0.079356    2.122301
     10          1           0       -1.359775    0.556680    2.653011
     11          1           0        0.222082    0.595341    2.271961
     12          6           0       -2.494569    0.282619    0.231216
     13          6           0       -3.026741    0.768098   -0.963020
     14          6           0       -4.393865    0.857345   -1.151232
     15          6           0       -5.265465    0.471696   -0.141785
     16          6           0       -4.748993   -0.008650    1.048152
     17          6           0       -3.375312   -0.105625    1.231698
     18          1           0       -2.362174    1.072255   -1.760778
     19          1           0       -4.779416    1.233325   -2.090279
     20          1           0       -6.335809    0.545484   -0.284058
     21          1           0       -5.411938   -0.318665    1.845621
     22          1           0       -3.028934   -0.517464    2.167954
     23          6           0       -0.407032    1.593834    0.022340
     24          6           0        0.164996    1.840424   -1.224468
     25          6           0        0.617645    3.105677   -1.564265
     26          6           0        0.496078    4.154358   -0.666991
     27          6           0       -0.096661    3.929107    0.566227
     28          6           0       -0.552164    2.664783    0.903115
     29          1           0        0.257876    1.025539   -1.929728
     30          1           0        1.065279    3.267641   -2.536210
     31          1           0        0.851562    5.142400   -0.928916
     32          1           0       -0.214306    4.741930    1.270947
     33          1           0       -1.039325    2.540543    1.860898
     34         35           0       -1.466302   -2.415535   -0.783139
     35          7           0        1.906509   -0.278418    0.177037
     36          6           0        3.305928   -0.295600    0.111893
     37          6           0        4.060938   -1.465604    0.190249
     38          6           0        5.445974   -1.395747    0.169941
     39          6           0        6.101512   -0.175738    0.085777
     40          6           0        5.350475    0.989669    0.021798
     41          6           0        3.967272    0.931839    0.030111
     42          1           0        1.535955    0.651279    0.272547
     43          1           0        3.560311   -2.417805    0.263316
     44          1           0        6.018791   -2.313195    0.229244
     45          1           0        7.182862   -0.132998    0.073703
     46          1           0        5.841817    1.952584   -0.042079
     47          1           0        3.387662    1.846810   -0.029944
 ---------------------------------------------------------------------

 SCF Done:  E(RwB97XD) =  -3609.92580339     A.U. after    1 cycles

 The electronic state is 1-A.
 Alpha  occ. eigenvalues -- -483.11321 -62.66127 -56.45237 -56.44899 -56.44891
 Alpha  occ. eigenvalues --  -19.19967 -14.51397 -14.45650 -10.38338 -10.38142
 Alpha  occ. eigenvalues --  -10.33401 -10.32636 -10.31993 -10.31732 -10.30520
 Alpha  occ. eigenvalues --  -10.30061 -10.30027 -10.30013 -10.30009 -10.29929
 Alpha  occ. eigenvalues --  -10.29871 -10.29564 -10.29560 -10.29476 -10.29348
 Alpha  occ. eigenvalues --  -10.28957 -10.28825 -10.28738 -10.28238 -10.28230
 Alpha  occ. eigenvalues --   -8.80222  -6.62338  -6.61261  -6.61236  -2.72733
 Alpha  occ. eigenvalues --   -2.72420  -2.72400  -2.71528  -2.71528  -1.13068
 Alpha  occ. eigenvalues --   -1.06896  -1.03403  -0.99005  -0.97327  -0.95358
 Alpha  occ. eigenvalues --   -0.92948  -0.88363  -0.86442  -0.86126  -0.85745
 Alpha  occ. eigenvalues --   -0.85035  -0.84604  -0.81231  -0.80311  -0.75849
 Alpha  occ. eigenvalues --   -0.72093  -0.71583  -0.71227  -0.70827  -0.70059
 Alpha  occ. eigenvalues --   -0.67620  -0.66190  -0.64308  -0.63310  -0.62003
 Alpha  occ. eigenvalues --   -0.61083  -0.59457  -0.58177  -0.57703  -0.56840
 Alpha  occ. eigenvalues --   -0.55894  -0.54871  -0.54382  -0.53986  -0.53068
 Alpha  occ. eigenvalues --   -0.52611  -0.51946  -0.51716  -0.51643  -0.51215
 Alpha  occ. eigenvalues --   -0.50569  -0.50059  -0.48899  -0.47881  -0.47405
 Alpha  occ. eigenvalues --   -0.46824  -0.46436  -0.45806  -0.44748  -0.44411
 Alpha  occ. eigenvalues --   -0.43581  -0.42813  -0.42765  -0.42616  -0.39848
 Alpha  occ. eigenvalues --   -0.37989  -0.36620  -0.35600  -0.34770  -0.34586
 Alpha  occ. eigenvalues --   -0.34096  -0.33374  -0.32057  -0.30394  -0.26303
 Alpha virt. eigenvalues --    0.02341   0.03339   0.04333   0.04831   0.05364
 Alpha virt. eigenvalues --    0.05606   0.08081   0.08987   0.10464   0.12272
 Alpha virt. eigenvalues --    0.12712   0.12880   0.13890   0.13915   0.15310

 Mulliken charges:
               1
     1  C   -0.224956
     2  C    0.238085
     3  O   -0.513441
     4  C    0.411435
     5  C   -0.304171
     6  H    0.164421
     7  H    0.165013
     8  H    0.174284
     9  N   -0.309122
    10  H    0.295639
    11  H    0.296556
    12  C    0.111300
    13  C   -0.274346
    14  C   -0.136930
    15  C   -0.135283
    16  C   -0.176961
    17  C   -0.210554
    18  H    0.159853
    19  H    0.144535
    20  H    0.146165
    21  H    0.144499
    22  H    0.148978
    23  C    0.014009
    24  C   -0.300658
    25  C   -0.097912
    26  C   -0.134105
    27  C   -0.149387
    28  C   -0.221240
    29  H    0.179734
    30  H    0.149332
    31  H    0.150017
    32  H    0.148811
    33  H    0.151413
    34  Br  -0.175155
    35  N   -0.246685
    36  C    0.266968
    37  C   -0.306484
    38  C   -0.093616
    39  C   -0.186578
    40  C   -0.129217
    41  C   -0.277777
    42  H    0.221265
    43  H    0.142346
    44  H    0.140734
    45  H    0.139748
    46  H    0.140168
    47  H    0.159274
 Sum of Mulliken charges =  -0.00000

 Dipole moment (field-independent basis, Debye):
    X=             -3.8523    Y=             10.0083    Z=              8.8943  Tot=             13.9325
 Quadrupole moment (field-independent basis, Debye-Ang):
   XX=           -158.6685   YY=           -167.3244   ZZ=           -146.3558
   XY=              6.1248   XZ=             -5.0618   YZ=            -11.1399

  Exact polarizability: 480.639  12.985 412.373 -20.762  -2.530 344.366
 Approx polarizability: 356.873   7.848 336.917 -16.599  -0.458 304.413

 ******    1 imaginary frequencies (negative Signs) ******

                      1                      2                      3
                      A                      A                      A
 Frequencies --   -324.7993                12.4691                20.1144
 Red. masses --      5.1645                 4.8996                 3.5235
 Frc consts  --      0.3210                 0.0004                 0.0008
 IR Inten    --    597.8858                 0.3054                 1.8379

                      4                      5                      6
                      A                      A                      A
 Frequencies --     26.2850                44.7034                56.0237
 Red. masses --      4.0641                 5.1968                 5.1393
 Frc consts  --      0.0017                 0.0061                 0.0095
 IR Inten    --      0.5554                 0.3229                 0.3619

                      7                      8                      9
                      A                      A                      A
 Frequencies --     61.9894                76.7843                87.0994
 Red. masses --      5.9659                 4.6328                 8.7659
 Frc consts  --      0.0135                 0.0161                 0.0392
 IR Inten    --      1.2057                 2.0115                 7.6947

                     10                     11                     12
                      A                      A                      A
 Frequencies --     98.3907               119.4059               126.5703
 Red. masses --      6.8933                 4.3453                 1.8107
 Frc consts  --      0.0393                 0.0365                 0.0171
 IR Inten    --      6.8855                 2.8588                 1.2112

                     13                     14                     15
                      A                      A                      A
 Frequencies --    140.6329               162.1255               173.7815
 Red. masses --      1.6956                 4.2222                 5.9011
 Frc consts  --      0.0198                 0.0654                 0.1050
 IR Inten    --      5.5273                 6.0266                 0.0978

                     16                     17                     18
                      A                      A                      A
 Frequencies --    203.0017               232.2710               252.2753
 Red. masses --      4.7730                 6.8074                 3.3685
 Frc consts  --      0.1159                 0.2164                 0.1263
 IR Inten    --      4.9748                 0.7523                14.7794

                     19                     20                     21
                      A                      A                      A
 Frequencies --    262.3609               270.4210               298.7425
 Red. masses --      5.2659                 5.6714                 3.0005
 Frc consts  --      0.2136                 0.2444                 0.1578
 IR Inten    --      7.4618                 2.7092                 3.1954

                     22                     23                     24
                      A                      A                      A
 Frequencies --    314.1616               332.9501               362.4110
 Red. masses --      4.2080                 3.7230                 7.0196
 Frc consts  --      0.2447                 0.2432                 0.5432
 IR Inten    --      1.9514                34.9355                20.1524

                     25                     26                     27
                      A                      A                      A
 Frequencies --    373.3787               398.4808               419.2130
 Red. masses --      6.6622                 5.4473                 2.8986
 Frc consts  --      0.5472                 0.5096                 0.3001
 IR Inten    --      7.4861                23.6646                 0.2613

                     28                     29                     30
                      A                      A                      A
 Frequencies --    425.2611               426.7866               495.4465
 Red. masses --      2.9752                 2.9185                 3.8049
 Frc consts  --      0.3170                 0.3132                 0.5503
 IR Inten    --      0.3553                 0.4301                11.3288

                     31                     32                     33
                      A                      A                      A
 Frequencies --    522.0446               543.3527               563.7022
 Red. masses --      2.5365                 3.7850                 2.7657
 Frc consts  --      0.4073                 0.6584                 0.5178
 IR Inten    --     51.3614                 7.7644                67.5368

                     34                     35                     36
                      A                      A                      A
 Frequencies --    578.0048               611.6302               633.5078
 Red. masses --      2.0590                 3.3484                 5.7900
 Frc consts  --      0.4053                 0.7380                 1.3691
 IR Inten    --     11.7306               111.1117                 6.7833

                     37                     38                     39
                      A                      A                      A
 Frequencies --    635.9753               637.6350               656.5250
 Red. masses --      6.2436                 6.2067                 5.8525
 Frc consts  --      1.4879                 1.4868                 1.4862
 IR Inten    --      2.9637                 2.0705                43.4464

                     40                     41                     42
                      A                      A                      A
 Frequencies --    668.5135               710.6467               718.6663
 Red. masses --      3.9306                 1.8557                 1.8756
 Frc consts  --      1.0350                 0.5521                 0.5708
 IR Inten    --    145.5199                76.8372                49.2065

                     43                     44                     45
                      A                      A                      A
 Frequencies --    727.0253               731.4143               761.2337
 Red. masses --      1.6979                 1.5597                 3.4007
 Frc consts  --      0.5288                 0.4916                 1.1611
 IR Inten    --     93.5536               117.3364                35.0333

                     46                     47                     48
                      A                      A                      A
 Frequencies --    768.5856               784.2330               788.1408
 Red. masses --      9.0996                 1.9920                 2.1772
 Frc consts  --      3.1671                 0.7218                 0.7968
 IR Inten    --     12.9544                70.8740                68.4676

                     49                     50                     51
                      A                      A                      A
 Frequencies --    794.6596               853.2064               860.3153
 Red. masses --      2.8950                 3.7921                 1.2591
 Frc consts  --      1.0771                 1.6264                 0.5491
 IR Inten    --     69.3884                11.2127                 2.6982

                     52                     53                     54
                      A                      A                      A
 Frequencies --    871.0157               881.8995               889.8073
 Red. masses --      1.2553                 1.2601                 4.5319
 Frc consts  --      0.5611                 0.5774                 2.1141
 IR Inten    --      1.3611                 0.5809                13.9973

                     55                     56                     57
                      A                      A                      A
 Frequencies --    932.3556               946.4964               952.2805
 Red. masses --      1.6465                 2.2353                 1.5596
 Frc consts  --      0.8433                 1.1798                 0.8333
 IR Inten    --     12.1809                12.7776                11.4304

                     58                     59                     60
                      A                      A                      A
 Frequencies --    978.2747              1001.4117              1010.4290
 Red. masses --      1.6830                 1.3550                 1.3918
 Frc consts  --      0.9490                 0.8006                 0.8372
 IR Inten    --      4.1275                 0.4008                 0.4892

                     61                     62                     63
                      A                      A                      A
 Frequencies --   1016.6883              1018.9339              1023.5471
 Red. masses --      1.4012                 3.7796                 2.4836
 Frc consts  --      0.8534                 2.3120                 1.5330
 IR Inten    --      4.5064                22.3138                 6.5867

                     64                     65                     66
                      A                      A                      A
 Frequencies --   1024.6025              1025.7662              1026.5755
 Red. masses --      2.7899                 4.6432                 2.7548
 Frc consts  --      1.7256                 2.8785                 1.7105
 IR Inten    --     31.0710                19.8400                 7.4896

                     67                     68                     69
                      A                      A                      A
 Frequencies --   1032.0577              1040.6103              1042.8315
 Red. masses --      1.3381                 1.3326                 1.3434
 Frc consts  --      0.8397                 0.8502                 0.8608
 IR Inten    --      0.4020                21.9780                 4.1438

                     70                     71                     72
                      A                      A                      A
 Frequencies --   1059.6649              1065.3072              1069.0392
 Red. masses --      2.2937                 1.9584                 2.7923
 Frc consts  --      1.5175                 1.3095                 1.8802
 IR Inten    --     11.2711                29.3000                14.8540

                     73                     74                     75
                      A                      A                      A
 Frequencies --   1072.0197              1094.5125              1120.8720
 Red. masses --      2.1697                 1.4802                 1.5469
 Frc consts  --      1.4691                 1.0447                 1.1450
 IR Inten    --     24.6889               110.4602                15.9594

                     76                     77                     78
                      A                      A                      A
 Frequencies --   1124.8367              1133.5699              1176.3308
 Red. masses --      1.5570                 1.6173                 3.2008
 Frc consts  --      1.1607                 1.2244                 2.6096
 IR Inten    --     11.6339                12.6352                32.6112

                     79                     80                     81
                      A                      A                      A
 Frequencies --   1181.7097              1187.1861              1189.3026
 Red. masses --      1.1253                 1.1292                 1.1520
 Frc consts  --      0.9258                 0.9377                 0.9600
 IR Inten    --      4.3789                 0.7885                 1.0738

                     82                     83                     84
                      A                      A                      A
 Frequencies --   1209.9810              1218.4916              1221.9231
 Red. masses --      1.1660                 1.4777                 1.7903
 Frc consts  --      1.0058                 1.2926                 1.5749
 IR Inten    --     45.7070               130.1249               131.1608

                     85                     86                     87
                      A                      A                      A
 Frequencies --   1235.8942              1269.3314              1277.0480
 Red. masses --      1.2223                 2.1716                 1.8208
 Frc consts  --      1.1000                 2.0615                 1.7496
 IR Inten    --     25.1666               302.7958               162.6090

                     88                     89                     90
                      A                      A                      A
 Frequencies --   1292.4692              1317.0189              1323.5998
 Red. masses --      3.8578                 4.6880                 5.0824
 Frc consts  --      3.7969                 4.7909                 5.2461
 IR Inten    --     28.8994                14.6663                14.7407

                     91                     92                     93
                      A                      A                      A
 Frequencies --   1337.7437              1349.3914              1356.6538
 Red. masses --      4.4384                 3.2634                 1.5053
 Frc consts  --      4.6797                 3.5010                 1.6323
 IR Inten    --    542.3930               186.3959                85.1368

                     94                     95                     96
                      A                      A                      A
 Frequencies --   1364.3668              1367.8266              1377.2238
 Red. masses --      1.6697                 1.4631                 1.3520
 Frc consts  --      1.8313                 1.6129                 1.5110
 IR Inten    --     62.6173                47.8042                 8.7204

                     97                     98                     99
                      A                      A                      A
 Frequencies --   1468.6969              1472.5152              1490.1281
 Red. masses --      1.1924                 1.9430                 2.1883
 Frc consts  --      1.5154                 2.4822                 2.8628
 IR Inten    --      6.7152               209.8669                11.1097

                    100                    101                    102
                      A                      A                      A
 Frequencies --   1492.5117              1494.0610              1505.3640
 Red. masses --      2.1761                 1.0547                 1.0487
 Frc consts  --      2.8560                 1.3872                 1.4002
 IR Inten    --     67.1873                12.8446                16.4375

                    103                    104                    105
                      A                      A                      A
 Frequencies --   1539.4320              1545.4752              1549.2097
 Red. masses --      2.1758                 2.4627                 2.1734
 Frc consts  --      3.0380                 3.4656                 3.0733
 IR Inten    --     40.9968               339.2819                22.4720

                    106                    107                    108
                      A                      A                      A
 Frequencies --   1558.4470              1645.1927              1651.6578
 Red. masses --      1.9225                 1.8168                 4.1201
 Frc consts  --      2.7511                 2.8973                 6.6221
 IR Inten    --    143.3655                25.8620               328.8551

                    109                    110                    111
                      A                      A                      A
 Frequencies --   1655.4407              1658.8271              1666.0598
 Red. masses --      6.4302                 2.3961                 3.9734
 Frc consts  --     10.3826                 3.8846                 6.4981
 IR Inten    --    290.7503                11.1956               317.8017

                    112                    113                    114
                      A                      A                      A
 Frequencies --   1672.5324              1676.2349              1677.9721
 Red. masses --      4.9870                 6.0439                 5.6067
 Frc consts  --      8.2194                10.0055                 9.3009
 IR Inten    --      1.7963               245.1083               107.5715

                    115                    116                    117
                      A                      A                      A
 Frequencies --   3095.5864              3180.2681              3181.8947
 Red. masses --      1.0348                 1.0891                 1.1038
 Frc consts  --      5.8424                 6.4898                 6.5843
 IR Inten    --     19.5220                12.9509                 5.4763

                    118                    119                    120
                      A                      A                      A
 Frequencies --   3195.6453              3199.9090              3201.2350
 Red. masses --      1.0876                 1.0863                 1.1054
 Frc consts  --      6.5440                 6.5535                 6.6745
 IR Inten    --      2.0779                 0.6427                 6.2198

                    121                    122                    123
                      A                      A                      A
 Frequencies --   3202.7118              3204.7544              3208.4959
 Red. masses --      1.0862                 1.0927                 1.0895
 Frc consts  --      6.5643                 6.6124                 6.6083
 IR Inten    --      0.8516                28.6872                 6.8796

                    124                    125                    126
                      A                      A                      A
 Frequencies --   3209.7773              3217.7336              3218.5080
 Red. masses --      1.0886                 1.0918                 1.0931
 Frc consts  --      6.6078                 6.6605                 6.6716
 IR Inten    --      2.6937                 8.9967                28.6937

                    127                    128                    129
                      A                      A                      A
 Frequencies --   3220.3169              3224.1998              3225.9017
 Red. masses --      1.0977                 1.0944                 1.0971
 Frc consts  --      6.7072                 6.7029                 6.7269
 IR Inten    --     26.1778                20.3809                18.2563

                    130                    131                    132
                      A                      A                      A
 Frequencies --   3230.2192              3242.5496              3261.1756
 Red. masses --      1.0987                 1.0923                 1.0926
 Frc consts  --      6.7548                 6.7665                 6.8461
 IR Inten    --     11.1505                14.0126                 1.6254

                    133                    134                    135
                      A                      A                      A
 Frequencies --   3512.5696              3585.9910              3632.2966
 Red. masses --      1.0521                 1.0949                 1.0753
 Frc consts  --      7.6483                 8.2953                 8.3585
 IR Inten    --     39.2820                64.3408               190.2572

 - Thermochemistry -
 -------------------
 Temperature   298.150 Kelvin.  Pressure   1.00000 Atm.
 Atom     1 has atomic number  6 and mass  12.00000

 Molecular mass:   408.08372 amu.
 Principal axes and moments of inertia in atomic units:
                           1         2         3
     Eigenvalues --  6597.32610********************
           X            0.99979  -0.01956  -0.00620
           Y            0.01934   0.99919  -0.03515
           Z            0.00688   0.03502   0.99936
 This molecule is an asymmetric top.
 Rotational symmetry number  1.
 Warning -- assumption of classical behavior for rotation
           may cause significant error
 Rotational temperatures (Kelvin)      0.01313     0.00640     0.00502
 Rotational constants (GHZ):           0.27356     0.13329     0.10453
    1 imaginary frequencies ignored.
 Zero-point vibrational energy    1007273.3 (Joules/Mol)
                                  240.74410 (Kcal/Mol)
 Warning -- explicit consideration of  34 degrees of freedom as
           vibrations may cause significant error
 Vibrational temperatures:     17.94    28.94    37.82    64.32    80.61
          (Kelvin)             89.19   110.48   125.32   141.56   171.80
                              182.11   202.34   233.26   250.03   292.07
                              334.19   362.97   377.48   389.08   429.82
                              452.01   479.04   521.43   537.21   573.32
                              603.15   611.86   614.05   712.84   751.11
                              781.76   811.04   831.62   880.00   911.48
                              915.03   917.41   944.59   961.84  1022.46
                             1034.00  1046.03  1052.34  1095.25  1105.82
                             1128.34  1133.96  1143.34  1227.57  1237.80
                             1253.20  1268.86  1280.23  1341.45  1361.80
                             1370.12  1407.52  1440.81  1453.78  1462.79
                             1466.02  1472.66  1474.17  1475.85  1477.01
                             1484.90  1497.21  1500.40  1524.62  1532.74
                             1538.11  1542.40  1574.76  1612.68  1618.39
                             1630.95  1692.48  1700.22  1708.10  1711.14
                             1740.89  1753.14  1758.07  1778.18  1826.28
                             1837.39  1859.57  1894.90  1904.36  1924.71
                             1941.47  1951.92  1963.02  1968.00  1981.52
                             2113.13  2118.62  2143.96  2147.39  2149.62
                             2165.88  2214.90  2223.59  2228.97  2242.26
                             2367.07  2376.37  2381.81  2386.68  2397.09
                             2406.40  2411.73  2414.23  4453.86  4575.70
                             4578.04  4597.82  4603.96  4605.86  4607.99
                             4610.93  4616.31  4618.15  4629.60  4630.72
                             4633.32  4638.90  4641.35  4647.56  4665.31
                             4692.10  5053.80  5159.44  5226.06

 Zero-point correction=                           0.383650 (Hartree/Particle)
 Thermal correction to Energy=                    0.406771
 Thermal correction to Enthalpy=                  0.407715
 Thermal correction to Gibbs Free Energy=         0.327666
 Sum of electronic and zero-point Energies=          -3609.542153
 Sum of electronic and thermal Energies=             -3609.519033
 Sum of electronic and thermal Enthalpies=           -3609.518088
 Sum of electronic and thermal Free Energies=        -3609.598137

                     E (Thermal)             CV                S
                      KCal/Mol        Cal/Mol-Kelvin    Cal/Mol-Kelvin
 Total                  255.252             88.691            168.477
 Electronic               0.000              0.000              0.000
 Translational            0.889              2.981             43.910
 Rotational               0.889              2.981             35.688
 Vibrational            253.475             82.730             88.880
 Vibration     1          0.593              1.987              7.573
 Vibration     2          0.593              1.986              6.623
 Vibration     3          0.593              1.985              6.092
 Vibration     4          0.595              1.980              5.039
 Vibration     5          0.596              1.975              4.593
 Vibration     6          0.597              1.972              4.393
 Vibration     7          0.599              1.965              3.971
 Vibration     8          0.601              1.958              3.724
 Vibration     9          0.604              1.950              3.486
 Vibration    10          0.609              1.933              3.110
 Vibration    11          0.611              1.927              2.998
 Vibration    12          0.615              1.913              2.795
 Vibration    13          0.622              1.889              2.525
 Vibration    14          0.627              1.875              2.394
 Vibration    15          0.639              1.836              2.106
 Vibration    16          0.653              1.792              1.861
 Vibration    17          0.664              1.759              1.715
 Vibration    18          0.670              1.742              1.646
 Vibration    19          0.674              1.728              1.594
 Vibration    20          0.692              1.676              1.424
 Vibration    21          0.702              1.647              1.340
 Vibration    22          0.715              1.610              1.246
 Vibration    23          0.736              1.550              1.112
 Vibration    24          0.745              1.527              1.066
 Vibration    25          0.765              1.473              0.968
 Vibration    26          0.782              1.428              0.895
 Vibration    27          0.787              1.415              0.874
 Vibration    28          0.788              1.412              0.869
 Vibration    29          0.851              1.260              0.670
 Vibration    30          0.877              1.201              0.605
 Vibration    31          0.898              1.154              0.558
 Vibration    32          0.919              1.110              0.516
 Vibration    33          0.935              1.079              0.489
 Vibration    34          0.971              1.007              0.430

 Optimization completed.
    -- Stationary point found.
 Normal termination of Gaussian 16 at Sun Apr 18 05:00:20 2021.
