 Gaussian 16, Revision A.03,
 Gaussian 16:  ES64L-G16RevA.03 25-Dec-2016

 ----------------------------------------------------------------------
 # wB97XD def2tzvp, opt=(ts, noeigen, calcfc, maxcycles=70, maxstep=1),
  freq=noraman, scrf=(iefpcm, solvent=water)
 ----------------------------------------------------------------------

 ------------------------
 0_iteration/TS-321-0.out
 ------------------------
 Symbolic Z-matrix:
 Charge =  0 Multiplicity = 1

 SCF Done:  E(RwB97XD) =  -3092.45094770     A.U. after   15 cycles
 SCF Done:  E(RwB97XD) =  -3092.45094771     A.U. after    6 cycles
 Optimization completed.
    -- Stationary point found.
 Normal termination of Gaussian 16 at Tue Mar  2 02:49:07 2021.

 ---------------------------------------------------------------------
 #N Geom=AllCheck Guess=TCheck SCRF=Check GenChk RwB97XD/def2TZVP Freq
 ---------------------------------------------------------------------

 Structure from the checkpoint file:  "/beegfs/scratch/user/q/tla25/Gau-35804.chk"
 ------------------------
 0_iteration/TS-321-0.out
 ------------------------
 Charge =  0 Multiplicity = 1

                         Standard orientation:
 ---------------------------------------------------------------------
 Center     Atomic      Atomic             Coordinates (Angstroms)
 Number     Number       Type             X           Y           Z
 ---------------------------------------------------------------------
      1          6           0        0.161660    0.685468    0.039953
      2          6           0       -0.124443    1.968080    0.591541
      3          8           0        0.693873    2.828989    0.911483
      4          6           0       -0.839223   -0.233285   -0.242794
      5          6           0       -1.816480   -2.672016    1.092058
      6          1           0       -1.853186   -3.286127    1.992819
      7          1           0       -2.832366   -2.470615    0.757345
      8          1           0       -1.289323   -3.220121    0.312159
      9          7           0       -1.131229   -1.404036    1.325959
     10          1           0       -1.610349   -0.827516    2.008247
     11          1           0       -0.180397   -1.543546    1.648330
     12          1           0       -0.604894   -1.091089   -0.857057
     13         35           0       -2.649884    0.299859   -0.587799
     14          6           0        1.560113    0.212343   -0.124903
     15          6           0        2.487632    0.333557    0.912097
     16          6           0        3.786079   -0.129825    0.765478
     17          6           0        4.186466   -0.732394   -0.419317
     18          6           0        3.276135   -0.861990   -1.458213
     19          6           0        1.980423   -0.389548   -1.312570
     20          1           0        2.183729    0.794950    1.842376
     21          1           0        4.487371   -0.026104    1.584442
     22          1           0        5.199914   -1.096307   -0.532146
     23          1           0        3.577068   -1.324336   -2.390226
     24          1           0        1.285782   -0.478749   -2.139992
     25          1           0       -1.199953    2.188496    0.713120
 ---------------------------------------------------------------------

 SCF Done:  E(RwB97XD) =  -3092.45094771     A.U. after    1 cycles

 The electronic state is 1-A.
 Alpha  occ. eigenvalues -- -483.13888 -62.68742 -56.47857 -56.47506 -56.47488
 Alpha  occ. eigenvalues --  -19.21433 -14.48260 -10.39110 -10.34960 -10.31890
 Alpha  occ. eigenvalues --  -10.30106 -10.28789 -10.28734 -10.28666 -10.28592
 Alpha  occ. eigenvalues --  -10.28476 -10.27494  -8.82859  -6.65015  -6.63892
 Alpha  occ. eigenvalues --   -6.63835  -2.75405  -2.75085  -2.75042  -2.74133
 Alpha  occ. eigenvalues --   -2.74133  -1.11655  -1.03694  -0.96839  -0.93725
 Alpha  occ. eigenvalues --   -0.87969  -0.84793  -0.82271  -0.78930  -0.74209
 Alpha  occ. eigenvalues --   -0.70332  -0.69772  -0.63690  -0.63086  -0.59957
 Alpha  occ. eigenvalues --   -0.58041  -0.55640  -0.55153  -0.54386  -0.53153
 Alpha  occ. eigenvalues --   -0.52466  -0.50611  -0.49564  -0.48315  -0.47477
 Alpha  occ. eigenvalues --   -0.47383  -0.45994  -0.44639  -0.42648  -0.42447
 Alpha  occ. eigenvalues --   -0.38612  -0.37535  -0.34577  -0.33639  -0.32192
 Alpha  occ. eigenvalues --   -0.27642
 Alpha virt. eigenvalues --    0.02722   0.04234   0.05448   0.07354   0.10445
 Alpha virt. eigenvalues --    0.13410   0.13540   0.14942   0.15386   0.15719
 Alpha virt. eigenvalues --    0.17004   0.17863   0.18175   0.18803   0.19421

 Mulliken charges:
               1
     1  C   -0.073771
     2  C    0.103077
     3  O   -0.486501
     4  C   -0.070392
     5  C   -0.269994
     6  H    0.153417
     7  H    0.149819
     8  H    0.150555
     9  N   -0.348049
    10  H    0.283395
    11  H    0.282478
    12  H    0.190308
    13  Br  -0.070938
    14  C    0.142895
    15  C   -0.249026
    16  C   -0.128625
    17  C   -0.156793
    18  C   -0.140650
    19  C   -0.252180
    20  H    0.141210
    21  H    0.139856
    22  H    0.142155
    23  H    0.140442
    24  H    0.151653
    25  H    0.075661
 Sum of Mulliken charges =  -0.00000

 Dipole moment (field-independent basis, Debye):
    X=             -3.7493    Y=             -9.8489    Z=              1.9791  Tot=             10.7227
 Quadrupole moment (field-independent basis, Debye-Ang):
   XX=            -85.7918   YY=           -100.5043   ZZ=            -81.7279
   XY=             -3.2711   XZ=             -5.5701   YZ=             -7.1665

  Exact polarizability: 266.423   7.540 211.550   4.930  13.188 184.607
 Approx polarizability: 199.643   2.736 170.404   6.279  13.447 160.214

 ******    1 imaginary frequencies (negative Signs) ******

                      1                      2                      3
                      A                      A                      A
 Frequencies --   -346.2944                34.6422                38.6165
 Red. masses --      6.5136                 3.7408                 4.7591
 Frc consts  --      0.4602                 0.0026                 0.0042
 IR Inten    --   1049.1991                 1.1463                 2.0309

                      4                      5                      6
                      A                      A                      A
 Frequencies --     65.9927                82.5118               106.0391
 Red. masses --      3.0186                 2.9865                 5.2139
 Frc consts  --      0.0077                 0.0120                 0.0345
 IR Inten    --      1.4972                 6.5903                 4.2061

                      7                      8                      9
                      A                      A                      A
 Frequencies --    148.8872               163.4790               187.0113
 Red. masses --      2.2346                 2.9099                 2.3120
 Frc consts  --      0.0292                 0.0458                 0.0476
 IR Inten    --      2.6945                12.9946                 4.0835

                     10                     11                     12
                      A                      A                      A
 Frequencies --    219.6968               227.8799               261.6432
 Red. masses --      4.1559                 6.0741                 2.7037
 Frc consts  --      0.1182                 0.1858                 0.1091
 IR Inten    --     26.3102                 3.1008                11.2341

                     13                     14                     15
                      A                      A                      A
 Frequencies --    291.7413               347.5758               420.8511
 Red. masses --      3.6302                 4.9552                 2.8637
 Frc consts  --      0.1820                 0.3527                 0.2988
 IR Inten    --      4.2713                86.8608                 1.0311

                     16                     17                     18
                      A                      A                      A
 Frequencies --    487.7999               535.8830               577.7569
 Red. masses --      4.2317                 5.4344                 3.9986
 Frc consts  --      0.5933                 0.9195                 0.7864
 IR Inten    --     68.8318                43.9131                38.6531

                     19                     20                     21
                      A                      A                      A
 Frequencies --    608.5004               638.9760               696.5319
 Red. masses --      1.5491                 6.1369                 4.9065
 Frc consts  --      0.3379                 1.4763                 1.4025
 IR Inten    --     17.5809                 0.7116                43.3345

                     22                     23                     24
                      A                      A                      A
 Frequencies --    722.0956               745.3226               773.6058
 Red. masses --      1.6482                 2.6160                 4.5955
 Frc consts  --      0.5064                 0.8562                 1.6204
 IR Inten    --     72.2517               161.1292                10.7296

                     25                     26                     27
                      A                      A                      A
 Frequencies --    813.8321               871.6344               949.7465
 Red. masses --      2.5096                 1.2545                 1.4780
 Frc consts  --      0.9793                 0.5615                 0.7855
 IR Inten    --     58.3958                 1.6080                 8.0275

                     28                     29                     30
                      A                      A                      A
 Frequencies --   1003.1488              1006.4014              1021.9278
 Red. masses --      1.0754                 1.3802                 1.4434
 Frc consts  --      0.6376                 0.8236                 0.8881
 IR Inten    --     17.2505                 0.2983                 8.2890

                     31                     32                     33
                      A                      A                      A
 Frequencies --   1023.0023              1025.0622              1030.1075
 Red. masses --      1.5365                 2.3501                 1.5698
 Frc consts  --      0.9474                 1.4549                 0.9814
 IR Inten    --     71.5026                53.7946                 5.8232

                     34                     35                     36
                      A                      A                      A
 Frequencies --   1058.5304              1071.4386              1108.1925
 Red. masses --      2.4523                 4.4840                 1.5233
 Frc consts  --      1.6190                 3.0329                 1.1022
 IR Inten    --      9.1120               179.2646                11.9332

                     37                     38                     39
                      A                      A                      A
 Frequencies --   1111.8040              1135.7668              1181.8062
 Red. masses --      2.2748                 1.1251                 1.1300
 Frc consts  --      1.6567                 0.8551                 0.9299
 IR Inten    --     21.8357               106.3051                 0.3012

                     40                     41                     42
                      A                      A                      A
 Frequencies --   1207.4353              1214.4668              1251.7923
 Red. masses --      1.1276                 1.4129                 1.5411
 Frc consts  --      0.9685                 1.2278                 1.4228
 IR Inten    --      1.7612                17.5338                25.9203

                     43                     44                     45
                      A                      A                      A
 Frequencies --   1309.2352              1342.3387              1350.3030
 Red. masses --      3.8625                 1.3259                 1.9452
 Frc consts  --      3.9008                 1.4076                 2.0896
 IR Inten    --     92.4851                 1.8771               215.8818

                     46                     47                     48
                      A                      A                      A
 Frequencies --   1378.3701              1421.6926              1462.8696
 Red. masses --      1.9366                 3.2078                 1.1797
 Frc consts  --      2.1678                 3.8201                 1.4875
 IR Inten    --    433.4284               334.5378                 3.5597

                     49                     50                     51
                      A                      A                      A
 Frequencies --   1478.5195              1491.0470              1504.0657
 Red. masses --      1.7830                 1.0401                 2.0761
 Frc consts  --      2.2965                 1.3624                 2.7672
 IR Inten    --     34.9868                15.7869                80.2249

                     52                     53                     54
                      A                      A                      A
 Frequencies --   1506.1184              1542.9674              1641.4425
 Red. masses --      1.0756                 2.4198                 1.0928
 Frc consts  --      1.4375                 3.3942                 1.7347
 IR Inten    --     16.3714                81.6796                75.6218

                     55                     56                     57
                      A                      A                      A
 Frequencies --   1644.0853              1665.1855              1682.4114
 Red. masses --      5.6919                 6.1003                 6.5652
 Frc consts  --      9.0648                 9.9661                10.9487
 IR Inten    --      3.3147               327.5644               721.4794

                     58                     59                     60
                      A                      A                      A
 Frequencies --   2960.9588              3064.2573              3140.5042
 Red. masses --      1.0816                 1.0341                 1.1044
 Frc consts  --      5.5868                 5.7209                 6.4175
 IR Inten    --    117.8888                54.8605                17.0698

                     61                     62                     63
                      A                      A                      A
 Frequencies --   3163.7092              3186.4417              3193.6536
 Red. masses --      1.1053                 1.0868                 1.0876
 Frc consts  --      6.5181                 6.5015                 6.5360
 IR Inten    --     13.7596                 9.7091                 0.4881

                     64                     65                     66
                      A                      A                      A
 Frequencies --   3203.4122              3213.8640              3216.8262
 Red. masses --      1.0922                 1.0945                 1.0922
 Frc consts  --      6.6035                 6.6609                 6.6592
 IR Inten    --     26.9724                34.9211                 2.4943

                     67                     68                     69
                      A                      A                      A
 Frequencies --   3220.9763              3521.9657              3606.9876
 Red. masses --      1.0979                 1.0505                 1.0967
 Frc consts  --      6.7108                 7.6777                 8.4065
 IR Inten    --     14.3882                22.7049                50.2213

 - Thermochemistry -
 -------------------
 Temperature   298.150 Kelvin.  Pressure   1.00000 Atm.
 Atom     1 has atomic number  6 and mass  12.00000

 Molecular mass:   241.01023 amu.
 Principal axes and moments of inertia in atomic units:
                           1         2         3
     Eigenvalues --  1921.471405533.537906182.36093
           X            0.99970   0.01185  -0.02163
           Y           -0.01235   0.99966  -0.02307
           Z            0.02134   0.02333   0.99950
 This molecule is an asymmetric top.
 Rotational symmetry number  1.
 Warning -- assumption of classical behavior for rotation
           may cause significant error
 Rotational temperatures (Kelvin)      0.04508     0.01565     0.01401
 Rotational constants (GHZ):           0.93925     0.32615     0.29192
    1 imaginary frequencies ignored.
 Zero-point vibrational energy     529846.1 (Joules/Mol)
                                  126.63625 (Kcal/Mol)
 Warning -- explicit consideration of  18 degrees of freedom as
           vibrations may cause significant error
 Vibrational temperatures:     49.84    55.56    94.95   118.72   152.57
          (Kelvin)            214.22   235.21   269.07   316.09   327.87
                              376.45   419.75   500.08   605.51   701.84
                              771.02   831.26   875.50   919.34  1002.15
                             1038.93  1072.35  1113.05  1170.92  1254.09
                             1366.47  1443.31  1447.99  1470.33  1471.87
                             1474.84  1482.09  1522.99  1541.56  1594.44
                             1599.64  1634.12  1700.36  1737.23  1747.35
                             1801.05  1883.70  1931.33  1942.78  1983.17
                             2045.50  2104.74  2127.26  2145.28  2164.02
                             2166.97  2219.99  2361.67  2365.47  2395.83
                             2420.61  4260.16  4408.78  4518.49  4551.87
                             4584.58  4594.96  4609.00  4624.03  4628.30
                             4634.27  5067.32  5189.65

 Zero-point correction=                           0.201808 (Hartree/Particle)
 Thermal correction to Energy=                    0.215071
 Thermal correction to Enthalpy=                  0.216015
 Thermal correction to Gibbs Free Energy=         0.159467
 Sum of electronic and zero-point Energies=          -3092.249140
 Sum of electronic and thermal Energies=             -3092.235877
 Sum of electronic and thermal Enthalpies=           -3092.234933
 Sum of electronic and thermal Free Energies=        -3092.291481

                     E (Thermal)             CV                S
                      KCal/Mol        Cal/Mol-Kelvin    Cal/Mol-Kelvin
 Total                  134.959             47.241            119.016
 Electronic               0.000              0.000              0.000
 Translational            0.889              2.981             42.340
 Rotational               0.889              2.981             32.552
 Vibrational            133.182             41.280             44.123
 Vibration     1          0.594              1.983              5.544
 Vibration     2          0.594              1.981              5.329
 Vibration     3          0.597              1.970              4.269
 Vibration     4          0.600              1.961              3.830
 Vibration     5          0.605              1.944              3.340
 Vibration     6          0.618              1.904              2.686
 Vibration     7          0.623              1.887              2.509
 Vibration     8          0.632              1.858              2.257
 Vibration     9          0.647              1.811              1.962
 Vibration    10          0.651              1.798              1.896
 Vibration    11          0.669              1.743              1.651
 Vibration    12          0.687              1.689              1.464
 Vibration    13          0.725              1.580              1.177
 Vibration    14          0.783              1.425              0.889
 Vibration    15          0.844              1.277              0.689
 Vibration    16          0.891              1.171              0.574
 Vibration    17          0.934              1.079              0.490
 Vibration    18          0.967              1.014              0.435

 Optimization completed.
    -- Stationary point found.
 Normal termination of Gaussian 16 at Tue Mar  2 03:25:57 2021.
