 Gaussian 16, Revision A.03,
 Gaussian 16:  ES64L-G16RevA.03 25-Dec-2016

 ----------------------------------------------------------------------
 # wB97XD def2tzvp, opt=(ts, noeigen, calcfc, maxcycles=70, maxstep=8),
  freq=noraman, scrf=(iefpcm, solvent=water)
 ----------------------------------------------------------------------

 ------------------------
 0_iteration/TS-318-0.out
 ------------------------
 Symbolic Z-matrix:
 Charge =  0 Multiplicity = 1

 SCF Done:  E(RwB97XD) =  -920.698972806     A.U. after   14 cycles
 SCF Done:  E(RwB97XD) =  -920.698303820     A.U. after   13 cycles
 SCF Done:  E(RwB97XD) =  -920.698134461     A.U. after   13 cycles
 SCF Done:  E(RwB97XD) =  -920.698810625     A.U. after   13 cycles
 SCF Done:  E(RwB97XD) =  -920.701452667     A.U. after   14 cycles
 SCF Done:  E(RwB97XD) =  -920.704004066     A.U. after   14 cycles
 SCF Done:  E(RwB97XD) =  -920.706096040     A.U. after   13 cycles
 SCF Done:  E(RwB97XD) =  -920.707542330     A.U. after   13 cycles
 SCF Done:  E(RwB97XD) =  -920.708079499     A.U. after   13 cycles
 SCF Done:  E(RwB97XD) =  -920.708194276     A.U. after   13 cycles
 SCF Done:  E(RwB97XD) =  -920.708627365     A.U. after   12 cycles
 SCF Done:  E(RwB97XD) =  -920.708555687     A.U. after   11 cycles
 SCF Done:  E(RwB97XD) =  -920.708770531     A.U. after   11 cycles
 SCF Done:  E(RwB97XD) =  -920.708743382     A.U. after   11 cycles
 SCF Done:  E(RwB97XD) =  -920.708829534     A.U. after   11 cycles
 SCF Done:  E(RwB97XD) =  -920.708832010     A.U. after   11 cycles
 SCF Done:  E(RwB97XD) =  -920.708834550     A.U. after    9 cycles
 SCF Done:  E(RwB97XD) =  -920.708834892     A.U. after    8 cycles
 SCF Done:  E(RwB97XD) =  -920.708835006     A.U. after    8 cycles
 Optimization completed.
    -- Stationary point found.
 Normal termination of Gaussian 16 at Fri Feb 12 16:36:50 2021.

 ---------------------------------------------------------------------
 #N Geom=AllCheck Guess=TCheck SCRF=Check GenChk RwB97XD/def2TZVP Freq
 ---------------------------------------------------------------------

 Structure from the checkpoint file:  "/beegfs/scratch/user/q/tla25/Gau-20109.chk"
 ------------------------
 0_iteration/TS-318-0.out
 ------------------------
 Charge =  0 Multiplicity = 1

                         Standard orientation:
 ---------------------------------------------------------------------
 Center     Atomic      Atomic             Coordinates (Angstroms)
 Number     Number       Type             X           Y           Z
 ---------------------------------------------------------------------
      1          6           0       -0.027510    0.540655    0.371912
      2          6           0        0.789665   -0.601126   -0.003530
      3          8           0        0.261199   -1.698442   -0.270165
      4          6           0       -1.361193    0.391231    0.756744
      5          6           0       -3.760405   -0.487570   -0.734086
      6          1           0       -4.157908   -0.712841   -1.725310
      7          1           0       -3.945260   -1.339403   -0.083412
      8          1           0       -4.282223    0.380883   -0.333070
      9          7           0       -2.327337   -0.211409   -0.776259
     10          1           0       -1.765528   -1.034805   -0.978678
     11          1           0       -2.104627    0.496002   -1.465433
     12          1           0       -1.899033    1.326684    0.873037
     13          6           0       -1.767361   -0.645201    1.772134
     14          1           0       -1.405533   -0.325616    2.750667
     15          1           0       -2.851426   -0.730377    1.836076
     16          1           0       -1.339974   -1.618249    1.543813
     17         17           0        0.357202    2.095453   -0.415544
     18          7           0        2.142941   -0.463555   -0.085337
     19          6           0        2.893955    0.544841    0.630899
     20          6           0        2.929113   -1.531962   -0.660465
     21          1           0        2.242942    1.085581    1.312101
     22          1           0        3.678038    0.057540    1.217071
     23          1           0        3.366048    1.258561   -0.049304
     24          1           0        2.339250   -2.071562   -1.396362
     25          1           0        3.807806   -1.105149   -1.147008
     26          1           0        3.268594   -2.242875    0.100911
 ---------------------------------------------------------------------

 SCF Done:  E(RwB97XD) =  -920.708835006     A.U. after    1 cycles

 The electronic state is 1-A.
 Alpha  occ. eigenvalues -- -101.67799 -19.19979 -14.47137 -14.45163 -10.37449
 Alpha  occ. eigenvalues --  -10.33488 -10.31460 -10.30403 -10.30193 -10.29139
 Alpha  occ. eigenvalues --  -10.27527  -9.56322  -7.30924  -7.30136  -7.30106
 Alpha  occ. eigenvalues --   -1.12584  -1.02924  -1.02493  -0.94817  -0.87382
 Alpha  occ. eigenvalues --   -0.81709  -0.79875  -0.78807  -0.75657  -0.68928
 Alpha  occ. eigenvalues --   -0.62729  -0.61468  -0.57459  -0.56298  -0.55742
 Alpha  occ. eigenvalues --   -0.55140  -0.54077  -0.53353  -0.49765  -0.48878
 Alpha  occ. eigenvalues --   -0.48223  -0.48014  -0.47492  -0.46873  -0.45764
 Alpha  occ. eigenvalues --   -0.44973  -0.44882  -0.41876  -0.39743  -0.38659
 Alpha  occ. eigenvalues --   -0.33957  -0.31449  -0.25711
 Alpha virt. eigenvalues --    0.06417   0.10330   0.11021   0.12291   0.14303
 Alpha virt. eigenvalues --    0.15058   0.15461   0.16616   0.17804   0.17905
 Alpha virt. eigenvalues --    0.18603   0.19111   0.19330   0.20110   0.20235

 Mulliken charges:
               1
     1  C   -0.228298
     2  C    0.332961
     3  O   -0.579851
     4  C    0.019100
     5  C   -0.292046
     6  H    0.148997
     7  H    0.154927
     8  H    0.151240
     9  N   -0.327236
    10  H    0.268875
    11  H    0.272842
    12  H    0.146922
    13  C   -0.397314
    14  H    0.137467
    15  H    0.136019
    16  H    0.147494
    17  Cl  -0.221172
    18  N   -0.112999
    19  C   -0.296578
    20  C   -0.290467
    21  H    0.153969
    22  H    0.132461
    23  H    0.136818
    24  H    0.137477
    25  H    0.137279
    26  H    0.131111
 Sum of Mulliken charges =  -0.00000

 Dipole moment (field-independent basis, Debye):
    X=             -4.1768    Y=             -0.0237    Z=             -0.6334  Tot=              4.2246
 Quadrupole moment (field-independent basis, Debye-Ang):
   XX=            -50.0492   YY=            -85.0761   ZZ=            -72.0201
   XY=             -0.6083   XZ=              3.8522   YZ=              0.3555

  Exact polarizability: 211.999   6.329 157.804   5.148  -0.035 135.153
 Approx polarizability: 152.749   6.593 133.804   3.405   0.672 115.909

 ******    1 imaginary frequencies (negative Signs) ******

                      1                      2                      3
                      A                      A                      A
 Frequencies --   -379.2311                57.5031                61.6100
 Red. masses --      6.2932                 3.3175                 3.9540
 Frc consts  --      0.5333                 0.0065                 0.0088
 IR Inten    --    950.8675                 2.9018                10.4423

                      4                      5                      6
                      A                      A                      A
 Frequencies --    100.7346               110.0885               117.9883
 Red. masses --      2.6582                 1.7615                 3.8232
 Frc consts  --      0.0159                 0.0126                 0.0314
 IR Inten    --      0.1678                 4.2825                24.5391

                      7                      8                      9
                      A                      A                      A
 Frequencies --    129.2327               160.9941               167.0943
 Red. masses --      1.7836                 1.0916                 1.2809
 Frc consts  --      0.0176                 0.0167                 0.0211
 IR Inten    --      1.4329                 2.2458                 1.6212

                     10                     11                     12
                      A                      A                      A
 Frequencies --    194.2071               201.0144               232.9245
 Red. masses --      2.4219                 3.0279                 2.3375
 Frc consts  --      0.0538                 0.0721                 0.0747
 IR Inten    --     28.3488                 5.1818                 5.9936

                     13                     14                     15
                      A                      A                      A
 Frequencies --    237.0867               271.8866               282.5986
 Red. masses --      2.4809                 1.8511                 2.7057
 Frc consts  --      0.0822                 0.0806                 0.1273
 IR Inten    --     17.5399                 3.2155                43.2837

                     16                     17                     18
                      A                      A                      A
 Frequencies --    351.0250               398.2133               437.0253
 Red. masses --      2.5594                 3.0122                 3.3720
 Frc consts  --      0.1858                 0.2814                 0.3794
 IR Inten    --     10.8746                11.3787                10.1892

                     19                     20                     21
                      A                      A                      A
 Frequencies --    456.3941               497.8509               582.1573
 Red. masses --      3.5034                 7.0683                 4.1272
 Frc consts  --      0.4300                 1.0322                 0.8241
 IR Inten    --     72.5581                62.7880                 5.7605

                     22                     23                     24
                      A                      A                      A
 Frequencies --    669.9271               692.8980               781.6514
 Red. masses --      2.2476                 1.8229                 9.3698
 Frc consts  --      0.5943                 0.5156                 3.3729
 IR Inten    --     29.1080                16.8854                64.8846

                     25                     26                     27
                      A                      A                      A
 Frequencies --    889.4945               955.8179              1005.8230
 Red. masses --      2.9596                 2.3930                 1.3150
 Frc consts  --      1.3797                 1.2881                 0.7838
 IR Inten    --     20.6668                81.5861                27.4582

                     28                     29                     30
                      A                      A                      A
 Frequencies --   1022.8999              1047.0523              1058.8064
 Red. masses --      1.7156                 1.3193                 1.4446
 Frc consts  --      1.0576                 0.8522                 0.9542
 IR Inten    --      5.8134                61.4955                98.2771

                     31                     32                     33
                      A                      A                      A
 Frequencies --   1085.2615              1090.1234              1133.4109
 Red. masses --      1.8688                 1.6053                 1.2305
 Frc consts  --      1.2968                 1.1240                 0.9313
 IR Inten    --    257.7527                79.3715                 2.0130

                     34                     35                     36
                      A                      A                      A
 Frequencies --   1143.2850              1166.8329              1170.5055
 Red. masses --      2.0271                 1.4378                 1.3910
 Frc consts  --      1.5611                 1.1534                 1.1229
 IR Inten    --     12.5942               139.4135                54.6339

                     37                     38                     39
                      A                      A                      A
 Frequencies --   1202.2657              1213.7573              1309.2605
 Red. masses --      1.7457                 1.3960                 3.6594
 Frc consts  --      1.4867                 1.2117                 3.6959
 IR Inten    --     18.8859                49.6259                34.3534

                     40                     41                     42
                      A                      A                      A
 Frequencies --   1335.6953              1347.7518              1396.5350
 Red. masses --      2.2484                 1.2993                 1.2935
 Frc consts  --      2.3634                 1.3905                 1.4863
 IR Inten    --    197.8538                 8.6300                74.8816

                     43                     44                     45
                      A                      A                      A
 Frequencies --   1427.4301              1444.2716              1447.9927
 Red. masses --      2.1355                 1.2362                 1.5037
 Frc consts  --      2.5636                 1.5193                 1.8576
 IR Inten    --    632.4933                35.6230                23.9149

                     46                     47                     48
                      A                      A                      A
 Frequencies --   1467.3561              1474.2729              1484.0922
 Red. masses --      1.3172                 1.2076                 1.0837
 Frc consts  --      1.6710                 1.5465                 1.4064
 IR Inten    --     46.4337                62.2444                 4.6777

                     49                     50                     51
                      A                      A                      A
 Frequencies --   1488.7733              1491.5706              1492.7005
 Red. masses --      1.0502                 1.0606                 1.0895
 Frc consts  --      1.3715                 1.3902                 1.4303
 IR Inten    --     31.7984                25.3172                13.6715

                     52                     53                     54
                      A                      A                      A
 Frequencies --   1501.1472              1502.6643              1513.2179
 Red. masses --      1.1272                 1.0759                 1.1107
 Frc consts  --      1.4965                 1.4314                 1.4985
 IR Inten    --     33.3191                15.6068                39.4077

                     55                     56                     57
                      A                      A                      A
 Frequencies --   1535.0769              1609.9246              1658.4062
 Red. masses --      1.6231                 5.9050                 1.0885
 Frc consts  --      2.2535                 9.0174                 1.7639
 IR Inten    --    220.2395               651.9429                44.5140

                     58                     59                     60
                      A                      A                      A
 Frequencies --   3025.1066              3035.5327              3060.5811
 Red. masses --      1.0462                 1.0390                 1.0359
 Frc consts  --      5.6409                 5.6405                 5.7171
 IR Inten    --     94.0703               122.7057                66.7095

                     61                     62                     63
                      A                      A                      A
 Frequencies --   3071.9473              3088.2202              3099.2781
 Red. masses --      1.0378                 1.1025                 1.0947
 Frc consts  --      5.7700                 6.1949                 6.1952
 IR Inten    --     28.5695                75.0383                26.5949

                     64                     65                     66
                      A                      A                      A
 Frequencies --   3133.9492              3139.9820              3162.6011
 Red. masses --      1.1030                 1.0998                 1.0948
 Frc consts  --      6.3829                 6.3890                 6.4515
 IR Inten    --     25.7383                28.4743                 0.6404

                     67                     68                     69
                      A                      A                      A
 Frequencies --   3164.5696              3170.6791              3173.7746
 Red. masses --      1.1035                 1.0994                 1.0978
 Frc consts  --      6.5108                 6.5119                 6.5152
 IR Inten    --     24.4207                12.1432                11.9472

                     70                     71                     72
                      A                      A                      A
 Frequencies --   3180.1393              3490.4997              3594.6456
 Red. masses --      1.0990                 1.0569                 1.0910
 Frc consts  --      6.5484                 7.5868                 8.3059
 IR Inten    --     17.7778                51.4141                57.1222

 - Thermochemistry -
 -------------------
 Temperature   298.150 Kelvin.  Pressure   1.00000 Atm.
 Atom     1 has atomic number  6 and mass  12.00000

 Molecular mass:   178.08729 amu.
 Principal axes and moments of inertia in atomic units:
                           1         2         3
     Eigenvalues --  1356.270612953.331603557.72251
           X            1.00000  -0.00090   0.00146
           Y            0.00087   0.99972   0.02348
           Z           -0.00148  -0.02348   0.99972
 This molecule is an asymmetric top.
 Rotational symmetry number  1.
 Warning -- assumption of classical behavior for rotation
           may cause significant error
 Rotational temperatures (Kelvin)      0.06386     0.02933     0.02435
 Rotational constants (GHZ):           1.33066     0.61109     0.50727
    1 imaginary frequencies ignored.
 Zero-point vibrational energy     585554.6 (Joules/Mol)
                                  139.95091 (Kcal/Mol)
 Warning -- explicit consideration of  20 degrees of freedom as
           vibrations may cause significant error
 Vibrational temperatures:     82.73    88.64   144.93   158.39   169.76
          (Kelvin)            185.94   231.63   240.41   279.42   289.21
                              335.13   341.11   391.18   406.60   505.05
                              572.94   628.78   656.65   716.30   837.59
                              963.88   996.93  1124.62  1279.78  1375.21
                             1447.15  1471.72  1506.47  1523.39  1561.45
                             1568.44  1630.73  1644.93  1678.81  1684.10
                             1729.79  1746.33  1883.73  1921.77  1939.11
                             2009.30  2053.75  2077.98  2083.34  2111.20
                             2121.15  2135.28  2142.01  2146.04  2147.66
                             2159.82  2162.00  2177.18  2208.63  2316.32
                             2386.08  4352.45  4367.45  4403.49  4419.85
                             4443.26  4459.17  4509.05  4517.73  4550.28
                             4553.11  4561.90  4566.35  4575.51  5022.05
                             5171.89

 Zero-point correction=                           0.223026 (Hartree/Particle)
 Thermal correction to Energy=                    0.237033
 Thermal correction to Enthalpy=                  0.237977
 Thermal correction to Gibbs Free Energy=         0.182219
 Sum of electronic and zero-point Energies=           -920.485809
 Sum of electronic and thermal Energies=              -920.471802
 Sum of electronic and thermal Enthalpies=            -920.470858
 Sum of electronic and thermal Free Energies=         -920.526616

                     E (Thermal)             CV                S
                      KCal/Mol        Cal/Mol-Kelvin    Cal/Mol-Kelvin
 Total                  148.740             48.529            117.352
 Electronic               0.000              0.000              0.000
 Translational            0.889              2.981             41.438
 Rotational               0.889              2.981             31.033
 Vibrational            146.963             42.567             44.880
 Vibration     1          0.596              1.975              4.541
 Vibration     2          0.597              1.973              4.405
 Vibration     3          0.604              1.949              3.440
 Vibration     4          0.606              1.941              3.267
 Vibration     5          0.608              1.934              3.133
 Vibration     6          0.612              1.924              2.957
 Vibration     7          0.622              1.890              2.538
 Vibration     8          0.624              1.883              2.468
 Vibration     9          0.635              1.848              2.187
 Vibration    10          0.638              1.838              2.124
 Vibration    11          0.654              1.791              1.856
 Vibration    12          0.656              1.784              1.825
 Vibration    13          0.675              1.725              1.584
 Vibration    14          0.682              1.706              1.518
 Vibration    15          0.728              1.573              1.162
 Vibration    16          0.764              1.474              0.969
 Vibration    17          0.797              1.389              0.836
 Vibration    18          0.815              1.347              0.777
 Vibration    19          0.853              1.255              0.664
 Vibration    20          0.939              1.070              0.481

 Optimization completed.
    -- Stationary point found.
 Normal termination of Gaussian 16 at Fri Feb 12 17:02:49 2021.
