 Gaussian 16, Revision A.03,
 Gaussian 16:  ES64L-G16RevA.03 25-Dec-2016

 ----------------------------------------------------------------------
 # wB97XD def2tzvp, opt=(ts, noeigen, calcfc, maxcycles=70, maxstep=8),
  freq=noraman, scrf=(iefpcm, solvent=water)
 ----------------------------------------------------------------------

 ------------------------
 0_iteration/TS-338-0.out
 ------------------------
 Symbolic Z-matrix:
 Charge =  0 Multiplicity = 1

 SCF Done:  E(RwB97XD) =  -2940.01043881     A.U. after   15 cycles
 SCF Done:  E(RwB97XD) =  -2940.00943867     A.U. after   13 cycles
 SCF Done:  E(RwB97XD) =  -2940.00915308     A.U. after   13 cycles
 SCF Done:  E(RwB97XD) =  -2940.01028207     A.U. after   13 cycles
 SCF Done:  E(RwB97XD) =  -2940.01227781     A.U. after   14 cycles
 SCF Done:  E(RwB97XD) =  -2940.01560561     A.U. after   14 cycles
 SCF Done:  E(RwB97XD) =  -2940.01915869     A.U. after   13 cycles
 SCF Done:  E(RwB97XD) =  -2940.02260118     A.U. after   12 cycles
 SCF Done:  E(RwB97XD) =  -2940.02579550     A.U. after   12 cycles
 SCF Done:  E(RwB97XD) =  -2940.02863386     A.U. after   13 cycles
 SCF Done:  E(RwB97XD) =  -2940.03224870     A.U. after   11 cycles
 SCF Done:  E(RwB97XD) =  -2940.03227539     A.U. after   11 cycles
 SCF Done:  E(RwB97XD) =  -2940.03227022     A.U. after   10 cycles
 SCF Done:  E(RwB97XD) =  -2940.03227580     A.U. after   10 cycles
 SCF Done:  E(RwB97XD) =  -2940.03227582     A.U. after    8 cycles
 SCF Done:  E(RwB97XD) =  -2940.03223147     A.U. after   11 cycles
 SCF Done:  E(RwB97XD) =  -2940.03227571     A.U. after   11 cycles
 SCF Done:  E(RwB97XD) =  -2940.03227586     A.U. after    8 cycles
 SCF Done:  E(RwB97XD) =  -2940.03227585     A.U. after    7 cycles
 Optimization completed.
    -- Stationary point found.
 Normal termination of Gaussian 16 at Fri Feb 12 15:40:06 2021.

 ---------------------------------------------------------------------
 #N Geom=AllCheck Guess=TCheck SCRF=Check GenChk RwB97XD/def2TZVP Freq
 ---------------------------------------------------------------------

 Structure from the checkpoint file:  "/beegfs/scratch/user/q/tla25/Gau-84862.chk"
 ------------------------
 0_iteration/TS-338-0.out
 ------------------------
 Charge =  0 Multiplicity = 1

                         Standard orientation:
 ---------------------------------------------------------------------
 Center     Atomic      Atomic             Coordinates (Angstroms)
 Number     Number       Type             X           Y           Z
 ---------------------------------------------------------------------
      1          6           0        1.058966   -0.054393    0.607909
      2          6           0        1.588660   -1.016758   -0.309982
      3          8           0        2.742096   -1.450485   -0.175973
      4          6           0       -0.212178    0.498718    0.600805
      5          6           0        0.765497    2.651634   -0.837082
      6          1           0        0.713644    3.349750   -1.671633
      7          1           0        0.927754    3.201489    0.087996
      8          1           0        1.597904    1.964659   -0.988933
      9          7           0       -0.458094    1.867917   -0.719116
     10          1           0       -1.252742    2.433212   -0.441216
     11          1           0       -0.694134    1.412652   -1.593312
     12          1           0       -0.449260    1.151214    1.429093
     13         35           0       -1.837150   -0.513879    0.227809
     14          6           0        2.028625    0.485064    1.638072
     15          1           0        1.553837    1.230178    2.278210
     16          1           0        2.408179   -0.313472    2.280647
     17          1           0        2.898937    0.954798    1.170867
     18          6           0        0.785584   -1.533758   -1.488662
     19          1           0        0.115215   -0.793786   -1.922168
     20          1           0        1.484259   -1.875480   -2.250639
     21          1           0        0.175613   -2.384051   -1.176996
 ---------------------------------------------------------------------

 SCF Done:  E(RwB97XD) =  -2940.03227585     A.U. after    1 cycles

 The electronic state is 1-A.
 Alpha  occ. eigenvalues -- -483.12939 -62.67803 -56.46908 -56.46569 -56.46554
 Alpha  occ. eigenvalues --  -19.20086 -14.49175 -10.38282 -10.34817 -10.31863
 Alpha  occ. eigenvalues --  -10.27047 -10.26818 -10.26115  -8.81922  -6.64046
 Alpha  occ. eigenvalues --   -6.62968  -6.62917  -2.74436  -2.74135  -2.74095
 Alpha  occ. eigenvalues --   -2.73223  -2.73222  -1.10715  -1.04479  -0.92770
 Alpha  occ. eigenvalues --   -0.86489  -0.82532  -0.79172  -0.76122  -0.70949
 Alpha  occ. eigenvalues --   -0.63924  -0.58670  -0.57496  -0.55734  -0.54109
 Alpha  occ. eigenvalues --   -0.53474  -0.51350  -0.49150  -0.48648  -0.48022
 Alpha  occ. eigenvalues --   -0.47358  -0.45192  -0.44410  -0.43047  -0.42034
 Alpha  occ. eigenvalues --   -0.37296  -0.36870  -0.31882  -0.27234
 Alpha virt. eigenvalues --    0.04261   0.05662   0.09820   0.12768   0.13338
 Alpha virt. eigenvalues --    0.15295   0.15663   0.16966   0.17230   0.18201
 Alpha virt. eigenvalues --    0.19733   0.20366   0.20529   0.22007   0.23005

 Mulliken charges:
               1
     1  C   -0.187444
     2  C    0.214911
     3  O   -0.519836
     4  C   -0.060695
     5  C   -0.282005
     6  H    0.162813
     7  H    0.157699
     8  H    0.156196
     9  N   -0.318291
    10  H    0.293102
    11  H    0.282417
    12  H    0.195243
    13  Br  -0.118514
    14  C   -0.347744
    15  H    0.118327
    16  H    0.118384
    17  H    0.112618
    18  C   -0.354164
    19  H    0.105806
    20  H    0.126408
    21  H    0.144768
 Sum of Mulliken charges =  -0.00000

 Dipole moment (field-independent basis, Debye):
    X=             -5.9025    Y=              8.6695    Z=             -2.3755  Tot=             10.7537
 Quadrupole moment (field-independent basis, Debye-Ang):
   XX=            -87.9140   YY=            -59.7914   ZZ=            -64.4697
   XY=              7.1422   XZ=              1.0175   YZ=             -2.2950

  Exact polarizability: 182.787 -17.305 157.383   5.067   0.875 125.942
 Approx polarizability: 143.495 -12.405 125.237   3.519   0.476 105.933

 ******    1 imaginary frequencies (negative Signs) ******

                      1                      2                      3
                      A                      A                      A
 Frequencies --   -390.0717                56.2455                72.4355
 Red. masses --      5.9778                 2.7566                 4.0908
 Frc consts  --      0.5359                 0.0051                 0.0126
 IR Inten    --    913.8891                 0.1779                 8.5376

                      4                      5                      6
                      A                      A                      A
 Frequencies --    112.0281               146.9107               151.7884
 Red. masses --      2.5324                 2.2927                 1.2446
 Frc consts  --      0.0187                 0.0292                 0.0169
 IR Inten    --     19.1076                 1.9512                 4.9310

                      7                      8                      9
                      A                      A                      A
 Frequencies --    164.2285               194.7533               207.9441
 Red. masses --      3.5428                 1.3435                 1.4959
 Frc consts  --      0.0563                 0.0300                 0.0381
 IR Inten    --      0.4771                 0.3310                 2.5563

                     10                     11                     12
                      A                      A                      A
 Frequencies --    231.0035               278.0557               304.9717
 Red. masses --      1.6912                 4.1527                 3.1370
 Frc consts  --      0.0532                 0.1892                 0.1719
 IR Inten    --      4.2334                22.2873                 9.8998

                     13                     14                     15
                      A                      A                      A
 Frequencies --    320.2899               427.4654               481.7690
 Red. masses --      3.3772                 3.1515                 3.6037
 Frc consts  --      0.2041                 0.3393                 0.4928
 IR Inten    --     10.9697                66.8292                56.2330

                     16                     17                     18
                      A                      A                      A
 Frequencies --    584.9407               626.4695               656.8511
 Red. masses --      2.9925                 2.2716                 2.8378
 Frc consts  --      0.6033                 0.5253                 0.7214
 IR Inten    --     16.9692                21.6596                74.7726

                     19                     20                     21
                      A                      A                      A
 Frequencies --    734.3934               786.3490               969.0215
 Red. masses --      2.2360                 3.3631                 1.9535
 Frc consts  --      0.7105                 1.2252                 1.0808
 IR Inten    --     47.6999               104.8815                22.9917

                     22                     23                     24
                      A                      A                      A
 Frequencies --    997.7227              1022.7282              1024.2708
 Red. masses --      1.1205                 1.2882                 1.3783
 Frc consts  --      0.6572                 0.7939                 0.8520
 IR Inten    --     83.7418                53.3012               155.9863

                     25                     26                     27
                      A                      A                      A
 Frequencies --   1034.2367              1065.2008              1081.9529
 Red. masses --      1.3184                 1.5896                 4.7569
 Frc consts  --      0.8308                 1.0627                 3.2809
 IR Inten    --     89.0317                 0.4995                51.1378

                     28                     29                     30
                      A                      A                      A
 Frequencies --   1106.9263              1149.6406              1223.3107
 Red. masses --      2.4583                 1.1203                 1.3981
 Frc consts  --      1.7747                 0.8724                 1.2327
 IR Inten    --      5.1672                57.4487                28.4291

                     31                     32                     33
                      A                      A                      A
 Frequencies --   1252.3270              1341.4724              1381.0864
 Red. masses --      1.3598                 1.3303                 1.3398
 Frc consts  --      1.2565                 1.4105                 1.5057
 IR Inten    --     58.4767                 3.3650                36.2373

                     34                     35                     36
                      A                      A                      A
 Frequencies --   1407.6333              1421.9340              1430.0181
 Red. masses --      1.6787                 1.7868                 2.2561
 Frc consts  --      1.9598                 2.1285                 2.7183
 IR Inten    --     69.8288               281.2661               695.4455

                     37                     38                     39
                      A                      A                      A
 Frequencies --   1462.6517              1465.6813              1466.3267
 Red. masses --      1.1731                 1.0694                 1.1750
 Frc consts  --      1.4787                 1.3535                 1.4885
 IR Inten    --     41.7375                11.3731                11.7726

                     40                     41                     42
                      A                      A                      A
 Frequencies --   1489.2780              1493.5134              1503.2712
 Red. masses --      1.0834                 1.0467                 1.0723
 Frc consts  --      1.4158                 1.3756                 1.4277
 IR Inten    --     15.0469                64.8183                40.9604

                     43                     44                     45
                      A                      A                      A
 Frequencies --   1505.5207              1630.0218              1648.5362
 Red. masses --      1.2065                 8.5771                 1.0963
 Frc consts  --      1.6113                13.4270                 1.7554
 IR Inten    --    234.2997               783.2342                38.2420

                     46                     47                     48
                      A                      A                      A
 Frequencies --   3030.1722              3066.7315              3071.9438
 Red. masses --      1.0370                 1.0376                 1.0326
 Frc consts  --      5.6101                 5.7495                 5.7410
 IR Inten    --     90.2002                 9.4449                28.3955

                     49                     50                     51
                      A                      A                      A
 Frequencies --   3082.2160              3118.7031              3141.2852
 Red. masses --      1.1012                 1.1005                 1.0985
 Frc consts  --      6.1635                 6.3066                 6.3863
 IR Inten    --     55.2344                37.2352                17.7678

                     52                     53                     54
                      A                      A                      A
 Frequencies --   3152.9179              3163.4290              3167.9941
 Red. masses --      1.1051                 1.1033                 1.1059
 Frc consts  --      6.4725                 6.5051                 6.5396
 IR Inten    --      8.7878                40.6607                13.5592

                     55                     56                     57
                      A                      A                      A
 Frequencies --   3213.1951              3521.8009              3605.1476
 Red. masses --      1.0914                 1.0506                 1.0967
 Frc consts  --      6.6391                 7.6771                 8.3982
 IR Inten    --      6.1029                52.1029                50.9970

 - Thermochemistry -
 -------------------
 Temperature   298.150 Kelvin.  Pressure   1.00000 Atm.
 Atom     1 has atomic number  6 and mass  12.00000

 Molecular mass:   193.01023 amu.
 Principal axes and moments of inertia in atomic units:
                           1         2         3
     Eigenvalues --  1427.088542281.677862857.34178
           X            0.99965  -0.00886   0.02491
           Y            0.00833   0.99974   0.02127
           Z           -0.02509  -0.02105   0.99946
 This molecule is an asymmetric top.
 Rotational symmetry number  1.
 Warning -- assumption of classical behavior for rotation
           may cause significant error
 Rotational temperatures (Kelvin)      0.06069     0.03796     0.03031
 Rotational constants (GHZ):           1.26463     0.79097     0.63162
    1 imaginary frequencies ignored.
 Zero-point vibrational energy     463246.2 (Joules/Mol)
                                  110.71849 (Kcal/Mol)
 Warning -- explicit consideration of  15 degrees of freedom as
           vibrations may cause significant error
 Vibrational temperatures:     80.92   104.22   161.18   211.37   218.39
          (Kelvin)            236.29   280.21   299.19   332.36   400.06
                              438.79   460.83   615.03   693.16   841.60
                              901.35   945.06  1056.63  1131.38  1394.21
                             1435.50  1471.48  1473.70  1488.04  1532.59
                             1556.69  1592.62  1654.08  1760.07  1801.82
                             1930.08  1987.08  2025.27  2045.85  2057.48
                             2104.43  2108.79  2109.72  2142.74  2148.83
                             2162.87  2166.11  2345.24  2371.88  4359.74
                             4412.34  4419.84  4434.62  4487.12  4519.61
                             4536.35  4551.47  4558.04  4623.07  5067.09
                             5187.00

 Zero-point correction=                           0.176441 (Hartree/Particle)
 Thermal correction to Energy=                    0.187930
 Thermal correction to Enthalpy=                  0.188874
 Thermal correction to Gibbs Free Energy=         0.138186
 Sum of electronic and zero-point Energies=          -2939.855835
 Sum of electronic and thermal Energies=             -2939.844346
 Sum of electronic and thermal Enthalpies=           -2939.843402
 Sum of electronic and thermal Free Energies=        -2939.894090

                     E (Thermal)             CV                S
                      KCal/Mol        Cal/Mol-Kelvin    Cal/Mol-Kelvin
 Total                  117.928             39.621            106.683
 Electronic               0.000              0.000              0.000
 Translational            0.889              2.981             41.678
 Rotational               0.889              2.981             30.610
 Vibrational            116.150             33.660             34.395
 Vibration     1          0.596              1.975              4.585
 Vibration     2          0.599              1.967              4.086
 Vibration     3          0.607              1.940              3.233
 Vibration     4          0.617              1.906              2.712
 Vibration     5          0.619              1.901              2.650
 Vibration     6          0.623              1.886              2.501
 Vibration     7          0.635              1.847              2.182
 Vibration     8          0.641              1.829              2.062
 Vibration     9          0.653              1.794              1.871
 Vibration    10          0.679              1.714              1.546
 Vibration    11          0.696              1.664              1.389
 Vibration    12          0.706              1.635              1.309
 Vibration    13          0.789              1.410              0.867
 Vibration    14          0.838              1.290              0.705
 Vibration    15          0.942              1.064              0.476

 Optimization completed.
    -- Stationary point found.
 Normal termination of Gaussian 16 at Fri Feb 12 15:52:59 2021.
