 Gaussian 16, Revision A.03,
 Gaussian 16:  ES64L-G16RevA.03 25-Dec-2016

 ----------------------------------------------------------------------
 # wB97XD def2tzvp, opt=(ts, noeigen, calcfc, maxcycles=70, maxstep=8),
  freq=noraman, scrf=(iefpcm, solvent=water)
 ----------------------------------------------------------------------

 ------------------------
 1_iteration/TS-366-1.out
 ------------------------
 Symbolic Z-matrix:
 Charge =  0 Multiplicity = 1

 SCF Done:  E(RwB97XD) =  -1112.44951410     A.U. after   15 cycles
 SCF Done:  E(RwB97XD) =  -1112.44956048     A.U. after   11 cycles
 SCF Done:  E(RwB97XD) =  -1112.44956229     A.U. after    8 cycles
 SCF Done:  E(RwB97XD) =  -1112.44956246     A.U. after    8 cycles
 SCF Done:  E(RwB97XD) =  -1112.44956245     A.U. after    7 cycles
 Optimization completed.
    -- Stationary point found.
 Normal termination of Gaussian 16 at Tue Mar  2 10:54:10 2021.

 ---------------------------------------------------------------------
 #N Geom=AllCheck Guess=TCheck SCRF=Check GenChk RwB97XD/def2TZVP Freq
 ---------------------------------------------------------------------

 Structure from the checkpoint file:  "/beegfs/scratch/user/q/tla25/Gau-114033.chk"
 ------------------------
 1_iteration/TS-366-1.out
 ------------------------
 Charge =  0 Multiplicity = 1

                         Standard orientation:
 ---------------------------------------------------------------------
 Center     Atomic      Atomic             Coordinates (Angstroms)
 Number     Number       Type             X           Y           Z
 ---------------------------------------------------------------------
      1          6           0       -0.313407   -0.111183   -0.273389
      2          6           0       -0.970742    1.085460    0.278589
      3          8           0       -1.959249    0.984534    1.025935
      4          6           0       -1.100517   -1.205289   -0.561251
      5          6           0       -0.808059   -2.383176    1.975017
      6          1           0       -1.177432   -2.561617    2.985923
      7          1           0       -0.369426   -3.301770    1.587463
      8          1           0       -0.036611   -1.613935    2.012568
      9          7           0       -1.861390   -1.931229    1.080329
     10          1           0       -2.573468   -2.631787    0.917175
     11          1           0       -2.282096   -1.059098    1.395700
     12          1           0       -0.623062   -2.117580   -0.887498
     13         17           0       -2.650073   -1.012247   -1.417510
     14          6           0        1.148236   -0.291128   -0.193334
     15          6           0        1.908147    0.352463    0.792098
     16          6           0        3.278988    0.173483    0.880472
     17          6           0        3.939078   -0.667932   -0.004632
     18          6           0        3.204855   -1.313798   -0.989543
     19          6           0        1.836691   -1.117663   -1.090411
     20          1           0        1.412879    1.000583    1.505386
     21          1           0        3.834063    0.687689    1.655870
     22          1           0        5.009469   -0.812214    0.067503
     23          1           0        3.703161   -1.962929   -1.699535
     24          1           0        1.295188   -1.601115   -1.894855
     25          7           0       -0.463936    2.308308   -0.019822
     26          6           0        0.465948    2.564557   -1.097667
     27          6           0       -0.941799    3.479913    0.681360
     28          1           0        0.531598    1.702291   -1.754856
     29          1           0        0.110158    3.417761   -1.679628
     30          1           0        1.465316    2.795917   -0.718006
     31          1           0       -0.098475    4.139015    0.896987
     32          1           0       -1.668346    4.035485    0.080472
     33          1           0       -1.414916    3.181453    1.612124
 ---------------------------------------------------------------------

 SCF Done:  E(RwB97XD) =  -1112.44956245     A.U. after    1 cycles

 The electronic state is 1-A.
 Alpha  occ. eigenvalues -- -101.69255 -19.20529 -14.46841 -14.45883 -10.38004
 Alpha  occ. eigenvalues --  -10.37881 -10.31144 -10.30679 -10.30403 -10.30135
 Alpha  occ. eigenvalues --  -10.28563 -10.28547 -10.28131 -10.28059 -10.28046
 Alpha  occ. eigenvalues --  -10.26458  -9.57845  -7.32468  -7.31638  -7.31607
 Alpha  occ. eigenvalues --   -1.13196  -1.03339  -1.02683  -0.96801  -0.95476
 Alpha  occ. eigenvalues --   -0.88653  -0.84533  -0.82271  -0.81371  -0.79225
 Alpha  occ. eigenvalues --   -0.78030  -0.71744  -0.69618  -0.67969  -0.63414
 Alpha  occ. eigenvalues --   -0.62146  -0.61219  -0.57731  -0.56663  -0.56172
 Alpha  occ. eigenvalues --   -0.56081  -0.54556  -0.53218  -0.53007  -0.52654
 Alpha  occ. eigenvalues --   -0.50269  -0.50051  -0.48609  -0.48337  -0.47929
 Alpha  occ. eigenvalues --   -0.47492  -0.46636  -0.45553  -0.45416  -0.45179
 Alpha  occ. eigenvalues --   -0.42959  -0.42020  -0.39477  -0.37784  -0.35818
 Alpha  occ. eigenvalues --   -0.33565  -0.33295  -0.31987  -0.25687
 Alpha virt. eigenvalues --    0.04202   0.05496   0.06649   0.09727   0.11207
 Alpha virt. eigenvalues --    0.12344   0.13885   0.14539   0.14736   0.15253
 Alpha virt. eigenvalues --    0.16452   0.17196   0.17418   0.17960   0.18685

 Mulliken charges:
               1
     1  C   -0.188583
     2  C    0.294178
     3  O   -0.562836
     4  C    0.001743
     5  C   -0.284874
     6  H    0.148316
     7  H    0.146193
     8  H    0.148512
     9  N   -0.318132
    10  H    0.272658
    11  H    0.268110
    12  H    0.181128
    13  Cl  -0.144109
    14  C    0.108279
    15  C   -0.241583
    16  C   -0.146859
    17  C   -0.163825
    18  C   -0.147324
    19  C   -0.252898
    20  H    0.150399
    21  H    0.136420
    22  H    0.138643
    23  H    0.136689
    24  H    0.147797
    25  N   -0.097960
    26  C   -0.302590
    27  C   -0.291116
    28  H    0.161426
    29  H    0.146856
    30  H    0.138518
    31  H    0.136973
    32  H    0.137189
    33  H    0.142662
 Sum of Mulliken charges =  -0.00000

 Dipole moment (field-independent basis, Debye):
    X=              1.4927    Y=             -2.4744    Z=              1.3871  Tot=              3.2054
 Quadrupole moment (field-independent basis, Debye-Ang):
   XX=           -107.5542   YY=            -83.6708   ZZ=           -100.9825
   XY=              8.7808   XZ=             -2.6279   YZ=             -4.6451

  Exact polarizability: 302.180  14.552 244.411  -1.930   9.736 213.556
 Approx polarizability: 230.127   8.529 193.299  -1.316  11.542 182.899

 ******    1 imaginary frequencies (negative Signs) ******

                      1                      2                      3
                      A                      A                      A
 Frequencies --   -402.5854                39.1054                58.4902
 Red. masses --      5.8775                 3.9689                 4.4024
 Frc consts  --      0.5613                 0.0036                 0.0089
 IR Inten    --    965.8632                 6.4135                 5.0227

                      4                      5                      6
                      A                      A                      A
 Frequencies --     60.5835                76.5082                80.2147
 Red. masses --      3.0927                 2.5013                 3.0085
 Frc consts  --      0.0067                 0.0086                 0.0114
 IR Inten    --      2.5343                 0.5392                 4.9187

                      7                      8                      9
                      A                      A                      A
 Frequencies --     96.0774               109.9677               128.0134
 Red. masses --      2.3180                 1.6106                 3.1085
 Frc consts  --      0.0126                 0.0115                 0.0300
 IR Inten    --     10.7123                 4.2076                16.2240

                     10                     11                     12
                      A                      A                      A
 Frequencies --    155.3623               168.9327               173.4269
 Red. masses --      2.4524                 2.5798                 1.9398
 Frc consts  --      0.0349                 0.0434                 0.0344
 IR Inten    --      7.7858                 2.0571                 4.1315

                     13                     14                     15
                      A                      A                      A
 Frequencies --    194.2776               243.6238               244.6092
 Red. masses --      1.3812                 3.4445                 3.4141
 Frc consts  --      0.0307                 0.1205                 0.1204
 IR Inten    --     12.9189                 2.6210                10.4287

                     16                     17                     18
                      A                      A                      A
 Frequencies --    267.7639               302.2221               326.2715
 Red. masses --      3.3556                 2.9754                 5.8185
 Frc consts  --      0.1418                 0.1601                 0.3649
 IR Inten    --     27.1987                21.3874                36.5810

                     19                     20                     21
                      A                      A                      A
 Frequencies --    348.3043               407.3726               424.1684
 Red. masses --      4.6199                 3.3545                 2.9278
 Frc consts  --      0.3302                 0.3280                 0.3104
 IR Inten    --     22.5348                11.0208                 2.2225

                     22                     23                     24
                      A                      A                      A
 Frequencies --    448.4903               496.4006               532.0512
 Red. masses --      3.2152                 4.2931                 4.8948
 Frc consts  --      0.3810                 0.6233                 0.8164
 IR Inten    --     26.7898                41.7536                29.2907

                     25                     26                     27
                      A                      A                      A
 Frequencies --    584.5885               626.4779               639.4902
 Red. masses --      2.8368                 3.9309                 5.8608
 Frc consts  --      0.5712                 0.9090                 1.4121
 IR Inten    --     16.1422                31.2315                 3.6136

                     28                     29                     30
                      A                      A                      A
 Frequencies --    708.0681               719.4207               725.3255
 Red. masses --      5.3540                 2.0517                 1.5810
 Frc consts  --      1.5815                 0.6256                 0.4901
 IR Inten    --    104.3614                20.6706                78.1623

                     31                     32                     33
                      A                      A                      A
 Frequencies --    763.8234               795.3686               812.8043
 Red. masses --      3.5273                 5.7280                 3.3128
 Frc consts  --      1.2125                 2.1349                 1.2895
 IR Inten    --    131.7595                66.9946                93.7601

                     34                     35                     36
                      A                      A                      A
 Frequencies --    869.2622               935.6852               951.2425
 Red. masses --      1.2543                 1.4928                 3.9495
 Frc consts  --      0.5584                 0.7700                 2.1056
 IR Inten    --      2.2349                 4.5274                 4.7519

                     37                     38                     39
                      A                      A                      A
 Frequencies --    979.8881              1004.7707              1016.3271
 Red. masses --      1.0970                 1.3801                 1.3770
 Frc consts  --      0.6206                 0.8209                 0.8380
 IR Inten    --    111.6659                 0.4565                 1.2312

                     40                     41                     42
                      A                      A                      A
 Frequencies --   1019.8597              1025.0566              1049.4765
 Red. masses --      4.4006                 2.1774                 1.3889
 Frc consts  --      2.6968                 1.3480                 0.9013
 IR Inten    --      3.0334                44.9609                46.9437

                     43                     44                     45
                      A                      A                      A
 Frequencies --   1067.9097              1088.8651              1091.1776
 Red. masses --      1.8191                 1.4113                 3.3874
 Frc consts  --      1.2223                 0.9859                 2.3764
 IR Inten    --     12.4937                28.1011                83.6675

                     46                     47                     48
                      A                      A                      A
 Frequencies --   1099.6356              1118.8165              1131.7707
 Red. masses --      1.2734                 1.4679                 1.2298
 Frc consts  --      0.9072                 1.0826                 0.9281
 IR Inten    --     61.7732                44.4904                 0.1884

                     49                     50                     51
                      A                      A                      A
 Frequencies --   1170.2982              1179.8411              1181.1426
 Red. masses --      1.5376                 1.6708                 1.1784
 Frc consts  --      1.2408                 1.3703                 0.9686
 IR Inten    --     27.2762               105.4144                15.6752

                     52                     53                     54
                      A                      A                      A
 Frequencies --   1198.0991              1215.5001              1269.6094
 Red. masses --      1.4266                 1.1312                 1.7593
 Frc consts  --      1.2065                 0.9847                 1.6708
 IR Inten    --     29.4748                 9.6416                27.7346

                     55                     56                     57
                      A                      A                      A
 Frequencies --   1300.3304              1313.3211              1342.2036
 Red. masses --      3.6282                 5.0812                 2.8977
 Frc consts  --      3.6145                 5.1636                 3.0757
 IR Inten    --     58.2314                35.5864                82.6966

                     58                     59                     60
                      A                      A                      A
 Frequencies --   1350.8000              1365.9550              1433.3385
 Red. masses --      1.3363                 1.5118                 2.1133
 Frc consts  --      1.4366                 1.6620                 2.5581
 IR Inten    --      5.5116                28.6777               643.0937

                     61                     62                     63
                      A                      A                      A
 Frequencies --   1439.6105              1447.1481              1465.5043
 Red. masses --      1.8311                 1.3511                 1.4050
 Frc consts  --      2.2358                 1.6671                 1.7779
 IR Inten    --    171.5760                40.4898                52.5948

                     64                     65                     66
                      A                      A                      A
 Frequencies --   1474.4757              1483.9328              1489.8965
 Red. masses --      1.2038                 1.0728                 1.0416
 Frc consts  --      1.5420                 1.3918                 1.3622
 IR Inten    --     35.1376                11.8307                14.6419

                     67                     68                     69
                      A                      A                      A
 Frequencies --   1493.0970              1497.8455              1500.3657
 Red. masses --      1.0508                 2.3824                 1.0626
 Frc consts  --      1.3802                 3.1493                 1.4093
 IR Inten    --     31.1604                71.9531                34.8328

                     70                     71                     72
                      A                      A                      A
 Frequencies --   1507.8536              1538.5713              1540.6032
 Red. masses --      1.0569                 1.8628                 2.0300
 Frc consts  --      1.4158                 2.5981                 2.8387
 IR Inten    --     11.4623               148.2927               262.6245

                     73                     74                     75
                      A                      A                      A
 Frequencies --   1618.1240              1637.9412              1647.2406
 Red. masses --      2.4239                 4.4529                 1.6599
 Frc consts  --      3.7393                 7.0386                 2.6537
 IR Inten    --    852.4811                21.6160               194.0121

                     76                     77                     78
                      A                      A                      A
 Frequencies --   1668.0728              3034.5940              3039.3225
 Red. masses --      5.7925                 1.0405                 1.0408
 Frc consts  --      9.4962                 5.6456                 5.6644
 IR Inten    --     47.4747                60.7927               126.7283

                     79                     80                     81
                      A                      A                      A
 Frequencies --   3060.2854              3093.7623              3100.4218
 Red. masses --      1.0337                 1.1009                 1.1016
 Frc consts  --      5.7040                 6.2082                 6.2389
 IR Inten    --     50.7226                83.9009                10.2174

                     82                     83                     84
                      A                      A                      A
 Frequencies --   3135.5928              3155.1263              3176.0016
 Red. masses --      1.1038                 1.1050                 1.0982
 Frc consts  --      6.3939                 6.4812                 6.5264
 IR Inten    --     17.7955                17.9869                11.2470

                     85                     86                     87
                      A                      A                      A
 Frequencies --   3179.9247              3184.7467              3187.9861
 Red. masses --      1.0984                 1.0855                 1.0876
 Frc consts  --      6.5438                 6.4865                 6.5125
 IR Inten    --      7.9760                16.3017                 0.3725

                     88                     89                     90
                      A                      A                      A
 Frequencies --   3199.2641              3204.0543              3217.8538
 Red. masses --      1.0910                 1.0949                 1.0984
 Frc consts  --      6.5794                 6.6225                 6.7013
 IR Inten    --      9.4422                53.1762                23.3419

                     91                     92                     93
                      A                      A                      A
 Frequencies --   3232.1906              3456.7530              3599.0248
 Red. masses --      1.0919                 1.0584                 1.0906
 Frc consts  --      6.7211                 7.4511                 8.3234
 IR Inten    --      3.0494               101.0184                95.6008

 - Thermochemistry -
 -------------------
 Temperature   298.150 Kelvin.  Pressure   1.00000 Atm.
 Atom     1 has atomic number  6 and mass  12.00000

 Molecular mass:   240.10294 amu.
 Principal axes and moments of inertia in atomic units:
                           1         2         3
     Eigenvalues --  3261.490314580.998285993.19770
           X            0.99970  -0.01020  -0.02211
           Y            0.00953   0.99951  -0.02997
           Z            0.02241   0.02975   0.99931
 This molecule is an asymmetric top.
 Rotational symmetry number  1.
 Warning -- assumption of classical behavior for rotation
           may cause significant error
 Rotational temperatures (Kelvin)      0.02656     0.01891     0.01445
 Rotational constants (GHZ):           0.55335     0.39396     0.30113
    1 imaginary frequencies ignored.
 Zero-point vibrational energy     725146.2 (Joules/Mol)
                                  173.31410 (Kcal/Mol)
 Warning -- explicit consideration of  24 degrees of freedom as
           vibrations may cause significant error
 Vibrational temperatures:     56.26    84.15    87.17   110.08   115.41
          (Kelvin)            138.23   158.22   184.18   223.53   243.06
                              249.52   279.52   350.52   351.94   385.25
                              434.83   469.43   501.13   586.12   610.28
                              645.28   714.21   765.50   841.09   901.36
                              920.08  1018.75  1035.09  1043.58  1098.97
                             1144.36  1169.44  1250.67  1346.24  1368.63
                             1409.84  1445.64  1462.27  1467.35  1474.83
                             1509.96  1536.48  1566.63  1569.96  1582.13
                             1609.73  1628.37  1683.80  1697.53  1699.40
                             1723.80  1748.83  1826.68  1870.89  1889.58
                             1931.13  1943.50  1965.30  2062.25  2071.28
                             2082.12  2108.53  2121.44  2135.05  2143.63
                             2148.23  2155.07  2158.69  2169.46  2213.66
                             2216.58  2328.12  2356.63  2370.01  2399.98
                             4366.10  4372.91  4403.07  4451.23  4460.82
                             4511.42  4539.52  4569.56  4575.20  4582.14
                             4586.80  4603.03  4609.92  4629.77  4650.40
                             4973.50  5178.19

 Zero-point correction=                           0.276194 (Hartree/Particle)
 Thermal correction to Energy=                    0.293284
 Thermal correction to Enthalpy=                  0.294229
 Thermal correction to Gibbs Free Energy=         0.230455
 Sum of electronic and zero-point Energies=          -1112.173369
 Sum of electronic and thermal Energies=             -1112.156278
 Sum of electronic and thermal Enthalpies=           -1112.155334
 Sum of electronic and thermal Free Energies=        -1112.219107

                     E (Thermal)             CV                S
                      KCal/Mol        Cal/Mol-Kelvin    Cal/Mol-Kelvin
 Total                  184.039             61.715            134.222
 Electronic               0.000              0.000              0.000
 Translational            0.889              2.981             42.329
 Rotational               0.889              2.981             32.860
 Vibrational            182.261             55.754             59.034
 Vibration     1          0.594              1.981              5.304
 Vibration     2          0.596              1.974              4.507
 Vibration     3          0.597              1.973              4.438
 Vibration     4          0.599              1.965              3.979
 Vibration     5          0.600              1.963              3.886
 Vibration     6          0.603              1.952              3.532
 Vibration     7          0.606              1.941              3.269
 Vibration     8          0.611              1.925              2.976
 Vibration     9          0.620              1.897              2.606
 Vibration    10          0.625              1.881              2.447
 Vibration    11          0.627              1.875              2.398
 Vibration    12          0.635              1.848              2.187
 Vibration    13          0.659              1.773              1.776
 Vibration    14          0.660              1.772              1.769
 Vibration    15          0.673              1.732              1.611
 Vibration    16          0.694              1.669              1.405
 Vibration    17          0.710              1.623              1.278
 Vibration    18          0.726              1.579              1.174
 Vibration    19          0.772              1.454              0.936
 Vibration    20          0.786              1.418              0.878
 Vibration    21          0.808              1.364              0.800
 Vibration    22          0.852              1.258              0.667
 Vibration    23          0.887              1.179              0.583
 Vibration    24          0.942              1.065              0.477

 Optimization completed.
    -- Stationary point found.
 Normal termination of Gaussian 16 at Tue Mar  2 12:17:41 2021.
