 Gaussian 16, Revision A.03,
 Gaussian 16:  ES64L-G16RevA.03 25-Dec-2016

 ----------------------------------------------------------------------
 # wB97XD def2tzvp, opt=(ts, noeigen, calcfc, maxcycles=70, maxstep=3),
  freq=noraman, scrf=(iefpcm, solvent=water)
 ----------------------------------------------------------------------

 -----------------------
 0_iteration/TS-37-0.out
 -----------------------
 Symbolic Z-matrix:
 Charge =  0 Multiplicity = 1

 SCF Done:  E(RwB97XD) =  -1304.18730851     A.U. after   15 cycles
 Optimization completed.
    -- Stationary point found.
 Normal termination of Gaussian 16 at Sun Apr 11 10:00:36 2021.

 ---------------------------------------------------------------------
 #N Geom=AllCheck Guess=TCheck SCRF=Check GenChk RwB97XD/def2TZVP Freq
 ---------------------------------------------------------------------

 Structure from the checkpoint file:  "/beegfs/scratch/user/q/tla25/Gau-331071.chk"
 -----------------------
 0_iteration/TS-37-0.out
 -----------------------
 Charge =  0 Multiplicity = 1

                         Standard orientation:
 ---------------------------------------------------------------------
 Center     Atomic      Atomic             Coordinates (Angstroms)
 Number     Number       Type             X           Y           Z
 ---------------------------------------------------------------------
      1          6           0        0.970011   -0.770288   -0.345804
      2          6           0        2.328710   -0.380684   -0.084204
      3          8           0        2.596007    0.559517    0.696796
      4          6           0       -0.116691   -0.067492    0.233296
      5          6           0        0.557913   -1.443790    2.599896
      6          1           0       -0.335985   -2.032193    2.789596
      7          1           0        1.169615   -1.955688    1.858296
      8          1           0        1.129913   -1.347388    3.522196
      9          7           0        0.205509   -0.127091    2.073196
     10          1           0       -0.469693    0.349607    2.658396
     11          1           0        1.052307    0.442412    2.009196
     12          6           0       -1.503890   -0.623796   -0.010604
     13          6           0       -2.365688   -1.064899    0.982296
     14          6           0       -3.646587   -1.505013    0.666796
     15          6           0       -4.085087   -1.503615   -0.644904
     16          6           0       -3.233488   -1.051102   -1.645504
     17          6           0       -1.960790   -0.613798   -1.329804
     18          1           0       -2.067488   -1.073198    2.019696
     19          1           0       -4.299386   -1.847315    1.459696
     20          1           0       -5.082386   -1.846318   -0.889104
     21          1           0       -3.563688   -1.036813   -2.676504
     22          1           0       -1.304491   -0.257396   -2.113804
     23          6           0       -0.166396    1.448108    0.056896
     24          6           0        0.524992    2.062610   -0.980904
     25          6           0        0.410988    3.426210   -1.202304
     26          6           0       -0.406315    4.201507   -0.393604
     27          6           0       -1.121713    3.595705    0.628396
     28          6           0       -1.009809    2.231005    0.842096
     29          1           0        1.153794    1.461512   -1.623004
     30          1           0        0.962786    3.882811   -2.014404
     31          1           0       -0.495818    5.266507   -0.566304
     32          1           0       -1.780115    4.183003    1.255796
     33          1           0       -1.616207    1.779703    1.617596
     34         17           0        0.716016   -2.410789   -0.963904
     35          7           0        3.339112   -1.061081   -0.681404
     36          6           0        4.723911   -0.794677   -0.378404
     37          1           0        3.112514   -1.827282   -1.287504
     38          1           0        5.341113   -1.491775   -0.941404
     39          1           0        5.006608    0.222424   -0.656804
     40          1           0        4.933511   -0.924076    0.685996
 ---------------------------------------------------------------------

 SCF Done:  E(RwB97XD) =  -1304.18730851     A.U. after    1 cycles

 The electronic state is 1-A.
 Alpha  occ. eigenvalues -- -101.68490 -19.19951 -14.48788 -14.44209 -10.37418
 Alpha  occ. eigenvalues --  -10.36687 -10.31684 -10.31155 -10.30761 -10.30557
 Alpha  occ. eigenvalues --  -10.29807 -10.29601 -10.29424 -10.29305 -10.29300
 Alpha  occ. eigenvalues --  -10.29231 -10.29183 -10.29112 -10.29083 -10.29022
 Alpha  occ. eigenvalues --  -10.28949  -9.57014  -7.31625  -7.30828  -7.30788
 Alpha  occ. eigenvalues --   -1.12488  -1.04571  -1.01072  -0.98390  -0.96638
 Alpha  occ. eigenvalues --   -0.95069  -0.90018  -0.85647  -0.85352  -0.85235
 Alpha  occ. eigenvalues --   -0.82217  -0.80159  -0.78831  -0.73544  -0.71233
 Alpha  occ. eigenvalues --   -0.70337  -0.70080  -0.67600  -0.65915  -0.63770
 Alpha  occ. eigenvalues --   -0.62493  -0.60592  -0.58364  -0.57377  -0.56184
 Alpha  occ. eigenvalues --   -0.55891  -0.54597  -0.54341  -0.53824  -0.53532
 Alpha  occ. eigenvalues --   -0.52457  -0.51229  -0.51119  -0.51049  -0.50604
 Alpha  occ. eigenvalues --   -0.48632  -0.48022  -0.47307  -0.46634  -0.46477
 Alpha  occ. eigenvalues --   -0.46248  -0.45177  -0.43899  -0.43098  -0.42454
 Alpha  occ. eigenvalues --   -0.42167  -0.41295  -0.39810  -0.35220  -0.34405
 Alpha  occ. eigenvalues --   -0.34043  -0.33592  -0.32890  -0.31912  -0.26043
 Alpha virt. eigenvalues --    0.02786   0.04340   0.05123   0.05967   0.07911
 Alpha virt. eigenvalues --    0.10527   0.11804   0.12465   0.13508   0.13844
 Alpha virt. eigenvalues --    0.14988   0.15270   0.15481   0.15815   0.16415

 Mulliken charges:
               1
     1  C   -0.387824
     2  C    0.357970
     3  O   -0.591297
     4  C    0.517279
     5  C   -0.284804
     6  H    0.147465
     7  H    0.155948
     8  H    0.158538
     9  N   -0.316325
    10  H    0.276920
    11  H    0.285934
    12  C    0.142091
    13  C   -0.244602
    14  C   -0.167669
    15  C   -0.145393
    16  C   -0.123457
    17  C   -0.290635
    18  H    0.145200
    19  H    0.143052
    20  H    0.144481
    21  H    0.142976
    22  H    0.157562
    23  C    0.118996
    24  C   -0.244718
    25  C   -0.146671
    26  C   -0.136795
    27  C   -0.175670
    28  C   -0.256753
    29  H    0.163236
    30  H    0.141362
    31  H    0.144084
    32  H    0.142396
    33  H    0.156493
    34  Cl  -0.189657
    35  N   -0.324754
    36  C   -0.246448
    37  H    0.245219
    38  H    0.139174
    39  H    0.124307
    40  H    0.122790
 Sum of Mulliken charges =  -0.00000

 Dipole moment (field-independent basis, Debye):
    X=             -2.6566    Y=             -0.4423    Z=              3.6111  Tot=              4.5048
 Quadrupole moment (field-independent basis, Debye-Ang):
   XX=           -122.7470   YY=           -129.4734   ZZ=           -112.4116
   XY=             -6.2127   XZ=             -8.9131   YZ=             -4.6043

  Exact polarizability: 339.463   9.039 311.297 -29.015   0.870 302.136
 Approx polarizability: 262.346   7.641 250.856 -23.413   3.140 264.135

 ******    1 imaginary frequencies (negative Signs) ******

                      1                      2                      3
                      A                      A                      A
 Frequencies --   -361.6590                38.8419                49.7901
 Red. masses --      5.2619                 3.5638                 2.9698
 Frc consts  --      0.4055                 0.0032                 0.0043
 IR Inten    --    529.6686                 2.4598                10.1189

                      4                      5                      6
                      A                      A                      A
 Frequencies --     53.0829                60.7355                68.7362
 Red. masses --      3.7481                 4.6977                 6.3101
 Frc consts  --      0.0062                 0.0102                 0.0176
 IR Inten    --      0.0656                 1.0019                 6.0853

                      7                      8                      9
                      A                      A                      A
 Frequencies --     74.4522                88.3020               127.2048
 Red. masses --      2.2020                 4.6500                 1.8780
 Frc consts  --      0.0072                 0.0214                 0.0179
 IR Inten    --      2.3951                 3.3887                 2.4459

                     10                     11                     12
                      A                      A                      A
 Frequencies --    135.7939               141.9462               155.5094
 Red. masses --      1.5269                 2.2539                 5.2029
 Frc consts  --      0.0166                 0.0268                 0.0741
 IR Inten    --      1.6316                 5.9796                38.1621

                     13                     14                     15
                      A                      A                      A
 Frequencies --    161.3171               181.6868               238.8487
 Red. masses --      2.6639                 2.9513                 6.6788
 Frc consts  --      0.0408                 0.0574                 0.2245
 IR Inten    --     10.1477                 7.8358                 1.1349

                     16                     17                     18
                      A                      A                      A
 Frequencies --    256.0240               262.3734               265.4721
 Red. masses --      2.9194                 4.6139                 5.2598
 Frc consts  --      0.1127                 0.1871                 0.2184
 IR Inten    --     32.4746                 0.9164                 1.1719

                     19                     20                     21
                      A                      A                      A
 Frequencies --    283.6026               309.4815               322.5905
 Red. masses --      5.0987                 3.7075                 4.2252
 Frc consts  --      0.2416                 0.2092                 0.2591
 IR Inten    --      7.1609                13.5511                 4.1310

                     22                     23                     24
                      A                      A                      A
 Frequencies --    340.1258               359.0063               409.2887
 Red. masses --      3.4306                 2.1595                 2.0717
 Frc consts  --      0.2338                 0.1640                 0.2045
 IR Inten    --     14.8009               106.3249                40.9767

                     25                     26                     27
                      A                      A                      A
 Frequencies --    422.3458               424.9368               459.2470
 Red. masses --      2.8999                 2.9425                 9.3470
 Frc consts  --      0.3048                 0.3131                 1.1615
 IR Inten    --      0.6995                 0.0998                 4.6782

                     28                     29                     30
                      A                      A                      A
 Frequencies --    495.6060               533.3473               606.2897
 Red. masses --      3.8043                 3.6477                 3.5836
 Frc consts  --      0.5506                 0.6114                 0.7761
 IR Inten    --     10.4580                 3.6179               134.7360

                     31                     32                     33
                      A                      A                      A
 Frequencies --    634.0853               638.2563               651.4188
 Red. masses --      6.1153                 6.3597                 5.1591
 Frc consts  --      1.4487                 1.5264                 1.2899
 IR Inten    --      6.6311                 0.8204                34.2257

                     34                     35                     36
                      A                      A                      A
 Frequencies --    660.7108               721.3384               725.8984
 Red. masses --      5.8675                 1.8175                 1.7622
 Frc consts  --      1.5091                 0.5572                 0.5471
 IR Inten    --    124.8523                67.6600                71.8627

                     37                     38                     39
                      A                      A                      A
 Frequencies --    728.7620               756.7505               779.4388
 Red. masses --      1.5561                 3.5754                 2.4164
 Frc consts  --      0.4869                 1.2064                 0.8649
 IR Inten    --    134.0989                28.4473                51.6464

                     40                     41                     42
                      A                      A                      A
 Frequencies --    788.1311               799.9355               864.4633
 Red. masses --      4.5875                 2.5151                 3.3053
 Frc consts  --      1.6789                 0.9482                 1.4553
 IR Inten    --     30.0887                60.1423                24.1026

                     43                     44                     45
                      A                      A                      A
 Frequencies --    873.3638               878.4921               916.8382
 Red. masses --      1.2519                 1.2769                 3.5985
 Frc consts  --      0.5626                 0.5806                 1.7822
 IR Inten    --      0.5624                 1.8426                 3.0647

                     46                     47                     48
                      A                      A                      A
 Frequencies --    954.8690               964.1714              1009.4289
 Red. masses --      1.5286                 1.4649                 1.3399
 Frc consts  --      0.8212                 0.8024                 0.8044
 IR Inten    --      0.3987                 7.5508                15.1510

                     49                     50                     51
                      A                      A                      A
 Frequencies --   1012.8125              1022.0622              1025.2353
 Red. masses --      1.3673                 1.5281                 4.4008
 Frc consts  --      0.8263                 0.9405                 2.7254
 IR Inten    --      7.8427                18.0006                 1.6224

                     52                     53                     54
                      A                      A                      A
 Frequencies --   1027.0023              1029.4011              1030.5937
 Red. masses --      5.0644                 1.6328                 1.4426
 Frc consts  --      3.1472                 1.0194                 0.9027
 IR Inten    --      0.2595                 8.2681                 5.9338

                     55                     56                     57
                      A                      A                      A
 Frequencies --   1034.0384              1065.7272              1069.5445
 Red. masses --      1.7857                 2.4338                 2.1524
 Frc consts  --      1.1249                 1.6287                 1.4507
 IR Inten    --     36.5877                 7.2912                31.8968

                     58                     59                     60
                      A                      A                      A
 Frequencies --   1077.0281              1119.8979              1121.2820
 Red. masses --      3.7764                 1.7318                 1.2898
 Frc consts  --      2.5810                 1.2797                 0.9554
 IR Inten    --     24.5984                15.0984                66.5698

                     61                     62                     63
                      A                      A                      A
 Frequencies --   1124.6077              1145.5639              1157.6115
 Red. masses --      1.6625                 2.8142                 1.2966
 Frc consts  --      1.2389                 2.1759                 1.0237
 IR Inten    --      5.2338                30.1722                 1.0325

                     64                     65                     66
                      A                      A                      A
 Frequencies --   1182.2916              1184.6696              1186.0035
 Red. masses --      1.6847                 1.1338                 1.1631
 Frc consts  --      1.3875                 0.9375                 0.9639
 IR Inten    --     30.4341                 0.3849                 2.9869

                     67                     68                     69
                      A                      A                      A
 Frequencies --   1200.0885              1216.1816              1225.4369
 Red. masses --      3.2035                 1.1613                 1.1541
 Frc consts  --      2.7183                 1.0121                 1.0211
 IR Inten    --     25.1082                 4.4998                 2.7619

                     70                     71                     72
                      A                      A                      A
 Frequencies --   1250.8479              1267.6836              1312.4353
 Red. masses --      2.4765                 1.7150                 2.6276
 Frc consts  --      2.2830                 1.6238                 2.6666
 IR Inten    --     38.8970                75.2314               165.8464

                     73                     74                     75
                      A                      A                      A
 Frequencies --   1321.5034              1326.1065              1357.9659
 Red. masses --      4.4273                 3.9037                 1.6103
 Frc consts  --      4.5554                 4.0447                 1.7496
 IR Inten    --     13.6292               160.7349                66.9777

                     76                     77                     78
                      A                      A                      A
 Frequencies --   1370.5554              1378.6066              1395.1913
 Red. masses --      1.4808                 1.4334                 2.4000
 Frc consts  --      1.6388                 1.6051                 2.7525
 IR Inten    --     42.0473                92.4745               360.5008

                     79                     80                     81
                      A                      A                      A
 Frequencies --   1454.9174              1456.6241              1476.2915
 Red. masses --      1.2004                 1.2762                 1.0405
 Frc consts  --      1.4971                 1.5953                 1.3361
 IR Inten    --     11.2819                41.3716                12.0189

                     82                     83                     84
                      A                      A                      A
 Frequencies --   1488.3704              1491.3816              1493.4732
 Red. masses --      2.2077                 1.0624                 2.1652
 Frc consts  --      2.8815                 1.3922                 2.8453
 IR Inten    --      7.4079                14.8218                68.4913

                     85                     86                     87
                      A                      A                      A
 Frequencies --   1504.2128              1509.4996              1541.3469
 Red. masses --      1.0485                 1.0767                 2.2153
 Frc consts  --      1.3978                 1.4455                 3.1009
 IR Inten    --      6.0967                13.1877                25.8418

                     88                     89                     90
                      A                      A                      A
 Frequencies --   1547.3043              1557.0323              1595.4555
 Red. masses --      2.2858                 2.1796                 3.0278
 Frc consts  --      3.2243                 3.1133                 4.5410
 IR Inten    --     11.4192               882.4854               467.6503

                     91                     92                     93
                      A                      A                      A
 Frequencies --   1646.3998              1652.8587              1656.4305
 Red. masses --      1.4656                 5.5120                 4.1986
 Frc consts  --      2.3406                 8.8722                 6.7874
 IR Inten    --     14.7149                 1.0262                 4.0521

                     94                     95                     96
                      A                      A                      A
 Frequencies --   1672.7068              1678.1964              3045.7045
 Red. masses --      5.9123                 5.8159                 1.0361
 Frc consts  --      9.7464                 9.6505                 5.6630
 IR Inten    --      7.4758                 2.1378                88.9846

                     97                     98                     99
                      A                      A                      A
 Frequencies --   3076.8727              3100.2940              3152.4577
 Red. masses --      1.0342                 1.1043                 1.1037
 Frc consts  --      5.7688                 6.2537                 6.4626
 IR Inten    --     43.8020                48.9356                 7.9815

                    100                    101                    102
                      A                      A                      A
 Frequencies --   3156.9710              3179.8103              3194.2455
 Red. masses --      1.1008                 1.1047                 1.0857
 Frc consts  --      6.4641                 6.5813                 6.5270
 IR Inten    --     26.2247                18.1815                 3.2624

                    103                    104                    105
                      A                      A                      A
 Frequencies --   3196.6521              3200.5843              3204.1194
 Red. masses --      1.0861                 1.0885                 1.0891
 Frc consts  --      6.5388                 6.5697                 6.5875
 IR Inten    --      1.2342                 3.7748                 4.2918

                    106                    107                    108
                      A                      A                      A
 Frequencies --   3209.7913              3212.8129              3219.9700
 Red. masses --      1.0926                 1.0938                 1.0958
 Frc consts  --      6.6323                 6.6522                 6.6940
 IR Inten    --     27.3066                24.5202                24.2674

                    109                    110                    111
                      A                      A                      A
 Frequencies --   3222.8032              3226.9335              3248.4074
 Red. masses --      1.0980                 1.0960                 1.0916
 Frc consts  --      6.7192                 6.7241                 6.7864
 IR Inten    --     22.8982                11.5537                14.5905

                    112                    113                    114
                      A                      A                      A
 Frequencies --   3406.7564              3584.3828              3688.8918
 Red. masses --      1.0646                 1.0835                 1.0777
 Frc consts  --      7.2797                 8.2021                 8.6409
 IR Inten    --    130.3346                60.9489                82.1274

 - Thermochemistry -
 -------------------
 Temperature   298.150 Kelvin.  Pressure   1.00000 Atm.
 Atom     1 has atomic number  6 and mass  12.00000

 Molecular mass:   302.11859 amu.
 Principal axes and moments of inertia in atomic units:
                           1         2         3
     Eigenvalues --  5255.781296553.064979097.88428
           X            0.99997  -0.00606  -0.00376
           Y            0.00597   0.99972  -0.02276
           Z            0.00390   0.02274   0.99973
 This molecule is an asymmetric top.
 Rotational symmetry number  1.
 Warning -- assumption of classical behavior for rotation
           may cause significant error
 Rotational temperatures (Kelvin)      0.01648     0.01322     0.00952
 Rotational constants (GHZ):           0.34338     0.27540     0.19837
    1 imaginary frequencies ignored.
 Zero-point vibrational energy     866462.9 (Joules/Mol)
                                  207.08959 (Kcal/Mol)
 Warning -- explicit consideration of  29 degrees of freedom as
           vibrations may cause significant error
 Vibrational temperatures:     55.88    71.64    76.37    87.38    98.90
          (Kelvin)            107.12   127.05   183.02   195.38   204.23
                              223.74   232.10   261.41   343.65   368.36
                              377.50   381.96   408.04   445.27   464.14
                              489.37   516.53   588.88   607.66   611.39
                              660.75   713.07   767.37   872.32   912.31
                              918.31   937.25   950.62  1037.85  1044.41
                             1048.53  1088.80  1121.44  1133.94  1150.93
                             1243.77  1256.58  1263.95  1319.13  1373.84
                             1387.23  1452.34  1457.21  1470.52  1475.08
                             1477.63  1481.08  1482.79  1487.75  1533.34
                             1538.84  1549.60  1611.28  1613.27  1618.06
                             1648.21  1665.54  1701.05  1704.48  1706.39
                             1726.66  1749.81  1763.13  1799.69  1823.91
                             1888.30  1901.35  1907.97  1953.81  1971.92
                             1983.51  2007.37  2093.30  2095.76  2124.05
                             2141.43  2145.77  2148.77  2164.23  2171.83
                             2217.65  2226.23  2240.22  2295.50  2368.80
                             2378.10  2383.23  2406.65  2414.55  4382.09
                             4426.93  4460.63  4535.68  4542.18  4575.04
                             4595.81  4599.27  4604.93  4610.01  4618.17
                             4622.52  4632.82  4636.89  4642.84  4673.73
                             4901.56  5157.13  5307.49

 Zero-point correction=                           0.330018 (Hartree/Particle)
 Thermal correction to Energy=                    0.350208
 Thermal correction to Enthalpy=                  0.351152
 Thermal correction to Gibbs Free Energy=         0.280514
 Sum of electronic and zero-point Energies=          -1303.857290
 Sum of electronic and thermal Energies=             -1303.837100
 Sum of electronic and thermal Enthalpies=           -1303.836156
 Sum of electronic and thermal Free Energies=        -1303.906794

                     E (Thermal)             CV                S
                      KCal/Mol        Cal/Mol-Kelvin    Cal/Mol-Kelvin
 Total                  219.759             75.701            148.670
 Electronic               0.000              0.000              0.000
 Translational            0.889              2.981             43.014
 Rotational               0.889              2.981             34.104
 Vibrational            217.981             69.740             71.553
 Vibration     1          0.594              1.981              5.317
 Vibration     2          0.595              1.978              4.826
 Vibration     3          0.596              1.976              4.699
 Vibration     4          0.597              1.973              4.433
 Vibration     5          0.598              1.969              4.189
 Vibration     6          0.599              1.966              4.032
 Vibration     7          0.601              1.957              3.697
 Vibration     8          0.611              1.926              2.988
 Vibration     9          0.614              1.918              2.862
 Vibration    10          0.615              1.911              2.777
 Vibration    11          0.620              1.897              2.604
 Vibration    12          0.622              1.890              2.534
 Vibration    13          0.630              1.865              2.311
 Vibration    14          0.657              1.781              1.811
 Vibration    15          0.666              1.753              1.689
 Vibration    16          0.670              1.742              1.646
 Vibration    17          0.671              1.736              1.626
 Vibration    18          0.682              1.704              1.512
 Vibration    19          0.699              1.656              1.365
 Vibration    20          0.708              1.630              1.297
 Vibration    21          0.720              1.595              1.212
 Vibration    22          0.734              1.557              1.126
 Vibration    23          0.774              1.450              0.929
 Vibration    24          0.785              1.422              0.884
 Vibration    25          0.787              1.416              0.875
 Vibration    26          0.817              1.340              0.768
 Vibration    27          0.851              1.260              0.669
 Vibration    28          0.888              1.176              0.580
 Vibration    29          0.965              1.018              0.439

 Optimization completed.
    -- Stationary point found.
 Normal termination of Gaussian 16 at Sun Apr 11 11:19:01 2021.
