 Gaussian 16, Revision C.01,
 Gaussian 16:  ES64L-G16RevC.01  3-Jul-2019

 ----------------------------------------------------------------------
 # wb97xd def2tzvp opt=(ts, noeigen, calcfc, maxcycles=100, maxstep=10)
  freq=noraman scrf=(iefpcm, solvent=water)
 ----------------------------------------------------------------------

 --------
 TS-3.out
 --------
 Symbolic Z-matrix:
 Charge =  0 Multiplicity = 1

 SCF Done:  E(RwB97XD) =  -1036.32785304     A.U. after   14 cycles
 SCF Done:  E(RwB97XD) =  -1036.32830172     A.U. after   13 cycles
 SCF Done:  E(RwB97XD) =  -1036.32832301     A.U. after   12 cycles
 SCF Done:  E(RwB97XD) =  -1036.32832358     A.U. after   12 cycles
 SCF Done:  E(RwB97XD) =  -1036.32833051     A.U. after   10 cycles
 SCF Done:  E(RwB97XD) =  -1036.32833056     A.U. after    8 cycles
 SCF Done:  E(RwB97XD) =  -1036.32833052     A.U. after    7 cycles
 SCF Done:  E(RwB97XD) =  -1036.32833059     A.U. after    7 cycles
 Optimization completed.
    -- Stationary point found.
 Normal termination of Gaussian 16 at Wed Jun  1 13:54:05 2022.

 ---------------------------------------------------------------------
 #N Geom=AllCheck Guess=TCheck SCRF=Check GenChk RwB97XD/def2TZVP Freq
 ---------------------------------------------------------------------

 Structure from the checkpoint file:  "/local/jobs/107270/Gau-1941793.chk"
 --------
 TS-3.out
 --------
 Charge =  0 Multiplicity = 1

                         Standard orientation:
 ---------------------------------------------------------------------
 Center     Atomic      Atomic             Coordinates (Angstroms)
 Number     Number       Type             X           Y           Z
 ---------------------------------------------------------------------
      1          6           0       -0.312938   -1.094434    0.128884
      2          6           0        0.174951   -2.419928    0.356306
      3          8           0        1.228528   -2.672236    0.987084
      4          6           0        0.575452   -0.003023    0.405314
      5          6           0       -0.035835   -0.520441    3.151414
      6          1           0        0.315068   -1.166389    3.956098
      7          1           0       -0.439259    0.394644    3.576292
      8          1           0       -0.816249   -1.048120    2.597971
      9          7           0        1.046196   -0.217871    2.225632
     10          1           0        1.639511    0.525705    2.567114
     11          1           0        1.585697   -1.068259    2.053666
     12          6           0       -0.022819    1.385394    0.342071
     13          6           0       -1.152002    1.705946    1.096123
     14          6           0       -1.730604    2.960336    1.022592
     15          6           0       -1.202245    3.925091    0.175204
     16          6           0       -0.090788    3.617514   -0.591055
     17          6           0        0.495961    2.362319   -0.502963
     18          1           0       -1.605385    0.958120    1.728871
     19          1           0       -2.604491    3.181976    1.622115
     20          1           0       -1.657826    4.905063    0.110674
     21          1           0        0.327461    4.354780   -1.264667
     22          1           0        1.357943    2.144652   -1.117616
     23          6           0        1.981004   -0.060504   -0.176296
     24          6           0        3.042331    0.680728    0.341329
     25          6           0        4.290111    0.665246   -0.261301
     26          6           0        4.500172   -0.079998   -1.412090
     27          6           0        3.446152   -0.797850   -1.955632
     28          6           0        2.201646   -0.782746   -1.344570
     29          1           0        2.904487    1.312491    1.209176
     30          1           0        5.096979    1.247005    0.166078
     31          1           0        5.473440   -0.091133   -1.886039
     32          1           0        3.589431   -1.372187   -2.862360
     33          1           0        1.381021   -1.338808   -1.778042
     34          6           0       -1.688226   -0.880567   -0.386767
     35          6           0       -2.814484   -1.374375    0.279343
     36          6           0       -4.095524   -1.174929   -0.213227
     37          6           0       -4.289268   -0.458990   -1.386287
     38          6           0       -3.185994    0.038567   -2.066115
     39          6           0       -1.907424   -0.182074   -1.578174
     40          1           0       -2.681293   -1.913690    1.210518
     41          1           0       -4.946649   -1.566932    0.330345
     42          1           0       -5.288902   -0.292439   -1.767477
     43          1           0       -3.320987    0.592523   -2.987291
     44          1           0       -1.053546    0.201491   -2.123783
     45          7           0       -0.526681   -3.485819   -0.160639
     46          1           0       -1.462846   -3.344973   -0.496425
     47          1           0       -0.336207   -4.379505    0.258565
 ---------------------------------------------------------------------

 SCF Done:  E(RwB97XD) =  -1036.32833059     A.U. after    1 cycles

 The electronic state is 1-A.
 Alpha  occ. eigenvalues --  -19.19353 -14.47903 -14.42819 -10.36666 -10.35890
 Alpha  occ. eigenvalues --  -10.31254 -10.30521 -10.30273 -10.29471 -10.29310
 Alpha  occ. eigenvalues --  -10.29160 -10.29130 -10.29126 -10.29092 -10.29044
 Alpha  occ. eigenvalues --  -10.29039 -10.29028 -10.28969 -10.28798 -10.28565
 Alpha  occ. eigenvalues --  -10.28493 -10.28341 -10.28148 -10.28013 -10.25100
 Alpha  occ. eigenvalues --   -1.11464  -1.03746  -0.98446  -0.97799  -0.96479
 Alpha  occ. eigenvalues --   -0.95837  -0.91173  -0.86594  -0.85405  -0.85210
 Alpha  occ. eigenvalues --   -0.84896  -0.84421  -0.81290  -0.78693  -0.75091
 Alpha  occ. eigenvalues --   -0.71190  -0.70743  -0.70054  -0.69490  -0.68939
 Alpha  occ. eigenvalues --   -0.67560  -0.64786  -0.62849  -0.62160  -0.60986
 Alpha  occ. eigenvalues --   -0.60638  -0.58431  -0.57013  -0.56201  -0.55764
 Alpha  occ. eigenvalues --   -0.54951  -0.54476  -0.53870  -0.53551  -0.52737
 Alpha  occ. eigenvalues --   -0.52004  -0.51345  -0.50808  -0.50370  -0.50141
 Alpha  occ. eigenvalues --   -0.49609  -0.48534  -0.47618  -0.47450  -0.47269
 Alpha  occ. eigenvalues --   -0.46287  -0.45655  -0.44715  -0.43752  -0.43201
 Alpha  occ. eigenvalues --   -0.42308  -0.42106  -0.41525  -0.41131  -0.35276
 Alpha  occ. eigenvalues --   -0.35016  -0.34454  -0.33794  -0.33301  -0.33003
 Alpha  occ. eigenvalues --   -0.32633  -0.31871  -0.25485
 Alpha virt. eigenvalues --    0.01918   0.04123   0.04634   0.05615   0.05885
 Alpha virt. eigenvalues --    0.06508   0.09585   0.10872   0.12026   0.13290
 Alpha virt. eigenvalues --    0.13354   0.14049   0.14525   0.15096   0.15890

 Mulliken charges:
               1
     1  C   -0.402434
     2  C    0.331431
     3  O   -0.592229
     4  C    0.540340
     5  C   -0.332097
     6  H    0.158725
     7  H    0.165309
     8  H    0.148338
     9  N   -0.274677
    10  H    0.265817
    11  H    0.279956
    12  C    0.029245
    13  C   -0.282024
    14  C   -0.169243
    15  C   -0.138239
    16  C   -0.151654
    17  C   -0.221286
    18  H    0.182457
    19  H    0.139758
    20  H    0.143154
    21  H    0.140583
    22  H    0.164064
    23  C    0.109056
    24  C   -0.309537
    25  C   -0.138084
    26  C   -0.138521
    27  C   -0.164685
    28  C   -0.173540
    29  H    0.143691
    30  H    0.142024
    31  H    0.143448
    32  H    0.140178
    33  H    0.160111
    34  C    0.197305
    35  C   -0.336604
    36  C   -0.125793
    37  C   -0.146474
    38  C   -0.164357
    39  C   -0.234104
    40  H    0.156452
    41  H    0.136632
    42  H    0.139156
    43  H    0.134401
    44  H    0.149884
    45  N   -0.468803
    46  H    0.266723
    47  H    0.256150
 Sum of Mulliken charges =  -0.00000

 Dipole moment (field-independent basis, Debye):
    X=             -0.8933    Y=              3.9747    Z=              3.2415  Tot=              5.2062
 Quadrupole moment (field-independent basis, Debye-Ang):
   XX=           -135.8048   YY=           -146.4365   ZZ=           -131.0317
   XY=             11.9409   XZ=             -3.2247   YZ=              1.2787

  Exact polarizability:     432.774       1.605     377.420      -8.912      -5.532     349.405
 Approx polarizability:     337.212       2.696     300.077      -9.164      -6.679     297.896

 ******    1 imaginary frequencies (negative Signs) ******

                      1                      2                      3
                      A                      A                      A
 Frequencies --   -372.4967                31.9632                38.8113
 Red. masses --      5.3424                 4.5474                 4.6855
 Frc consts  --      0.4368                 0.0027                 0.0042
 IR Inten    --    640.7197                 0.2817                 0.5499

                      4                      5                      6
                      A                      A                      A
 Frequencies --     55.9452                65.8576                70.9263
 Red. masses --      4.0373                 4.5119                 3.7990
 Frc consts  --      0.0074                 0.0115                 0.0113
 IR Inten    --      1.1480                 0.3382                 3.0115

                      7                      8                      9
                      A                      A                      A
 Frequencies --     78.1673                89.8756               111.4610
 Red. masses --      4.3553                 3.3968                 4.5984
 Frc consts  --      0.0157                 0.0162                 0.0337
 IR Inten    --      1.5233                 4.8340                 1.1551

                     10                     11                     12
                      A                      A                      A
 Frequencies --    124.2637               143.7961               178.1984
 Red. masses --      2.9877                 6.5384                 3.7432
 Frc consts  --      0.0272                 0.0797                 0.0700
 IR Inten    --      1.4346                12.8671                 8.6947

                     13                     14                     15
                      A                      A                      A
 Frequencies --    199.9959               206.5826               230.6551
 Red. masses --      4.3609                 3.1562                 2.7703
 Frc consts  --      0.1028                 0.0794                 0.0868
 IR Inten    --      8.4891                43.7358                26.2800

                     16                     17                     18
                      A                      A                      A
 Frequencies --    267.2171               277.5619               282.4463
 Red. masses --      3.5021                 2.7696                 2.2651
 Frc consts  --      0.1473                 0.1257                 0.1065
 IR Inten    --      2.9081                 1.2191                 1.3301

                     19                     20                     21
                      A                      A                      A
 Frequencies --    285.6659               304.9421               322.8931
 Red. masses --      3.8657                 4.0973                 2.7338
 Frc consts  --      0.1859                 0.2245                 0.1679
 IR Inten    --      4.5001                 0.0852                57.3816

                     22                     23                     24
                      A                      A                      A
 Frequencies --    337.4326               397.9711               409.0055
 Red. masses --      4.5055                 1.4846                 3.8024
 Frc consts  --      0.3022                 0.1385                 0.3748
 IR Inten    --      3.0749               305.6332               133.3518

                     25                     26                     27
                      A                      A                      A
 Frequencies --    415.4814               427.9596               429.1153
 Red. masses --      2.5109                 2.9200                 2.7530
 Frc consts  --      0.2554                 0.3151                 0.2987
 IR Inten    --     21.5904                16.7100                 2.9527

                     28                     29                     30
                      A                      A                      A
 Frequencies --    433.0721               482.4322               519.8882
 Red. masses --      2.9109                 1.7528                 3.6495
 Frc consts  --      0.3217                 0.2404                 0.5812
 IR Inten    --      1.2507                 8.7216                 2.7220

                     31                     32                     33
                      A                      A                      A
 Frequencies --    521.2653               547.2087               600.6424
 Red. masses --      2.5403                 3.2289                 3.6392
 Frc consts  --      0.4067                 0.5696                 0.7735
 IR Inten    --      5.6114                11.4968                52.4250

                     34                     35                     36
                      A                      A                      A
 Frequencies --    626.2797               636.9323               639.9150
 Red. masses --      4.1226                 5.4165                 6.3370
 Frc consts  --      0.9527                 1.2947                 1.5289
 IR Inten    --     99.3383                 5.4745                 2.3047

                     37                     38                     39
                      A                      A                      A
 Frequencies --    640.9638               651.6620               663.0794
 Red. masses --      5.5529                 3.2515                 4.6219
 Frc consts  --      1.3441                 0.8135                 1.1973
 IR Inten    --     18.6058                53.4306                18.7283

                     40                     41                     42
                      A                      A                      A
 Frequencies --    698.0178               714.6032               727.9187
 Red. masses --      2.2464                 4.8807                 1.5698
 Frc consts  --      0.6449                 1.4684                 0.4901
 IR Inten    --     61.7939                 8.4334               105.9154

                     43                     44                     45
                      A                      A                      A
 Frequencies --    730.1124               731.2757               788.9279
 Red. masses --      1.5504                 1.5480                 2.3075
 Frc consts  --      0.4869                 0.4877                 0.8462
 IR Inten    --     31.3741               135.2338                68.5811

                     46                     47                     48
                      A                      A                      A
 Frequencies --    793.3100               796.8573               809.3280
 Red. masses --      2.3476                 3.4609                 3.5384
 Frc consts  --      0.8705                 1.2948                 1.3655
 IR Inten    --      7.8483                59.1996                49.9377

                     49                     50                     51
                      A                      A                      A
 Frequencies --    877.2129               878.3400               883.0086
 Red. masses --      1.2832                 1.2511                 1.2438
 Frc consts  --      0.5818                 0.5687                 0.5714
 IR Inten    --      1.0627                 2.2223                 1.1832

                     52                     53                     54
                      A                      A                      A
 Frequencies --    891.4361               926.1559               952.6043
 Red. masses --      3.6412                 3.7799                 1.4921
 Frc consts  --      1.7048                 1.9103                 0.7978
 IR Inten    --     37.2277                11.7295                 4.5979

                     55                     56                     57
                      A                      A                      A
 Frequencies --    966.9730               969.6216              1013.1278
 Red. masses --      1.5784                 1.4501                 1.3722
 Frc consts  --      0.8696                 0.8033                 0.8298
 IR Inten    --      2.2679                 1.6156                 1.7286

                     58                     59                     60
                      A                      A                      A
 Frequencies --   1015.7506              1020.8481              1023.3868
 Red. masses --      1.3864                 1.4233                 1.3920
 Frc consts  --      0.8428                 0.8739                 0.8589
 IR Inten    --      6.3038                 0.9968                 0.4601

                     61                     62                     63
                      A                      A                      A
 Frequencies --   1024.3591              1025.8014              1028.0873
 Red. masses --      4.2050                 4.6294                 4.0510
 Frc consts  --      2.5997                 2.8701                 2.5227
 IR Inten    --      2.0596                 1.8837                 1.6105

                     64                     65                     66
                      A                      A                      A
 Frequencies --   1030.5529              1033.7480              1035.2424
 Red. masses --      1.3350                 1.4169                 1.2813
 Frc consts  --      0.8354                 0.8921                 0.8091
 IR Inten    --     15.9356                25.4823                36.9749

                     67                     68                     69
                      A                      A                      A
 Frequencies --   1041.7143              1066.2743              1068.0905
 Red. masses --      4.7454                 2.3495                 2.0531
 Frc consts  --      3.0340                 1.5739                 1.3800
 IR Inten    --      6.4308                 9.4914                19.1570

                     70                     71                     72
                      A                      A                      A
 Frequencies --   1074.1256              1091.6917              1094.8110
 Red. masses --      1.9855                 4.1580                 1.6999
 Frc consts  --      1.3497                 2.9197                 1.2005
 IR Inten    --     19.2414                34.6488                54.3979

                     73                     74                     75
                      A                      A                      A
 Frequencies --   1111.2358              1119.0256              1123.9248
 Red. masses --      1.5904                 1.3245                 1.4223
 Frc consts  --      1.1571                 0.9772                 1.0586
 IR Inten    --     10.5893                27.9204                38.1697

                     76                     77                     78
                      A                      A                      A
 Frequencies --   1126.5237              1171.1510              1180.3785
 Red. masses --      1.5770                 3.2442                 1.1326
 Frc consts  --      1.1792                 2.6217                 0.9297
 IR Inten    --      8.3480                14.1512                 0.5187

                     79                     80                     81
                      A                      A                      A
 Frequencies --   1183.7500              1186.5243              1209.7661
 Red. masses --      1.1269                 1.1232                 1.1237
 Frc consts  --      0.9304                 0.9317                 0.9689
 IR Inten    --      0.0017                 0.3903                 1.1952

                     82                     83                     84
                      A                      A                      A
 Frequencies --   1211.6309              1222.9151              1235.0936
 Red. masses --      1.1579                 1.1246                 1.3512
 Frc consts  --      1.0016                 0.9910                 1.2144
 IR Inten    --     10.8692                 6.8105                80.5697

                     85                     86                     87
                      A                      A                      A
 Frequencies --   1255.7503              1293.2237              1306.7944
 Red. masses --      3.9880                 3.8572                 4.4023
 Frc consts  --      3.7052                 3.8007                 4.4294
 IR Inten    --     29.9523                20.9823                25.8858

                     88                     89                     90
                      A                      A                      A
 Frequencies --   1320.9993              1328.1580              1356.7134
 Red. masses --      4.8622                 5.0228                 1.7407
 Frc consts  --      4.9991                 5.2203                 1.8878
 IR Inten    --     30.2804                 4.4614               105.8650

                     91                     92                     93
                      A                      A                      A
 Frequencies --   1358.1868              1364.3034              1378.7391
 Red. masses --      1.4884                 1.8669                 2.1344
 Frc consts  --      1.6176                 2.0473                 2.3905
 IR Inten    --     11.6042                33.3690               160.7925

                     94                     95                     96
                      A                      A                      A
 Frequencies --   1391.9309              1393.9067              1446.5003
 Red. masses --      4.3067                 1.2767                 1.2005
 Frc consts  --      4.9162                 1.4615                 1.4799
 IR Inten    --    882.7710                27.4701                 7.7823

                     97                     98                     99
                      A                      A                      A
 Frequencies --   1487.3312              1489.4993              1494.1012
 Red. masses --      2.2600                 2.2438                 2.3079
 Frc consts  --      2.9456                 2.9330                 3.0355
 IR Inten    --     11.7134                34.5703                33.6723

                    100                    101                    102
                      A                      A                      A
 Frequencies --   1502.1304              1507.3701              1540.4124
 Red. masses --      1.0477                 1.0426                 2.3207
 Frc consts  --      1.3928                 1.3958                 3.2444
 IR Inten    --     12.3047                20.5164                65.6390

                    103                    104                    105
                      A                      A                      A
 Frequencies --   1541.0696              1547.2976              1574.4495
 Red. masses --      2.2888                 2.2091                 2.4971
 Frc consts  --      3.2025                 3.1161                 3.6470
 IR Inten    --      8.1004                16.3426               818.6879

                    106                    107                    108
                      A                      A                      A
 Frequencies --   1614.0897              1632.9667              1639.9279
 Red. masses --      1.1751                 1.6567                 5.2128
 Frc consts  --      1.8038                 2.6029                 8.2598
 IR Inten    --    305.2962               166.5302                15.6775

                    109                    110                    111
                      A                      A                      A
 Frequencies --   1650.5746              1654.1020              1668.5099
 Red. masses --      5.6847                 5.8125                 5.8412
 Frc consts  --      9.1250                 9.3700                 9.5810
 IR Inten    --      0.0775                21.1087                23.6220

                    112                    113                    114
                      A                      A                      A
 Frequencies --   1673.7734              1676.9801              3057.8160
 Red. masses --      5.9623                 5.8577                 1.0360
 Frc consts  --      9.8414                 9.7058                 5.7074
 IR Inten    --      3.0429                 0.1191                53.5460

                    115                    116                    117
                      A                      A                      A
 Frequencies --   3128.2362              3174.8825              3182.1625
 Red. masses --      1.1014                 1.1040                 1.0869
 Frc consts  --      6.3502                 6.5565                 6.4845
 IR Inten    --     10.5820                17.8681                13.9116

                    118                    119                    120
                      A                      A                      A
 Frequencies --   3187.9298              3194.3996              3196.5356
 Red. masses --      1.0869                 1.0856                 1.0862
 Frc consts  --      6.5083                 6.5269                 6.5392
 IR Inten    --      1.9565                 3.1955                 0.0737

                    121                    122                    123
                      A                      A                      A
 Frequencies --   3198.2466              3200.8329              3204.7405
 Red. masses --      1.0909                 1.0883                 1.0948
 Frc consts  --      6.5747                 6.5696                 6.6247
 IR Inten    --     12.8262                 3.8606                48.7811

                    124                    125                    126
                      A                      A                      A
 Frequencies --   3205.7507              3209.8998              3217.0961
 Red. masses --      1.0906                 1.0921                 1.0986
 Frc consts  --      6.6036                 6.6299                 6.6993
 IR Inten    --     16.7754                28.8211                23.8085

                    127                    128                    129
                      A                      A                      A
 Frequencies --   3217.9848              3218.4083              3224.0113
 Red. masses --      1.0941                 1.0954                 1.0983
 Frc consts  --      6.6752                 6.6849                 6.7260
 IR Inten    --     29.1914                27.6313                14.0503

                    130                    131                    132
                      A                      A                      A
 Frequencies --   3229.5449              3252.0758              3411.0726
 Red. masses --      1.0943                 1.0916                 1.0637
 Frc consts  --      6.7244                 6.8021                 7.2922
 IR Inten    --     11.8150                 6.2810               146.1946

                    133                    134                    135
                      A                      A                      A
 Frequencies --   3612.0058              3613.9005              3731.2181
 Red. masses --      1.0841                 1.0467                 1.1022
 Frc consts  --      8.3336                 8.0541                 9.0406
 IR Inten    --     95.1833                40.0511                71.8382

 - Thermochemistry -
 -------------------
 Temperature   298.150 Kelvin.  Pressure   1.00000 Atm.
 Atom     1 has atomic number  6 and mass  12.00000

 Molecular mass:   330.17321 amu.
 Principal axes and moments of inertia in atomic units:
                           1         2         3
     Eigenvalues --  5947.207688467.37278**********
           X            0.99994   0.01027  -0.00428
           Y           -0.01029   0.99993  -0.00507
           Z            0.00422   0.00512   0.99998
 This molecule is an asymmetric top.
 Rotational symmetry number  1.
 Warning -- assumption of classical behavior for rotation
           may cause significant error
 Rotational temperatures (Kelvin)      0.01456     0.01023     0.00818
 Rotational constants (GHZ):           0.30346     0.21314     0.17043
    1 imaginary frequencies ignored.
 Zero-point vibrational energy    1032444.9 (Joules/Mol)
                                  246.76026 (Kcal/Mol)
 Warning -- explicit consideration of  32 degrees of freedom as
           vibrations may cause significant error
 Vibrational temperatures:     45.99    55.84    80.49    94.75   102.05
          (Kelvin)            112.47   129.31   160.37   178.79   206.89
                              256.39   287.75   297.23   331.86   384.47
                              399.35   406.38   411.01   438.74   464.57
                              485.49   572.59   588.47   597.79   615.74
                              617.40   623.09   694.11   748.00   749.98
                              787.31   864.19   901.08   916.40   920.69
                              922.20   937.60   954.02  1004.29  1028.15
                             1047.31  1050.47  1052.14  1135.09  1141.40
                             1146.50  1164.44  1262.11  1263.74  1270.45
                             1282.58  1332.53  1370.59  1391.26  1395.07
                             1457.66  1461.44  1468.77  1472.43  1473.82
                             1475.90  1479.19  1482.74  1487.33  1489.48
                             1498.79  1534.13  1536.74  1545.43  1570.70
                             1575.19  1598.82  1610.03  1617.08  1620.82
                             1685.03  1698.30  1703.15  1707.14  1740.58
                             1743.27  1759.50  1777.02  1806.74  1860.66
                             1880.19  1900.62  1910.92  1952.01  1954.13
                             1962.93  1983.70  2002.68  2005.52  2081.19
                             2139.94  2143.06  2149.68  2161.23  2168.77
                             2216.31  2217.26  2226.22  2265.28  2322.32
                             2349.47  2359.49  2374.81  2379.88  2400.61
                             2408.19  2412.80  4399.52  4500.83  4567.95
                             4578.42  4586.72  4596.03  4599.10  4601.56
                             4605.28  4610.91  4612.36  4618.33  4628.68
                             4629.96  4630.57  4638.63  4646.59  4679.01
                             4907.77  5196.87  5199.60  5368.39

 Zero-point correction=                           0.393237 (Hartree/Particle)
 Thermal correction to Energy=                    0.414736
 Thermal correction to Enthalpy=                  0.415680
 Thermal correction to Gibbs Free Energy=         0.342881
 Sum of electronic and zero-point Energies=          -1035.935093
 Sum of electronic and thermal Energies=             -1035.913595
 Sum of electronic and thermal Enthalpies=           -1035.912650
 Sum of electronic and thermal Free Energies=        -1035.985450

                     E (Thermal)             CV                S
                      KCal/Mol        Cal/Mol-Kelvin    Cal/Mol-Kelvin
 Total                  260.251             85.657            153.219
 Electronic               0.000              0.000              0.000
 Translational            0.889              2.981             43.278
 Rotational               0.889              2.981             34.632
 Vibrational            258.473             79.695             75.308
 Vibration     1          0.594              1.983              5.704
 Vibration     2          0.594              1.981              5.319
 Vibration     3          0.596              1.975              4.595
 Vibration     4          0.597              1.971              4.273
 Vibration     5          0.598              1.968              4.127
 Vibration     6          0.599              1.964              3.936
 Vibration     7          0.602              1.956              3.663
 Vibration     8          0.607              1.940              3.243
 Vibration     9          0.610              1.929              3.033
 Vibration    10          0.616              1.909              2.753
 Vibration    11          0.629              1.869              2.347
 Vibration    12          0.638              1.840              2.133
 Vibration    13          0.641              1.830              2.074
 Vibration    14          0.652              1.794              1.874
 Vibration    15          0.672              1.733              1.614
 Vibration    16          0.679              1.715              1.549
 Vibration    17          0.681              1.706              1.519
 Vibration    18          0.683              1.700              1.500
 Vibration    19          0.696              1.664              1.390
 Vibration    20          0.708              1.630              1.295
 Vibration    21          0.718              1.601              1.224
 Vibration    22          0.764              1.474              0.970
 Vibration    23          0.773              1.451              0.930
 Vibration    24          0.779              1.437              0.907
 Vibration    25          0.789              1.409              0.865
 Vibration    26          0.790              1.407              0.862
 Vibration    27          0.794              1.398              0.849
 Vibration    28          0.839              1.289              0.704
 Vibration    29          0.875              1.206              0.610
 Vibration    30          0.876              1.203              0.607
 Vibration    31          0.902              1.146              0.550
 Vibration    32          0.959              1.030              0.449

 Optimization completed.
    -- Stationary point found.
 Normal termination of Gaussian 16 at Wed Jun  1 17:36:20 2022.
