 Gaussian 16, Revision A.03,
 Gaussian 16:  ES64L-G16RevA.03 25-Dec-2016

 ----------------------------------------------------------------------
 # wB97XD def2tzvp, opt=(ts, noeigen, calcfc, maxcycles=70, maxstep=8),
  freq=noraman, scrf=(iefpcm, solvent=water)
 ----------------------------------------------------------------------

 ------------------------
 0_iteration/TS-361-0.out
 ------------------------
 Symbolic Z-matrix:
 Charge =  0 Multiplicity = 1

 SCF Done:  E(RwB97XD) =  -978.446703047     A.U. after   15 cycles
 SCF Done:  E(RwB97XD) =  -978.446336894     A.U. after   12 cycles
 SCF Done:  E(RwB97XD) =  -978.446237832     A.U. after   12 cycles
 SCF Done:  E(RwB97XD) =  -978.446326180     A.U. after   12 cycles
 SCF Done:  E(RwB97XD) =  -978.446572729     A.U. after   12 cycles
 SCF Done:  E(RwB97XD) =  -978.447129625     A.U. after   13 cycles
 SCF Done:  E(RwB97XD) =  -978.447483606     A.U. after   13 cycles
 SCF Done:  E(RwB97XD) =  -978.447523429     A.U. after   13 cycles
 SCF Done:  E(RwB97XD) =  -978.447589010     A.U. after   12 cycles
 SCF Done:  E(RwB97XD) =  -978.447587465     A.U. after   11 cycles
 SCF Done:  E(RwB97XD) =  -978.447590635     A.U. after   10 cycles
 SCF Done:  E(RwB97XD) =  -978.447590762     A.U. after    7 cycles
 SCF Done:  E(RwB97XD) =  -978.447590756     A.U. after    6 cycles
 Optimization completed.
    -- Stationary point found.
 Normal termination of Gaussian 16 at Fri Feb 12 14:50:48 2021.

 ---------------------------------------------------------------------
 #N Geom=AllCheck Guess=TCheck SCRF=Check GenChk RwB97XD/def2TZVP Freq
 ---------------------------------------------------------------------

 Structure from the checkpoint file:  "/beegfs/scratch/user/q/tla25/Gau-42626.chk"
 ------------------------
 0_iteration/TS-361-0.out
 ------------------------
 Charge =  0 Multiplicity = 1

                         Standard orientation:
 ---------------------------------------------------------------------
 Center     Atomic      Atomic             Coordinates (Angstroms)
 Number     Number       Type             X           Y           Z
 ---------------------------------------------------------------------
      1          6           0        0.263970    0.744956    0.143085
      2          6           0        0.527785    2.073769   -0.296400
      3          8           0       -0.305913    2.917117   -0.626454
      4          6           0        1.291788   -0.135601    0.458174
      5          6           0        2.581112   -2.386065   -0.928694
      6          1           0        2.745329   -2.935216   -1.856788
      7          1           0        3.543768   -2.100956   -0.508760
      8          1           0        2.064877   -3.034222   -0.221707
      9          7           0        1.780352   -1.183748   -1.142428
     10          1           0        2.239587   -0.520514   -1.756175
     11          1           0        0.873284   -1.399850   -1.539664
     12          1           0        1.056964   -1.041600    0.999592
     13         17           0        2.888597    0.433493    0.913111
     14          6           0       -1.113305    0.192020    0.155142
     15          6           0       -1.959103    0.344733   -0.945929
     16          6           0       -3.237894   -0.190629   -0.943471
     17          6           0       -3.699838   -0.899286    0.157277
     18          6           0       -2.871073   -1.061894    1.257904
     19          6           0       -1.595739   -0.516925    1.257162
     20          1           0       -1.606218    0.888624   -1.812153
     21          1           0       -3.874902   -0.059864   -1.809744
     22          1           0       -4.697764   -1.319232    0.157652
     23          1           0       -3.220958   -1.606630    2.126165
     24          1           0       -0.967817   -0.633295    2.133163
     25          1           0        1.596312    2.352207   -0.311346
 ---------------------------------------------------------------------

 SCF Done:  E(RwB97XD) =  -978.447590756     A.U. after    1 cycles

 The electronic state is 1-A.
 Alpha  occ. eigenvalues -- -101.70770 -19.21318 -14.48214 -10.39604 -10.34882
 Alpha  occ. eigenvalues --  -10.31869 -10.30072 -10.28770 -10.28712 -10.28641
 Alpha  occ. eigenvalues --  -10.28565 -10.28440 -10.27370  -9.59351  -7.33993
 Alpha  occ. eigenvalues --   -7.33141  -7.33092  -1.11524  -1.03930  -0.98222
 Alpha  occ. eigenvalues --   -0.96272  -0.89173  -0.84769  -0.82621  -0.78915
 Alpha  occ. eigenvalues --   -0.74405  -0.70367  -0.69776  -0.63797  -0.63107
 Alpha  occ. eigenvalues --   -0.60117  -0.58134  -0.56028  -0.55401  -0.54761
 Alpha  occ. eigenvalues --   -0.53446  -0.53026  -0.50585  -0.49723  -0.48690
 Alpha  occ. eigenvalues --   -0.48087  -0.47784  -0.46185  -0.45325  -0.43029
 Alpha  occ. eigenvalues --   -0.42473  -0.40800  -0.39150  -0.34630  -0.33642
 Alpha  occ. eigenvalues --   -0.32219  -0.27584
 Alpha virt. eigenvalues --    0.02970   0.04682   0.05495   0.09621   0.11071
 Alpha virt. eigenvalues --    0.13463   0.13663   0.15239   0.15559   0.15836
 Alpha virt. eigenvalues --    0.17063   0.17952   0.18335   0.19108   0.19653

 Mulliken charges:
               1
     1  C   -0.079393
     2  C    0.098678
     3  O   -0.490298
     4  C   -0.028774
     5  C   -0.269117
     6  H    0.152731
     7  H    0.147911
     8  H    0.150175
     9  N   -0.350661
    10  H    0.282071
    11  H    0.283046
    12  H    0.188362
    13  Cl  -0.090945
    14  C    0.146842
    15  C   -0.248715
    16  C   -0.128474
    17  C   -0.157805
    18  C   -0.141587
    19  C   -0.249872
    20  H    0.140715
    21  H    0.139689
    22  H    0.141980
    23  H    0.140281
    24  H    0.151754
    25  H    0.071407
 Sum of Mulliken charges =  -0.00000

 Dipole moment (field-independent basis, Debye):
    X=              4.5915    Y=             -9.5728    Z=             -2.1764  Tot=             10.8378
 Quadrupole moment (field-independent basis, Debye-Ang):
   XX=            -75.2775   YY=            -96.6663   ZZ=            -76.7080
   XY=             -0.4430   XZ=             -6.3189   YZ=              4.1093

  Exact polarizability: 247.471  -5.098 204.288   7.995 -12.919 174.043
 Approx polarizability: 187.196  -1.219 164.640   8.494 -13.367 152.064

 ******    1 imaginary frequencies (negative Signs) ******

                      1                      2                      3
                      A                      A                      A
 Frequencies --   -346.0570                35.4896                43.4195
 Red. masses --      6.3351                 3.5815                 3.8492
 Frc consts  --      0.4470                 0.0027                 0.0043
 IR Inten    --   1067.1799                 0.8974                 1.5341

                      4                      5                      6
                      A                      A                      A
 Frequencies --     65.5837                76.9821               116.1037
 Red. masses --      2.7321                 3.9899                 5.3460
 Frc consts  --      0.0069                 0.0139                 0.0425
 IR Inten    --      3.7445                 8.3067                 4.6645

                      7                      8                      9
                      A                      A                      A
 Frequencies --    158.0786               177.8571               189.0474
 Red. masses --      1.8514                 2.8358                 3.0408
 Frc consts  --      0.0273                 0.0529                 0.0640
 IR Inten    --      0.0318                12.5712                 5.7509

                     10                     11                     12
                      A                      A                      A
 Frequencies --    218.6713               261.5597               277.6272
 Red. masses --      3.3395                 3.2679                 4.9667
 Frc consts  --      0.0941                 0.1317                 0.2255
 IR Inten    --     25.2220                 5.9917                14.0425

                     13                     14                     15
                      A                      A                      A
 Frequencies --    323.2043               355.7579               421.6093
 Red. masses --      4.7734                 4.6124                 2.8878
 Frc consts  --      0.2938                 0.3439                 0.3024
 IR Inten    --      1.5878               101.6840                 0.9132

                     16                     17                     18
                      A                      A                      A
 Frequencies --    489.6099               559.8676               577.6307
 Red. masses --      4.2143                 6.3375                 3.7680
 Frc consts  --      0.5952                 1.1704                 0.7407
 IR Inten    --     76.3856                70.2462                31.4129

                     19                     20                     21
                      A                      A                      A
 Frequencies --    619.0475               639.0573               702.1679
 Red. masses --      1.4545                 6.0410                 4.9673
 Frc consts  --      0.3284                 1.4536                 1.4429
 IR Inten    --     29.2030                 1.4103                39.3840

                     22                     23                     24
                      A                      A                      A
 Frequencies --    724.6019               770.9662               784.8155
 Red. masses --      1.5887                 4.4999                 2.5885
 Frc consts  --      0.4915                 1.5759                 0.9394
 IR Inten    --     89.7438                23.8187                67.2431

                     25                     26                     27
                      A                      A                      A
 Frequencies --    833.8647               874.3312               952.0281
 Red. masses --      3.4997                 1.2500                 1.4755
 Frc consts  --      1.4337                 0.5630                 0.7879
 IR Inten    --    127.8752                 1.8766                 8.1626

                     28                     29                     30
                      A                      A                      A
 Frequencies --   1003.0281              1007.8933              1022.0042
 Red. masses --      1.0839                 1.3771                 1.3413
 Frc consts  --      0.6425                 0.8242                 0.8254
 IR Inten    --     23.0424                 0.3898               110.5534

                     31                     32                     33
                      A                      A                      A
 Frequencies --   1022.3677              1024.6257              1030.2057
 Red. masses --      1.2844                 3.3838                 1.7050
 Frc consts  --      0.7910                 2.0931                 1.0662
 IR Inten    --     18.8619                15.3427                 1.2846

                     34                     35                     36
                      A                      A                      A
 Frequencies --   1060.3779              1071.5981              1111.2460
 Red. masses --      2.4885                 4.3404                 1.5621
 Frc consts  --      1.6486                 2.9366                 1.1365
 IR Inten    --      7.2882               183.8367                14.6729

                     37                     38                     39
                      A                      A                      A
 Frequencies --   1118.8850              1147.3779              1182.3537
 Red. masses --      2.2790                 1.1491                 1.1275
 Frc consts  --      1.6810                 0.8913                 0.9287
 IR Inten    --     29.3869               127.0460                 0.3494

                     40                     41                     42
                      A                      A                      A
 Frequencies --   1212.2507              1214.8027              1271.5162
 Red. masses --      1.1340                 1.4099                 1.5210
 Frc consts  --      0.9818                 1.2259                 1.4489
 IR Inten    --      1.9789                17.9651                 5.8011

                     43                     44                     45
                      A                      A                      A
 Frequencies --   1309.6832              1342.5909              1349.9415
 Red. masses --      3.9655                 1.3264                 2.1263
 Frc consts  --      4.0076                 1.4087                 2.2830
 IR Inten    --    101.9900                 1.6728               391.7200

                     46                     47                     48
                      A                      A                      A
 Frequencies --   1371.8755              1427.8398              1458.7099
 Red. masses --      1.5107                 2.5867                 1.3040
 Frc consts  --      1.6751                 3.1071                 1.6348
 IR Inten    --    225.6211               146.4536                68.8529

                     49                     50                     51
                      A                      A                      A
 Frequencies --   1469.6334              1491.4726              1500.0130
 Red. masses --      1.7880                 1.0402                 2.4979
 Frc consts  --      2.2752                 1.3634                 3.3114
 IR Inten    --    137.4789                15.8407                93.7566

                     52                     53                     54
                      A                      A                      A
 Frequencies --   1505.9171              1545.3583              1640.7142
 Red. masses --      1.0418                 2.4211                 1.0959
 Frc consts  --      1.3920                 3.4067                 1.7381
 IR Inten    --     16.6307                82.7011                76.0988

                     55                     56                     57
                      A                      A                      A
 Frequencies --   1644.4049              1663.3587              1679.9125
 Red. masses --      5.6079                 6.4956                 6.6510
 Frc consts  --      8.9345                10.5887                11.0588
 IR Inten    --      4.8582               502.8492               529.5186

                     58                     59                     60
                      A                      A                      A
 Frequencies --   2960.3716              3065.7193              3142.0438
 Red. masses --      1.0821                 1.0343                 1.1041
 Frc consts  --      5.5876                 5.7273                 6.4222
 IR Inten    --    120.4615                55.7891                16.9827

                     61                     62                     63
                      A                      A                      A
 Frequencies --   3165.7078              3185.8275              3193.8727
 Red. masses --      1.1054                 1.0869                 1.0875
 Frc consts  --      6.5270                 6.4998                 6.5362
 IR Inten    --     14.1980                10.1838                 0.4567

                     64                     65                     66
                      A                      A                      A
 Frequencies --   3203.3440              3211.8810              3214.5364
 Red. masses --      1.0923                 1.0923                 1.0946
 Frc consts  --      6.6041                 6.6392                 6.6643
 IR Inten    --     28.2331                 3.5998                34.9860

                     67                     68                     69
                      A                      A                      A
 Frequencies --   3221.8226              3521.0900              3605.8786
 Red. masses --      1.0974                 1.0506                 1.0969
 Frc consts  --      6.7117                 7.6743                 8.4029
 IR Inten    --     12.6453                22.0143                47.8324

 - Thermochemistry -
 -------------------
 Temperature   298.150 Kelvin.  Pressure   1.00000 Atm.
 Atom     1 has atomic number  6 and mass  12.00000

 Molecular mass:   197.06074 amu.
 Principal axes and moments of inertia in atomic units:
                           1         2         3
     Eigenvalues --  1812.186524148.599584863.73407
           X            0.99970  -0.01759  -0.01674
           Y            0.01777   0.99979   0.01050
           Z            0.01656  -0.01080   0.99980
 This molecule is an asymmetric top.
 Rotational symmetry number  1.
 Warning -- assumption of classical behavior for rotation
           may cause significant error
 Rotational temperatures (Kelvin)      0.04780     0.02088     0.01781
 Rotational constants (GHZ):           0.99589     0.43502     0.37106
    1 imaginary frequencies ignored.
 Zero-point vibrational energy     531399.3 (Joules/Mol)
                                  127.00749 (Kcal/Mol)
 Warning -- explicit consideration of  18 degrees of freedom as
           vibrations may cause significant error
 Vibrational temperatures:     51.06    62.47    94.36   110.76   167.05
          (Kelvin)            227.44   255.90   272.00   314.62   376.33
                              399.44   465.02   511.86   606.60   704.44
                              805.52   831.08   890.67   919.46  1010.26
                             1042.54  1109.25  1129.17  1199.75  1257.97
                             1369.76  1443.13  1450.13  1470.44  1470.96
                             1474.21  1482.24  1525.65  1541.79  1598.84
                             1609.83  1650.82  1701.14  1744.16  1747.83
                             1829.43  1884.34  1931.69  1942.26  1973.82
                             2054.34  2098.76  2114.47  2145.90  2158.18
                             2166.68  2223.43  2360.62  2365.93  2393.20
                             2417.02  4259.31  4410.89  4520.70  4554.75
                             4583.70  4595.27  4608.90  4621.18  4625.00
                             4635.48  5066.06  5188.06

 Zero-point correction=                           0.202399 (Hartree/Particle)
 Thermal correction to Energy=                    0.215437
 Thermal correction to Enthalpy=                  0.216381
 Thermal correction to Gibbs Free Energy=         0.161007
 Sum of electronic and zero-point Energies=           -978.245191
 Sum of electronic and thermal Energies=              -978.232154
 Sum of electronic and thermal Enthalpies=            -978.231210
 Sum of electronic and thermal Free Energies=         -978.286583

                     E (Thermal)             CV                S
                      KCal/Mol        Cal/Mol-Kelvin    Cal/Mol-Kelvin
 Total                  135.189             46.818            116.544
 Electronic               0.000              0.000              0.000
 Translational            0.889              2.981             41.740
 Rotational               0.889              2.981             31.970
 Vibrational            133.411             40.856             42.835
 Vibration     1          0.594              1.982              5.496
 Vibration     2          0.595              1.980              5.097
 Vibration     3          0.597              1.971              4.282
 Vibration     4          0.599              1.965              3.966
 Vibration     5          0.608              1.936              3.164
 Vibration     6          0.621              1.894              2.573
 Vibration     7          0.628              1.870              2.351
 Vibration     8          0.633              1.855              2.237
 Vibration     9          0.646              1.813              1.970
 Vibration    10          0.669              1.743              1.651
 Vibration    11          0.679              1.715              1.548
 Vibration    12          0.708              1.629              1.294
 Vibration    13          0.731              1.563              1.141
 Vibration    14          0.784              1.423              0.887
 Vibration    15          0.845              1.273              0.685
 Vibration    16          0.915              1.118              0.524
 Vibration    17          0.934              1.080              0.490
 Vibration    18          0.979              0.992              0.418

 Optimization completed.
    -- Stationary point found.
 Normal termination of Gaussian 16 at Fri Feb 12 15:24:54 2021.
