 Gaussian 16, Revision A.03,
 Gaussian 16:  ES64L-G16RevA.03 25-Dec-2016

 ----------------------------------------------------------------------
 # wB97XD def2tzvp, opt=(ts, noeigen, calcfc, maxcycles=70, maxstep=1),
  freq=noraman, scrf=(iefpcm, solvent=water)
 ----------------------------------------------------------------------

 ------------------------
 0_iteration/TS-363-0.out
 ------------------------
 Symbolic Z-matrix:
 Charge =  0 Multiplicity = 1

 SCF Done:  E(RwB97XD) =  -1033.83254831     A.U. after   14 cycles
 SCF Done:  E(RwB97XD) =  -1033.83254833     A.U. after    7 cycles
 Optimization completed.
    -- Stationary point found.
 Normal termination of Gaussian 16 at Tue Mar  2 02:58:55 2021.

 ---------------------------------------------------------------------
 #N Geom=AllCheck Guess=TCheck SCRF=Check GenChk RwB97XD/def2TZVP Freq
 ---------------------------------------------------------------------

 Structure from the checkpoint file:  "/beegfs/scratch/user/q/tla25/Gau-24044.chk"
 ------------------------
 0_iteration/TS-363-0.out
 ------------------------
 Charge =  0 Multiplicity = 1

                         Standard orientation:
 ---------------------------------------------------------------------
 Center     Atomic      Atomic             Coordinates (Angstroms)
 Number     Number       Type             X           Y           Z
 ---------------------------------------------------------------------
      1          6           0        0.120764    0.470212    0.077590
      2          6           0        0.498785    1.700621   -0.601439
      3          8           0        1.676436    1.992385   -0.848856
      4          6           0        1.088811   -0.374200    0.576677
      5          6           0        3.135862   -2.193923   -0.673503
      6          1           0        3.627824   -2.515378   -1.593555
      7          1           0        3.885819   -1.793860    0.005930
      8          1           0        2.661879   -3.055800   -0.205622
      9          7           0        2.127137   -1.170437   -0.923208
     10          1           0        2.518208   -0.317463   -1.309527
     11          1           0        1.406185   -1.496142   -1.554559
     12          1           0        0.763229   -1.312405    1.004361
     13         17           0        2.489048    0.212585    1.491790
     14          6           0       -1.280425   -0.030053    0.084236
     15          6           0       -1.623211   -1.255831   -0.491228
     16          6           0       -2.925431   -1.732382   -0.452481
     17          6           0       -3.926553   -0.984187    0.148857
     18          6           0       -3.607108    0.237474    0.724518
     19          6           0       -2.300434    0.700719    0.702496
     20          1           0       -0.862532   -1.848677   -0.984215
     21          1           0       -3.159236   -2.687686   -0.906060
     22          1           0       -4.944973   -1.350467    0.171699
     23          1           0       -4.375584    0.826811    1.209437
     24          1           0       -2.060001    1.639648    1.187254
     25          7           0       -0.495808    2.543176   -1.007107
     26          1           0       -1.456136    2.249957   -1.004835
     27          1           0       -0.235655    3.268557   -1.652007
 ---------------------------------------------------------------------

 SCF Done:  E(RwB97XD) =  -1033.83254833     A.U. after    1 cycles

 The electronic state is 1-A.
 Alpha  occ. eigenvalues -- -101.69327 -19.20063 -14.47180 -14.43748 -10.38459
 Alpha  occ. eigenvalues --  -10.38059 -10.31368 -10.30432 -10.28999 -10.28995
 Alpha  occ. eigenvalues --  -10.28823 -10.28714 -10.28704 -10.26932  -9.57908
 Alpha  occ. eigenvalues --   -7.32545  -7.31708  -7.31648  -1.12644  -1.02939
 Alpha  occ. eigenvalues --   -0.99439  -0.97070  -0.95775  -0.88707  -0.85014
 Alpha  occ. eigenvalues --   -0.82266  -0.78337  -0.73686  -0.70100  -0.69778
 Alpha  occ. eigenvalues --   -0.65032  -0.62792  -0.61531  -0.61094  -0.56708
 Alpha  occ. eigenvalues --   -0.56124  -0.54917  -0.53918  -0.53051  -0.52192
 Alpha  occ. eigenvalues --   -0.50836  -0.50711  -0.49264  -0.48016  -0.47532
 Alpha  occ. eigenvalues --   -0.46511  -0.45541  -0.42956  -0.42661  -0.39648
 Alpha  occ. eigenvalues --   -0.38365  -0.35422  -0.34399  -0.33751  -0.33119
 Alpha  occ. eigenvalues --   -0.27151
 Alpha virt. eigenvalues --    0.04464   0.05090   0.05224   0.09390   0.11112
 Alpha virt. eigenvalues --    0.12878   0.13613   0.14812   0.15510   0.16564
 Alpha virt. eigenvalues --    0.16835   0.17441   0.18251   0.18530   0.19549

 Mulliken charges:
               1
     1  C   -0.152575
     2  C    0.290970
     3  O   -0.534300
     4  C   -0.025796
     5  C   -0.260436
     6  H    0.145552
     7  H    0.141666
     8  H    0.145881
     9  N   -0.359351
    10  H    0.276568
    11  H    0.265569
    12  H    0.196205
    13  Cl  -0.122343
    14  C    0.208364
    15  C   -0.276522
    16  C   -0.137858
    17  C   -0.167293
    18  C   -0.113396
    19  C   -0.313625
    20  H    0.136362
    21  H    0.141465
    22  H    0.142853
    23  H    0.141897
    24  H    0.160892
    25  N   -0.471180
    26  H    0.277146
    27  H    0.263288
 Sum of Mulliken charges =  -0.00000

 Dipole moment (field-independent basis, Debye):
    X=             -1.8430    Y=             -5.6743    Z=             -3.1872  Tot=              6.7640
 Quadrupole moment (field-independent basis, Debye-Ang):
   XX=            -83.8216   YY=            -83.5399   ZZ=            -89.0183
   XY=            -16.5793   XZ=             -3.9914   YZ=              3.5157

  Exact polarizability: 269.291 -12.347 218.560  -3.916  15.840 159.603
 Approx polarizability: 204.026  -4.528 178.292  -4.000  14.051 138.989

 ******    1 imaginary frequencies (negative Signs) ******

                      1                      2                      3
                      A                      A                      A
 Frequencies --   -371.3943                30.3031                43.9376
 Red. masses --      6.5762                 3.8980                 3.3507
 Frc consts  --      0.5344                 0.0021                 0.0038
 IR Inten    --    916.5743                 3.3693                 3.9862

                      4                      5                      6
                      A                      A                      A
 Frequencies --     76.2035                85.6319                99.0211
 Red. masses --      5.1869                 5.2327                 2.7660
 Frc consts  --      0.0177                 0.0226                 0.0160
 IR Inten    --     10.5364                 4.7085                16.5265

                      7                      8                      9
                      A                      A                      A
 Frequencies --    116.7108               168.3250               170.6818
 Red. masses --      2.5495                 4.7868                 1.6652
 Frc consts  --      0.0205                 0.0799                 0.0286
 IR Inten    --      4.7664                 3.7351                 0.7294

                     10                     11                     12
                      A                      A                      A
 Frequencies --    190.8829               253.5356               280.8242
 Red. masses --      3.5636                 5.4215                 3.9618
 Frc consts  --      0.0765                 0.2053                 0.1841
 IR Inten    --     25.6633                 2.1986                41.5099

                     13                     14                     15
                      A                      A                      A
 Frequencies --    290.9801               323.4431               345.1374
 Red. masses --      3.5000                 1.4172                 3.6936
 Frc consts  --      0.1746                 0.0874                 0.2592
 IR Inten    --     94.1862               289.5838                 5.6789

                     16                     17                     18
                      A                      A                      A
 Frequencies --    395.2680               423.8731               465.2556
 Red. masses --      5.2843                 2.8596                 3.2136
 Frc consts  --      0.4864                 0.3027                 0.4099
 IR Inten    --     25.1932                 4.1004                39.7489

                     19                     20                     21
                      A                      A                      A
 Frequencies --    517.2693               562.5600               571.6987
 Red. masses --      1.8048                 2.6552                 2.1864
 Frc consts  --      0.2845                 0.4951                 0.4210
 IR Inten    --     22.3073                39.3976                19.4125

                     22                     23                     24
                      A                      A                      A
 Frequencies --    631.4111               642.9322               664.9031
 Red. masses --      2.2060                 2.7977                 6.1534
 Frc consts  --      0.5182                 0.6814                 1.6028
 IR Inten    --     15.2778                12.2940                58.2991

                     25                     26                     27
                      A                      A                      A
 Frequencies --    729.7080               757.0104               771.8751
 Red. masses --      1.5622                 3.4211                 3.2781
 Frc consts  --      0.4901                 1.1551                 1.1507
 IR Inten    --     81.2785               107.3786                31.6263

                     28                     29                     30
                      A                      A                      A
 Frequencies --    808.7040               817.0653               875.8272
 Red. masses --      6.7942                 3.1787                 1.2553
 Frc consts  --      2.6180                 1.2503                 0.5673
 IR Inten    --    124.6769                46.3376                 3.9366

                     31                     32                     33
                      A                      A                      A
 Frequencies --    950.4441               997.2497              1009.7682
 Red. masses --      1.4598                 1.5374                 1.3649
 Frc consts  --      0.7770                 0.9008                 0.8199
 IR Inten    --      3.0159                 5.9334                 1.6884

                     34                     35                     36
                      A                      A                      A
 Frequencies --   1019.4840              1022.5774              1024.8892
 Red. masses --      1.3906                 1.5202                 3.1916
 Frc consts  --      0.8516                 0.9366                 1.9752
 IR Inten    --    110.7283                41.0958                17.9947

                     37                     38                     39
                      A                      A                      A
 Frequencies --   1026.8329              1066.2570              1072.1969
 Red. masses --      1.4405                 1.8631                 2.9048
 Frc consts  --      0.8949                 1.2480                 1.9675
 IR Inten    --      2.5834                26.8179               195.6071

                     40                     41                     42
                      A                      A                      A
 Frequencies --   1094.8459              1101.5013              1113.7697
 Red. masses --      1.3642                 1.9656                 1.5426
 Frc consts  --      0.9634                 1.4051                 1.1274
 IR Inten    --      4.3920                19.9337                20.8712

                     43                     44                     45
                      A                      A                      A
 Frequencies --   1182.1793              1203.7924              1213.1115
 Red. masses --      1.1311                 1.3596                 1.1557
 Frc consts  --      0.9314                 1.1608                 1.0020
 IR Inten    --      1.0719                21.0988                 8.7010

                     46                     47                     48
                      A                      A                      A
 Frequencies --   1272.1466              1289.6195              1308.3075
 Red. masses --      1.9382                 2.3443                 3.5973
 Frc consts  --      1.8481                 2.2971                 3.6278
 IR Inten    --      5.9096                 5.4384                82.5755

                     49                     50                     51
                      A                      A                      A
 Frequencies --   1341.3749              1358.4165              1397.7122
 Red. masses --      1.3417                 1.5705                 3.0631
 Frc consts  --      1.4223                 1.7075                 3.5257
 IR Inten    --      1.7903                70.4455               443.0939

                     52                     53                     54
                      A                      A                      A
 Frequencies --   1442.4912              1463.3456              1491.5929
 Red. masses --      2.8988                 1.3718                 1.0410
 Frc consts  --      3.5538                 1.7308                 1.3646
 IR Inten    --    523.9507                96.6741                14.0749

                     55                     56                     57
                      A                      A                      A
 Frequencies --   1493.4359              1502.9927              1542.0950
 Red. masses --      2.5054                 1.0348                 2.3675
 Frc consts  --      3.2923                 1.3772                 3.3171
 IR Inten    --    104.6854                21.7318                75.1472

                     58                     59                     60
                      A                      A                      A
 Frequencies --   1616.0221              1641.9370              1650.3872
 Red. masses --      1.3623                 5.0355                 1.1075
 Frc consts  --      2.0962                 7.9984                 1.7773
 IR Inten    --    323.6669                 7.5256                61.8414

                     61                     62                     63
                      A                      A                      A
 Frequencies --   1663.3406              1672.4141              3059.1496
 Red. masses --      5.0573                 5.9109                 1.0367
 Frc consts  --      8.2438                 9.7407                 5.7163
 IR Inten    --    698.4176                82.1990                70.3455

                     64                     65                     66
                      A                      A                      A
 Frequencies --   3134.7207              3165.9447              3188.6140
 Red. masses --      1.1016                 1.1044                 1.0862
 Frc consts  --      6.3780                 6.5221                 6.5066
 IR Inten    --     20.8061                14.5747                 9.5674

                     67                     68                     69
                      A                      A                      A
 Frequencies --   3192.1343              3202.3548              3208.7304
 Red. masses --      1.0875                 1.0910                 1.0949
 Frc consts  --      6.5289                 6.5921                 6.6419
 IR Inten    --      3.2492                12.4028                51.3713

                     70                     71                     72
                      A                      A                      A
 Frequencies --   3218.7585              3220.4087              3518.8706
 Red. masses --      1.0922                 1.0987                 1.0521
 Frc consts  --      6.6671                 6.7137                 7.6759
 IR Inten    --      2.3263                19.1213                23.2738

                     73                     74                     75
                      A                      A                      A
 Frequencies --   3607.5819              3617.8168              3740.3140
 Red. masses --      1.0951                 1.0458                 1.1039
 Frc consts  --      8.3974                 8.0648                 9.0987
 IR Inten    --     42.4570                68.5639               101.0716

 - Thermochemistry -
 -------------------
 Temperature   298.150 Kelvin.  Pressure   1.00000 Atm.
 Atom     1 has atomic number  6 and mass  12.00000

 Molecular mass:   212.07164 amu.
 Principal axes and moments of inertia in atomic units:
                           1         2         3
     Eigenvalues --  2005.781664613.804045456.47585
           X            0.99937  -0.03029  -0.01854
           Y            0.03073   0.99924   0.02408
           Z            0.01780  -0.02463   0.99954
 This molecule is an asymmetric top.
 Rotational symmetry number  1.
 Warning -- assumption of classical behavior for rotation
           may cause significant error
 Rotational temperatures (Kelvin)      0.04318     0.01877     0.01587
 Rotational constants (GHZ):           0.89977     0.39116     0.33075
    1 imaginary frequencies ignored.
 Zero-point vibrational energy     576796.9 (Joules/Mol)
                                  137.85776 (Kcal/Mol)
 Warning -- explicit consideration of  20 degrees of freedom as
           vibrations may cause significant error
 Vibrational temperatures:     43.60    63.22   109.64   123.21   142.47
          (Kelvin)            167.92   242.18   245.57   274.64   364.78
                              404.04   418.66   465.36   496.58   568.70
                              609.86   669.40   744.24   809.40   822.55
                              908.46   925.04   956.65  1049.89  1089.17
                             1110.56  1163.54  1175.57  1260.12  1367.48
                             1434.82  1452.83  1466.81  1471.26  1474.59
                             1477.38  1534.11  1542.65  1575.24  1584.81
                             1602.47  1700.89  1731.99  1745.40  1830.34
                             1855.47  1882.36  1929.94  1954.46  2011.00
                             2075.42  2105.43  2146.07  2148.72  2162.47
                             2218.73  2325.10  2362.38  2374.54  2393.18
                             2406.23  4401.43  4510.16  4555.09  4587.70
                             4592.77  4607.47  4616.65  4631.08  4633.45
                             5062.87  5190.51  5205.23  5381.48

 Zero-point correction=                           0.219690 (Hartree/Particle)
 Thermal correction to Energy=                    0.233999
 Thermal correction to Enthalpy=                  0.234943
 Thermal correction to Gibbs Free Energy=         0.177069
 Sum of electronic and zero-point Energies=          -1033.612858
 Sum of electronic and thermal Energies=             -1033.598550
 Sum of electronic and thermal Enthalpies=           -1033.597605
 Sum of electronic and thermal Free Energies=        -1033.655479

                     E (Thermal)             CV                S
                      KCal/Mol        Cal/Mol-Kelvin    Cal/Mol-Kelvin
 Total                  146.836             52.315            121.806
 Electronic               0.000              0.000              0.000
 Translational            0.889              2.981             41.959
 Rotational               0.889              2.981             32.290
 Vibrational            145.059             46.354             47.557
 Vibration     1          0.594              1.984              5.809
 Vibration     2          0.595              1.980              5.073
 Vibration     3          0.599              1.965              3.986
 Vibration     4          0.601              1.959              3.757
 Vibration     5          0.604              1.950              3.473
 Vibration     6          0.608              1.935              3.154
 Vibration     7          0.625              1.881              2.454
 Vibration     8          0.626              1.879              2.428
 Vibration     9          0.634              1.852              2.219
 Vibration    10          0.665              1.757              1.706
 Vibration    11          0.680              1.709              1.529
 Vibration    12          0.687              1.691              1.468
 Vibration    13          0.708              1.629              1.293
 Vibration    14          0.724              1.585              1.188
 Vibration    15          0.762              1.480              0.980
 Vibration    16          0.786              1.418              0.879
 Vibration    17          0.823              1.327              0.751
 Vibration    18          0.872              1.212              0.616
 Vibration    19          0.918              1.112              0.519
 Vibration    20          0.928              1.092              0.501

 Optimization completed.
    -- Stationary point found.
 Normal termination of Gaussian 16 at Tue Mar  2 03:42:29 2021.
