 Gaussian 16, Revision A.03,
 Gaussian 16:  ES64L-G16RevA.03 25-Dec-2016

 ----------------------------------------------------------------------
 # wB97XD def2tzvp, opt=(ts, noeigen, calcfc, maxcycles=70, maxstep=5),
  freq=noraman, scrf=(iefpcm, solvent=water)
 ----------------------------------------------------------------------

 ------------------------
 2_iteration/TS-425-2.out
 ------------------------
 Symbolic Z-matrix:
 Charge =  0 Multiplicity = 1

 SCF Done:  E(RwB97XD) =  -3131.77332734     A.U. after   15 cycles
 SCF Done:  E(RwB97XD) =  -3131.77332771     A.U. after    8 cycles
 SCF Done:  E(RwB97XD) =  -3131.77332749     A.U. after    6 cycles
 Optimization completed.
    -- Stationary point found.
 Normal termination of Gaussian 16 at Sun Feb 14 10:27:35 2021.

 ---------------------------------------------------------------------
 #N Geom=AllCheck Guess=TCheck SCRF=Check GenChk RwB97XD/def2TZVP Freq
 ---------------------------------------------------------------------

 Structure from the checkpoint file:  "/beegfs/scratch/user/q/tla25/Gau-43713.chk"
 ------------------------
 2_iteration/TS-425-2.out
 ------------------------
 Charge =  0 Multiplicity = 1

                         Standard orientation:
 ---------------------------------------------------------------------
 Center     Atomic      Atomic             Coordinates (Angstroms)
 Number     Number       Type             X           Y           Z
 ---------------------------------------------------------------------
      1          6           0       -0.839184   -0.414762    0.167200
      2          6           0       -0.548003   -1.180571    1.312125
      3          8           0       -1.335074   -1.833213    2.004430
      4          6           0        0.087224    0.352193   -0.580679
      5          6           0       -0.736600    2.371523    1.254418
      6          1           0       -0.309868    1.699011    1.996202
      7          1           0       -0.643334    3.399732    1.601649
      8          1           0       -1.787630    2.121033    1.137064
      9          7           0       -0.056850    2.190110   -0.026707
     10          1           0       -0.568525    2.658728   -0.764830
     11          1           0        0.875620    2.588313   -0.015075
     12          6           0       -0.198285    0.606002   -2.048193
     13          1           0        0.560148    1.255317   -2.484030
     14          1           0       -0.194118   -0.341705   -2.587150
     15          1           0       -1.180673    1.049533   -2.191699
     16          6           0        1.549326    0.064635   -0.302791
     17          6           0        2.219794    0.546156    0.818097
     18          6           0        3.553865    0.239639    1.039282
     19          6           0        4.243391   -0.563567    0.145316
     20          6           0        3.584988   -1.056484   -0.970999
     21          6           0        2.253679   -0.742676   -1.194068
     22          1           0        1.706351    1.156450    1.548061
     23          1           0        4.050513    0.629554    1.918384
     24          1           0        5.284419   -0.804550    0.317304
     25          1           0        4.108063   -1.689085   -1.676713
     26          1           0        1.762195   -1.144556   -2.069383
     27         35           0       -2.689410   -0.382431   -0.342512
     28          1           0        0.523546   -1.190274    1.571407
 ---------------------------------------------------------------------

 SCF Done:  E(RwB97XD) =  -3131.77332749     A.U. after    2 cycles

 The electronic state is 1-A.
 Alpha  occ. eigenvalues -- -483.11859 -62.66691 -56.45787 -56.45466 -56.45455
 Alpha  occ. eigenvalues --  -19.20514 -14.49322 -10.37300 -10.34476 -10.32061
 Alpha  occ. eigenvalues --  -10.31576 -10.30622 -10.29935 -10.29766 -10.29608
 Alpha  occ. eigenvalues --  -10.29563 -10.29438 -10.28881  -8.80802  -6.62886
 Alpha  occ. eigenvalues --   -6.61861  -6.61827  -2.73288  -2.72990  -2.72964
 Alpha  occ. eigenvalues --   -2.72134  -2.72134  -1.10766  -1.04901  -0.98124
 Alpha  occ. eigenvalues --   -0.93764  -0.88304  -0.86007  -0.84019  -0.80915
 Alpha  occ. eigenvalues --   -0.79035  -0.72948  -0.71239  -0.68900  -0.64977
 Alpha  occ. eigenvalues --   -0.62453  -0.59836  -0.58155  -0.58090  -0.56276
 Alpha  occ. eigenvalues --   -0.55238  -0.53348  -0.52490  -0.51473  -0.50108
 Alpha  occ. eigenvalues --   -0.49075  -0.48552  -0.47961  -0.47030  -0.46568
 Alpha  occ. eigenvalues --   -0.46299  -0.44198  -0.42432  -0.41541  -0.38569
 Alpha  occ. eigenvalues --   -0.36706  -0.34727  -0.34297  -0.31853  -0.27823
 Alpha virt. eigenvalues --    0.02874   0.04519   0.05601   0.09010   0.10139
 Alpha virt. eigenvalues --    0.12275   0.13589   0.13842   0.14408   0.15546
 Alpha virt. eigenvalues --    0.16879   0.17214   0.17712   0.18393   0.18967

 Mulliken charges:
               1
     1  C   -0.136784
     2  C    0.054810
     3  O   -0.510781
     4  C    0.232519
     5  C   -0.292183
     6  H    0.152859
     7  H    0.167446
     8  H    0.156168
     9  N   -0.329562
    10  H    0.285908
    11  H    0.295049
    12  C   -0.415471
    13  H    0.168953
    14  H    0.157479
    15  H    0.161203
    16  C    0.134333
    17  C   -0.267551
    18  C   -0.159579
    19  C   -0.141425
    20  C   -0.147493
    21  C   -0.242581
    22  H    0.161110
    23  H    0.146086
    24  H    0.147413
    25  H    0.146521
    26  H    0.147185
    27  Br  -0.174255
    28  H    0.102624
 Sum of Mulliken charges =  -0.00000

 Dipole moment (field-independent basis, Debye):
    X=              7.0264    Y=             10.3244    Z=             -4.4632  Tot=             13.2622
 Quadrupole moment (field-independent basis, Debye-Ang):
   XX=            -98.2921   YY=            -89.3766   ZZ=            -98.2876
   XY=            -11.2004   XZ=              7.7400   YZ=             12.1148

  Exact polarizability: 266.422   0.299 208.074   3.465  -0.190 210.408
 Approx polarizability: 204.437  -0.092 174.191   3.234   1.532 180.637

 ******    1 imaginary frequencies (negative Signs) ******

                      1                      2                      3
                      A                      A                      A
 Frequencies --   -321.7611                23.7196                54.8999
 Red. masses --      5.5164                 3.7901                 6.2993
 Frc consts  --      0.3365                 0.0013                 0.0112
 IR Inten    --    734.8852                 3.3171                 1.9117

                      4                      5                      6
                      A                      A                      A
 Frequencies --     75.8932               106.9676               131.0106
 Red. masses --      5.2980                 4.4772                 1.9357
 Frc consts  --      0.0180                 0.0302                 0.0196
 IR Inten    --      2.7586                 9.0740                 0.3843

                      7                      8                      9
                      A                      A                      A
 Frequencies --    134.7562               180.1301               202.7287
 Red. masses --      1.3166                 4.5639                 8.0069
 Frc consts  --      0.0141                 0.0872                 0.1939
 IR Inten    --      0.6275                 7.1516                 7.2808

                     10                     11                     12
                      A                      A                      A
 Frequencies --    226.9050               238.4619               269.6322
 Red. masses --      4.0210                 2.7884                 3.6412
 Frc consts  --      0.1220                 0.0934                 0.1560
 IR Inten    --      2.8600                 6.5744                 6.2460

                     13                     14                     15
                      A                      A                      A
 Frequencies --    303.4372               326.6419               341.9513
 Red. masses --      2.1173                 2.2950                 3.1122
 Frc consts  --      0.1149                 0.1443                 0.2144
 IR Inten    --     12.9845                30.2495                 1.2208

                     16                     17                     18
                      A                      A                      A
 Frequencies --    364.1636               397.7391               420.8743
 Red. masses --      1.6489                 3.4542                 2.8959
 Frc consts  --      0.1288                 0.3220                 0.3022
 IR Inten    --      1.5581                15.3631                 0.1594

                     19                     20                     21
                      A                      A                      A
 Frequencies --    492.0494               523.2246               584.8092
 Red. masses --      4.1413                 4.3991                 4.5063
 Frc consts  --      0.5908                 0.7096                 0.9080
 IR Inten    --     22.8022                13.0527               103.5285

                     22                     23                     24
                      A                      A                      A
 Frequencies --    609.4983               635.1644               639.3854
 Red. masses --      3.9455                 2.7590                 5.2787
 Frc consts  --      0.8636                 0.6558                 1.2715
 IR Inten    --     67.0117                73.8371                 6.7968

                     25                     26                     27
                      A                      A                      A
 Frequencies --    680.6247               728.8731               794.7766
 Red. masses --      1.8713                 1.5510                 2.4493
 Frc consts  --      0.5108                 0.4855                 0.9115
 IR Inten    --     48.0241                90.5454                33.5343

                     28                     29                     30
                      A                      A                      A
 Frequencies --    817.3275               876.4814               959.7032
 Red. masses --      3.0072                 1.2484                 1.4100
 Frc consts  --      1.1836                 0.5650                 0.7652
 IR Inten    --      5.2219                 0.4539                 4.0049

                     31                     32                     33
                      A                      A                      A
 Frequencies --   1013.5823              1015.6613              1016.1904
 Red. masses --      1.4173                 1.1811                 1.5541
 Frc consts  --      0.8579                 0.7179                 0.9455
 IR Inten    --      1.3409                 2.4073                 1.2290

                     34                     35                     36
                      A                      A                      A
 Frequencies --   1027.6534              1032.5020              1033.8153
 Red. masses --      4.1930                 1.4980                 1.7132
 Frc consts  --      2.6090                 0.9409                 1.0788
 IR Inten    --      3.8591                 3.4119                12.3615

                     37                     38                     39
                      A                      A                      A
 Frequencies --   1038.8558              1053.6667              1066.6649
 Red. masses --      1.5035                 1.6470                 1.9699
 Frc consts  --      0.9560                 1.0773                 1.3205
 IR Inten    --    192.9502                37.5624                15.3394

                     40                     41                     42
                      A                      A                      A
 Frequencies --   1081.7415              1110.1470              1132.7664
 Red. masses --      3.5725                 2.0863                 1.6255
 Frc consts  --      2.4630                 1.5149                 1.2289
 IR Inten    --      2.8456                10.0354                14.2693

                     43                     44                     45
                      A                      A                      A
 Frequencies --   1187.9882              1217.5591              1229.1984
 Red. masses --      1.1302                 3.3230                 1.1828
 Frc consts  --      0.9398                 2.9024                 1.0530
 IR Inten    --      0.3591                 6.8903                 3.8671

                     46                     47                     48
                      A                      A                      A
 Frequencies --   1239.5302              1295.4188              1324.2198
 Red. masses --      1.4102                 3.5582                 4.6344
 Frc consts  --      1.2765                 3.5180                 4.7881
 IR Inten    --     54.8379               165.3921                 1.7566

                     49                     50                     51
                      A                      A                      A
 Frequencies --   1349.3570              1367.0856              1376.6908
 Red. masses --      1.3310                 2.0643                 1.5146
 Frc consts  --      1.4278                 2.2731                 1.6913
 IR Inten    --      3.0625               359.0642               191.2740

                     52                     53                     54
                      A                      A                      A
 Frequencies --   1421.2316              1456.8109              1470.4810
 Red. masses --      1.2401                 1.4536                 1.4336
 Frc consts  --      1.4758                 1.8176                 1.8263
 IR Inten    --     22.0967                46.7593                47.3861

                     55                     56                     57
                      A                      A                      A
 Frequencies --   1485.3473              1494.6782              1495.2119
 Red. masses --      1.2379                 1.7839                 1.0379
 Frc consts  --      1.6091                 2.3481                 1.3671
 IR Inten    --     18.4639                32.1522                21.5978

                     58                     59                     60
                      A                      A                      A
 Frequencies --   1501.0533              1509.9025              1550.2055
 Red. masses --      1.0580                 1.0945                 2.1919
 Frc consts  --      1.4046                 1.4702                 3.1034
 IR Inten    --     14.6103                30.9341                23.8238

                     61                     62                     63
                      A                      A                      A
 Frequencies --   1652.1816              1653.7701              1655.1981
 Red. masses --      3.5865                 5.1083                 1.3155
 Frc consts  --      5.7682                 8.2314                 2.1234
 IR Inten    --    329.8769               406.0507               472.5371

                     64                     65                     66
                      A                      A                      A
 Frequencies --   1676.9871              2984.5913              3074.0697
 Red. masses --      5.7494                 1.0816                 1.0370
 Frc consts  --      9.5265                 5.6764                 5.7736
 IR Inten    --      8.4396                97.5742                12.1361

                     67                     68                     69
                      A                      A                      A
 Frequencies --   3081.1030              3149.7618              3160.6856
 Red. masses --      1.0342                 1.1027                 1.1049
 Frc consts  --      5.7845                 6.4456                 6.5032
 IR Inten    --     24.7727                17.3206                13.8173

                     70                     71                     72
                      A                      A                      A
 Frequencies --   3169.2629              3181.1121              3200.4822
 Red. masses --      1.1024                 1.1048                 1.0863
 Frc consts  --      6.5239                 6.5873                 6.5556
 IR Inten    --     17.8137                 9.2842                 0.2077

                     73                     74                     75
                      A                      A                      A
 Frequencies --   3209.3852              3220.0515              3229.5598
 Red. masses --      1.0897                 1.0936                 1.0934
 Frc consts  --      6.6132                 6.6811                 6.7194
 IR Inten    --      7.2916                23.8492                22.0108

                     76                     77                     78
                      A                      A                      A
 Frequencies --   3233.2639              3527.7849              3603.7780
 Red. masses --      1.0956                 1.0516                 1.0951
 Frc consts  --      6.7484                 7.7112                 8.3793
 IR Inten    --      3.2614                62.0042                49.0085

 - Thermochemistry -
 -------------------
 Temperature   298.150 Kelvin.  Pressure   1.00000 Atm.
 Atom     1 has atomic number  6 and mass  12.00000

 Molecular mass:   255.02588 amu.
 Principal axes and moments of inertia in atomic units:
                           1         2         3
     Eigenvalues --  1985.323545773.886275915.41775
           X            0.99976  -0.01870  -0.01147
           Y            0.02099   0.96749   0.25203
           Z            0.00639  -0.25221   0.96765
 This molecule is an asymmetric top.
 Rotational symmetry number  1.
 Warning -- assumption of classical behavior for rotation
           may cause significant error
 Rotational temperatures (Kelvin)      0.04363     0.01500     0.01464
 Rotational constants (GHZ):           0.90904     0.31257     0.30509
    1 imaginary frequencies ignored.
 Zero-point vibrational energy     606507.1 (Joules/Mol)
                                  144.95869 (Kcal/Mol)
 Warning -- explicit consideration of  21 degrees of freedom as
           vibrations may cause significant error
 Vibrational temperatures:     34.13    78.99   109.19   153.90   188.49
          (Kelvin)            193.88   259.17   291.68   326.47   343.09
                              387.94   436.58   469.96   491.99   523.95
                              572.26   605.54   707.95   752.80   841.41
                              876.93   913.86   919.93   979.27  1048.69
                             1143.51  1175.95  1261.06  1380.80  1458.32
                             1461.31  1462.07  1478.56  1485.54  1487.43
                             1494.68  1515.99  1534.69  1556.38  1597.25
                             1629.80  1709.25  1751.80  1768.54  1783.41
                             1863.82  1905.26  1941.42  1966.93  1980.75
                             2044.84  2096.03  2115.69  2137.08  2150.51
                             2151.28  2159.68  2172.41  2230.40  2377.12
                             2379.41  2381.46  2412.81  4294.16  4422.90
                             4433.02  4531.80  4547.52  4559.86  4576.91
                             4604.78  4617.59  4632.94  4646.62  4651.95
                             5075.70  5185.03

 Zero-point correction=                           0.231006 (Hartree/Particle)
 Thermal correction to Energy=                    0.245209
 Thermal correction to Enthalpy=                  0.246153
 Thermal correction to Gibbs Free Energy=         0.188516
 Sum of electronic and zero-point Energies=          -3131.542321
 Sum of electronic and thermal Energies=             -3131.528119
 Sum of electronic and thermal Enthalpies=           -3131.527174
 Sum of electronic and thermal Free Energies=        -3131.584811

                     E (Thermal)             CV                S
                      KCal/Mol        Cal/Mol-Kelvin    Cal/Mol-Kelvin
 Total                  153.871             52.546            121.307
 Electronic               0.000              0.000              0.000
 Translational            0.889              2.981             42.509
 Rotational               0.889              2.981             32.583
 Vibrational            152.093             46.585             46.215
 Vibration     1          0.593              1.985              6.296
 Vibration     2          0.596              1.976              4.633
 Vibration     3          0.599              1.965              3.994
 Vibration     4          0.606              1.944              3.323
 Vibration     5          0.612              1.922              2.931
 Vibration     6          0.613              1.919              2.877
 Vibration     7          0.629              1.867              2.327
 Vibration     8          0.639              1.836              2.108
 Vibration     9          0.651              1.800              1.903
 Vibration    10          0.656              1.782              1.814
 Vibration    11          0.674              1.729              1.599
 Vibration    12          0.695              1.667              1.398
 Vibration    13          0.710              1.622              1.277
 Vibration    14          0.721              1.592              1.203
 Vibration    15          0.738              1.546              1.104
 Vibration    16          0.764              1.475              0.971
 Vibration    17          0.783              1.425              0.889
 Vibration    18          0.848              1.268              0.678
 Vibration    19          0.878              1.199              0.603
 Vibration    20          0.942              1.064              0.477
 Vibration    21          0.968              1.012              0.434

 Optimization completed.
    -- Stationary point found.
 Normal termination of Gaussian 16 at Sun Feb 14 11:23:43 2021.
