 Gaussian 16, Revision A.03,
 Gaussian 16:  ES64L-G16RevA.03 25-Dec-2016

 ----------------------------------------------------------------------
 # wB97XD def2tzvp, opt=(ts, noeigen, calcfc, maxcycles=70, maxstep=5),
  freq=noraman, scrf=(iefpcm, solvent=water)
 ----------------------------------------------------------------------

 ------------------------
 2_iteration/TS-427-2.out
 ------------------------
 Symbolic Z-matrix:
 Charge =  0 Multiplicity = 1

 SCF Done:  E(RwB97XD) =  -3187.15817451     A.U. after   15 cycles
 SCF Done:  E(RwB97XD) =  -3187.15821928     A.U. after   12 cycles
 SCF Done:  E(RwB97XD) =  -3187.15823105     A.U. after   11 cycles
 SCF Done:  E(RwB97XD) =  -3187.15823057     A.U. after    9 cycles
 SCF Done:  E(RwB97XD) =  -3187.15823095     A.U. after    7 cycles
 Optimization completed.
    -- Stationary point found.
 Normal termination of Gaussian 16 at Sun Feb 14 14:00:09 2021.

 ---------------------------------------------------------------------
 #N Geom=AllCheck Guess=TCheck SCRF=Check GenChk RwB97XD/def2TZVP Freq
 ---------------------------------------------------------------------

 Structure from the checkpoint file:  "/beegfs/scratch/user/q/tla25/Gau-3846.chk"
 ------------------------
 2_iteration/TS-427-2.out
 ------------------------
 Charge =  0 Multiplicity = 1

                         Standard orientation:
 ---------------------------------------------------------------------
 Center     Atomic      Atomic             Coordinates (Angstroms)
 Number     Number       Type             X           Y           Z
 ---------------------------------------------------------------------
      1          6           0       -0.864493   -0.289266    0.032278
      2          6           0       -0.807837   -1.083549    1.226357
      3          8           0        0.087311   -0.905333    2.077418
      4          6           0        0.156882    0.624424   -0.300048
      5          6           0       -1.066924    2.472885    1.486177
      6          1           0       -1.132034    2.839946    2.511124
      7          1           0       -1.219510    3.303842    0.800108
      8          1           0       -1.851848    1.731685    1.331170
      9          7           0        0.218531    1.844219    1.221121
     10          1           0        0.971311    2.519525    1.212111
     11          1           0        0.422869    1.115277    1.904212
     12          6           0       -0.075260    1.590027   -1.437589
     13          1           0       -0.083953    1.036640   -2.378584
     14          1           0       -1.027721    2.107101   -1.340991
     15          1           0        0.726454    2.324062   -1.487501
     16          6           0        1.590764    0.131260   -0.266383
     17          6           0        1.860732   -1.220951   -0.459911
     18          6           0        3.163615   -1.688859   -0.525223
     19          6           0        4.229767   -0.809942   -0.408196
     20          6           0        3.976806    0.542951   -0.240365
     21          6           0        2.671820    1.006620   -0.180110
     22          1           0        1.035516   -1.912238   -0.563422
     23          1           0        3.344160   -2.746422   -0.671666
     24          1           0        5.248182   -1.173751   -0.457523
     25          1           0        4.796857    1.245455   -0.162196
     26          1           0        2.513945    2.072115   -0.076060
     27         35           0       -2.527458   -0.252406   -0.933614
     28          7           0       -1.739084   -2.056989    1.441191
     29          1           0       -1.793936   -2.429545    2.372424
     30          1           0       -2.559092   -2.121020    0.865837
 ---------------------------------------------------------------------

 SCF Done:  E(RwB97XD) =  -3187.15823095     A.U. after    1 cycles

 The electronic state is 1-A.
 Alpha  occ. eigenvalues -- -483.12205 -62.67032 -56.46131 -56.45807 -56.45796
 Alpha  occ. eigenvalues --  -19.20140 -14.47105 -14.43660 -10.38055 -10.36047
 Alpha  occ. eigenvalues --  -10.31203 -10.30605 -10.29778 -10.29402 -10.29157
 Alpha  occ. eigenvalues --  -10.29061 -10.28992 -10.28918 -10.28430  -8.81141
 Alpha  occ. eigenvalues --   -6.63231  -6.62198  -6.62161  -2.73629  -2.73334
 Alpha  occ. eigenvalues --   -2.73303  -2.72468  -2.72467  -1.12530  -1.03052
 Alpha  occ. eigenvalues --   -0.99311  -0.97308  -0.93003  -0.87969  -0.85331
 Alpha  occ. eigenvalues --   -0.83384  -0.79593  -0.78278  -0.72519  -0.70535
 Alpha  occ. eigenvalues --   -0.68739  -0.64208  -0.62743  -0.62044  -0.59240
 Alpha  occ. eigenvalues --   -0.57270  -0.56472  -0.55337  -0.53905  -0.53374
 Alpha  occ. eigenvalues --   -0.51871  -0.51361  -0.50238  -0.49409  -0.48423
 Alpha  occ. eigenvalues --   -0.47595  -0.46920  -0.46623  -0.46065  -0.42859
 Alpha  occ. eigenvalues --   -0.42491  -0.40789  -0.39302  -0.37733  -0.35237
 Alpha  occ. eigenvalues --   -0.34500  -0.33772  -0.32422  -0.26590
 Alpha virt. eigenvalues --    0.02551   0.05283   0.07065   0.09629   0.10364
 Alpha virt. eigenvalues --    0.12802   0.13747   0.14192   0.15284   0.15724
 Alpha virt. eigenvalues --    0.16382   0.17105   0.17695   0.18388   0.18989

 Mulliken charges:
               1
     1  C   -0.359282
     2  C    0.335219
     3  O   -0.570832
     4  C    0.285029
     5  C   -0.307656
     6  H    0.152888
     7  H    0.156645
     8  H    0.153138
     9  N   -0.323664
    10  H    0.263399
    11  H    0.275896
    12  C   -0.374400
    13  H    0.156785
    14  H    0.147686
    15  H    0.147469
    16  C    0.193933
    17  C   -0.227748
    18  C   -0.144126
    19  C   -0.141641
    20  C   -0.174324
    21  C   -0.272125
    22  H    0.158325
    23  H    0.141794
    24  H    0.144200
    25  H    0.142568
    26  H    0.151801
    27  Br  -0.170875
    28  N   -0.470817
    29  H    0.266681
    30  H    0.264034
 Sum of Mulliken charges =  -0.00000

 Dipole moment (field-independent basis, Debye):
    X=              0.7080    Y=              5.1292    Z=              0.2615  Tot=              5.1844
 Quadrupole moment (field-independent basis, Debye-Ang):
   XX=            -94.6092   YY=            -85.5201   ZZ=           -106.9597
   XY=              5.7055   XZ=             -6.7577   YZ=              5.1074

  Exact polarizability: 275.743  13.149 248.647   7.232   1.618 188.741
 Approx polarizability: 213.547  10.676 205.317   9.466   2.919 161.582

 ******    1 imaginary frequencies (negative Signs) ******

                      1                      2                      3
                      A                      A                      A
 Frequencies --   -379.5333                59.4371                61.6064
 Red. masses --      4.9934                 4.0137                 6.6592
 Frc consts  --      0.4238                 0.0084                 0.0149
 IR Inten    --    678.0625                 1.0233                 0.1141

                      4                      5                      6
                      A                      A                      A
 Frequencies --     72.2409                85.9075               106.8772
 Red. masses --      2.9935                 3.7699                 3.6721
 Frc consts  --      0.0092                 0.0164                 0.0247
 IR Inten    --      6.4220                 2.4498                 5.9468

                      7                      8                      9
                      A                      A                      A
 Frequencies --    142.7460               167.3109               200.8196
 Red. masses --      4.9248                 1.7474                 5.7435
 Frc consts  --      0.0591                 0.0288                 0.1365
 IR Inten    --     26.3874                27.2407                 5.1455

                     10                     11                     12
                      A                      A                      A
 Frequencies --    203.8514               209.5423               258.3327
 Red. masses --      2.1125                 2.8866                 2.9759
 Frc consts  --      0.0517                 0.0747                 0.1170
 IR Inten    --      1.9935                11.0533                 5.4229

                     13                     14                     15
                      A                      A                      A
 Frequencies --    272.5272               287.3395               298.8433
 Red. masses --      2.2477                 1.3528                 2.3658
 Frc consts  --      0.0984                 0.0658                 0.1245
 IR Inten    --     93.3693               233.8394                25.3136

                     16                     17                     18
                      A                      A                      A
 Frequencies --    311.0493               335.6559               370.0374
 Red. masses --      2.2202                 2.8672                 3.0006
 Frc consts  --      0.1266                 0.1903                 0.2421
 IR Inten    --      4.2053                 4.3449                 2.7017

                     19                     20                     21
                      A                      A                      A
 Frequencies --    406.2561               427.9334               435.2115
 Red. masses --      5.9456                 2.9339                 2.8864
 Frc consts  --      0.5782                 0.3166                 0.3221
 IR Inten    --     20.2118                 3.2374                18.6664

                     22                     23                     24
                      A                      A                      A
 Frequencies --    510.7340               553.8341               561.4065
 Red. masses --      1.2112                 3.6599                 3.0761
 Frc consts  --      0.1861                 0.6614                 0.5712
 IR Inten    --      8.4662                79.3458                67.4827

                     25                     26                     27
                      A                      A                      A
 Frequencies --    613.0543               638.8909               670.4785
 Red. masses --      3.4627                 6.3566                 3.0096
 Frc consts  --      0.7668                 1.5287                 0.7971
 IR Inten    --     10.2483                 1.1313                39.2071

                     28                     29                     30
                      A                      A                      A
 Frequencies --    699.2989               729.1676               781.6280
 Red. masses --      1.7843                 1.6359                 7.9812
 Frc consts  --      0.5141                 0.5125                 2.8729
 IR Inten    --     73.7359                77.4646                50.0469

                     31                     32                     33
                      A                      A                      A
 Frequencies --    795.0162               820.2241               879.8911
 Red. masses --      2.0684                 3.6994                 1.2426
 Frc consts  --      0.7702                 1.4664                 0.5668
 IR Inten    --     44.9596                32.7736                 0.5205

                     34                     35                     36
                      A                      A                      A
 Frequencies --    961.6308              1000.1088              1000.6025
 Red. masses --      1.3908                 1.7559                 1.4312
 Frc consts  --      0.7577                 1.0347                 0.8443
 IR Inten    --     17.5973                33.2098                32.6012

                     37                     38                     39
                      A                      A                      A
 Frequencies --   1020.6546              1026.7548              1030.1902
 Red. masses --      1.4633                 3.9601                 1.4923
 Frc consts  --      0.8982                 2.4597                 0.9331
 IR Inten    --     10.8039                 3.3521                33.7111

                     40                     41                     42
                      A                      A                      A
 Frequencies --   1037.5371              1057.7603              1065.3556
 Red. masses --      1.8657                 1.6816                 1.7838
 Frc consts  --      1.1833                 1.1085                 1.1929
 IR Inten    --    108.9267                22.4586                 9.5745

                     43                     44                     45
                      A                      A                      A
 Frequencies --   1081.3239              1091.0839              1101.4584
 Red. masses --      1.7240                 3.3245                 1.7103
 Frc consts  --      1.1876                 2.3318                 1.2225
 IR Inten    --     63.4121                28.5886                29.5980

                     46                     47                     48
                      A                      A                      A
 Frequencies --   1123.2544              1129.9098              1184.6266
 Red. masses --      1.8500                 2.0185                 1.1259
 Frc consts  --      1.3752                 1.5184                 0.9310
 IR Inten    --     15.8248                10.3775                 0.0369

                     49                     50                     51
                      A                      A                      A
 Frequencies --   1210.9936              1223.2745              1265.2623
 Red. masses --      1.2873                 1.2096                 4.3214
 Frc consts  --      1.1123                 1.0664                 4.0761
 IR Inten    --     34.1659                19.5994                27.5575

                     52                     53                     54
                      A                      A                      A
 Frequencies --   1320.0849              1352.0247              1369.6271
 Red. masses --      4.2460                 1.5074                 1.3474
 Frc consts  --      4.3595                 1.6235                 1.4892
 IR Inten    --      3.5705                10.7862                 4.3044

                     55                     56                     57
                      A                      A                      A
 Frequencies --   1388.0999              1403.5070              1420.1528
 Red. masses --      3.2020                 3.6792                 1.3475
 Frc consts  --      3.6351                 4.2700                 1.6012
 IR Inten    --     13.8787               981.5732               157.5187

                     58                     59                     60
                      A                      A                      A
 Frequencies --   1453.1611              1483.8032              1491.1756
 Red. masses --      1.2112                 1.2167                 1.2818
 Frc consts  --      1.5070                 1.5783                 1.6793
 IR Inten    --     17.2827                14.7125                12.5307

                     61                     62                     63
                      A                      A                      A
 Frequencies --   1495.4128              1497.9667              1505.8067
 Red. masses --      1.4499                 1.0618                 1.0372
 Frc consts  --      1.9103                 1.4037                 1.3856
 IR Inten    --     67.9604                 4.6958                10.0914

                     64                     65                     66
                      A                      A                      A
 Frequencies --   1543.4581              1592.6489              1629.4450
 Red. masses --      2.2242                 2.8979                 1.3367
 Frc consts  --      3.1219                 4.3309                 2.0910
 IR Inten    --     20.5777               420.0311               457.2649

                     67                     68                     69
                      A                      A                      A
 Frequencies --   1651.6232              1654.2559              1673.9064
 Red. masses --      2.4667                 1.8891                 5.9149
 Frc consts  --      3.9645                 3.0458                 9.7647
 IR Inten    --      4.1263                26.4431                 3.3778

                     70                     71                     72
                      A                      A                      A
 Frequencies --   3062.7491              3071.5187              3134.8215
 Red. masses --      1.0335                 1.0379                 1.1038
 Frc consts  --      5.7117                 5.7692                 6.3907
 IR Inten    --     51.1701                10.4366                14.5723

                     73                     74                     75
                      A                      A                      A
 Frequencies --   3146.3127              3159.5290              3169.8120
 Red. masses --      1.0986                 1.1052                 1.1038
 Frc consts  --      6.4078                 6.5001                 6.5342
 IR Inten    --     13.9906                21.4422                23.2493

                     76                     77                     78
                      A                      A                      A
 Frequencies --   3195.4284              3202.8079              3212.0574
 Red. masses --      1.0857                 1.0886                 1.0924
 Frc consts  --      6.5314                 6.5795                 6.6405
 IR Inten    --      1.6992                 4.5474                33.0228

                     79                     80                     81
                      A                      A                      A
 Frequencies --   3220.8976              3227.0358              3444.4389
 Red. masses --      1.0953                 1.0961                 1.0619
 Frc consts  --      6.6950                 6.7255                 7.4227
 IR Inten    --     27.9670                 9.6081                92.5938

                     82                     83                     84
                      A                      A                      A
 Frequencies --   3603.8513              3623.5446              3745.7779
 Red. masses --      1.0859                 1.0456                 1.1038
 Frc consts  --      8.3098                 8.0891                 9.1251
 IR Inten    --     67.3859                72.5704                84.4426

 - Thermochemistry -
 -------------------
 Temperature   298.150 Kelvin.  Pressure   1.00000 Atm.
 Atom     1 has atomic number  6 and mass  12.00000

 Molecular mass:   270.03677 amu.
 Principal axes and moments of inertia in atomic units:
                           1         2         3
     Eigenvalues --  2467.503195869.250796213.66103
           X            0.99937  -0.00806  -0.03451
           Y            0.00903   0.99956   0.02810
           Z            0.03427  -0.02839   0.99901
 This molecule is an asymmetric top.
 Rotational symmetry number  1.
 Warning -- assumption of classical behavior for rotation
           may cause significant error
 Rotational temperatures (Kelvin)      0.03510     0.01476     0.01394
 Rotational constants (GHZ):           0.73140     0.30749     0.29045
    1 imaginary frequencies ignored.
 Zero-point vibrational energy     650324.0 (Joules/Mol)
                                  155.43116 (Kcal/Mol)
 Warning -- explicit consideration of  24 degrees of freedom as
           vibrations may cause significant error
 Vibrational temperatures:     85.52    88.64   103.94   123.60   153.77
          (Kelvin)            205.38   240.72   288.93   293.30   301.48
                              371.68   392.11   413.42   429.97   447.53
                              482.93   532.40   584.51   615.70   626.17
                              734.83   796.84   807.74   882.05   919.22
                              964.67  1006.14  1049.11  1124.59  1143.85
                             1180.12  1265.97  1383.57  1438.93  1439.64
                             1468.49  1477.27  1482.21  1492.78  1521.88
                             1532.81  1555.78  1569.83  1584.75  1616.11
                             1625.69  1704.41  1742.35  1760.02  1820.43
                             1899.31  1945.26  1970.59  1997.17  2019.33
                             2043.28  2090.77  2134.86  2145.47  2151.57
                             2155.24  2166.52  2220.69  2291.47  2344.41
                             2376.32  2380.11  2408.38  4406.61  4419.23
                             4510.31  4526.84  4545.86  4560.65  4597.51
                             4608.13  4621.43  4634.15  4642.98  4955.78
                             5185.14  5213.47  5389.34

 Zero-point correction=                           0.247695 (Hartree/Particle)
 Thermal correction to Energy=                    0.263234
 Thermal correction to Enthalpy=                  0.264178
 Thermal correction to Gibbs Free Energy=         0.204666
 Sum of electronic and zero-point Energies=          -3186.910536
 Sum of electronic and thermal Energies=             -3186.894997
 Sum of electronic and thermal Enthalpies=           -3186.894053
 Sum of electronic and thermal Free Energies=        -3186.953565

                     E (Thermal)             CV                S
                      KCal/Mol        Cal/Mol-Kelvin    Cal/Mol-Kelvin
 Total                  165.182             58.168            125.253
 Electronic               0.000              0.000              0.000
 Translational            0.889              2.981             42.679
 Rotational               0.889              2.981             32.864
 Vibrational            163.404             52.206             49.710
 Vibration     1          0.597              1.974              4.476
 Vibration     2          0.597              1.973              4.405
 Vibration     3          0.598              1.967              4.091
 Vibration     4          0.601              1.959              3.751
 Vibration     5          0.606              1.944              3.325
 Vibration     6          0.616              1.910              2.767
 Vibration     7          0.624              1.883              2.465
 Vibration     8          0.638              1.839              2.126
 Vibration     9          0.640              1.834              2.098
 Vibration    10          0.642              1.826              2.048
 Vibration    11          0.667              1.749              1.673
 Vibration    12          0.676              1.724              1.580
 Vibration    13          0.685              1.697              1.490
 Vibration    14          0.692              1.676              1.423
 Vibration    15          0.700              1.653              1.357
 Vibration    16          0.717              1.604              1.233
 Vibration    17          0.742              1.534              1.080
 Vibration    18          0.771              1.457              0.940
 Vibration    19          0.789              1.409              0.865
 Vibration    20          0.796              1.393              0.842
 Vibration    21          0.866              1.226              0.632
 Vibration    22          0.909              1.131              0.536
 Vibration    23          0.917              1.115              0.521
 Vibration    24          0.972              1.004              0.428

 Optimization completed.
    -- Stationary point found.
 Normal termination of Gaussian 16 at Sun Feb 14 15:08:52 2021.
