 Gaussian 16, Revision A.03,
 Gaussian 16:  ES64L-G16RevA.03 25-Dec-2016

 ----------------------------------------------------------------------
 # wB97XD def2tzvp, opt=(ts, noeigen, calcfc, maxcycles=70, maxstep=8),
  freq=noraman, scrf=(iefpcm, solvent=water)
 ----------------------------------------------------------------------

 ------------------------
 1_iteration/TS-499-1.out
 ------------------------
 Symbolic Z-matrix:
 Charge =  0 Multiplicity = 1

 SCF Done:  E(RwB97XD) =  -461.115382446     A.U. after   14 cycles
 SCF Done:  E(RwB97XD) =  -461.117471349     A.U. after   13 cycles
 SCF Done:  E(RwB97XD) =  -461.118627803     A.U. after   12 cycles
 SCF Done:  E(RwB97XD) =  -461.119436937     A.U. after   13 cycles
 SCF Done:  E(RwB97XD) =  -461.119586484     A.U. after   12 cycles
 SCF Done:  E(RwB97XD) =  -461.119684528     A.U. after   12 cycles
 SCF Done:  E(RwB97XD) =  -461.119685544     A.U. after   11 cycles
 SCF Done:  E(RwB97XD) =  -461.119675977     A.U. after   11 cycles
 SCF Done:  E(RwB97XD) =  -461.119703536     A.U. after   12 cycles
 SCF Done:  E(RwB97XD) =  -461.119729582     A.U. after   10 cycles
 SCF Done:  E(RwB97XD) =  -461.119731998     A.U. after   10 cycles
 SCF Done:  E(RwB97XD) =  -461.119734080     A.U. after   10 cycles
 SCF Done:  E(RwB97XD) =  -461.119733471     A.U. after   10 cycles
 SCF Done:  E(RwB97XD) =  -461.119734241     A.U. after   10 cycles
 Optimization completed.
    -- Stationary point found.
 Normal termination of Gaussian 16 at Sat Feb 13 23:54:36 2021.

 ---------------------------------------------------------------------
 #N Geom=AllCheck Guess=TCheck SCRF=Check GenChk RwB97XD/def2TZVP Freq
 ---------------------------------------------------------------------

 Structure from the checkpoint file:  "/beegfs/scratch/user/q/tla25/Gau-93814.chk"
 ------------------------
 1_iteration/TS-499-1.out
 ------------------------
 Charge =  0 Multiplicity = 1

                         Standard orientation:
 ---------------------------------------------------------------------
 Center     Atomic      Atomic             Coordinates (Angstroms)
 Number     Number       Type             X           Y           Z
 ---------------------------------------------------------------------
      1          6           0        0.806170    0.570443    0.034397
      2          6           0        1.575417   -0.627016    0.050113
      3          8           0        1.098894   -1.776853    0.222935
      4          6           0       -0.554230    0.519983    0.451414
      5          6           0       -2.789303   -1.016029   -0.814203
      6          1           0       -3.047469   -1.646175   -1.667676
      7          1           0       -2.980308   -1.574968    0.099537
      8          1           0       -3.425854   -0.132199   -0.825738
      9          7           0       -1.387689   -0.609884   -0.848641
     10          1           0       -0.744960   -1.391771   -0.723134
     11          1           0       -1.153152   -0.146149   -1.717442
     12          6           0       -1.364955    1.785926    0.303754
     13          1           0       -0.988002    2.534200    1.004770
     14          1           0       -1.300038    2.208113   -0.698063
     15          1           0       -2.412973    1.606292    0.542828
     16          6           0       -0.935098   -0.232387    1.709118
     17          1           0       -0.656774    0.393133    2.560872
     18          1           0       -2.011904   -0.396402    1.769160
     19          1           0       -0.414607   -1.181236    1.786617
     20          6           0        1.310632    1.801569   -0.688375
     21          1           0        1.228264    2.713265   -0.088606
     22          1           0        2.356919    1.704780   -0.972223
     23          1           0        0.766385    1.993062   -1.622212
     24          7           0        2.936947   -0.555111   -0.228901
     25          1           0        3.429501    0.278062    0.044746
     26          1           0        3.427221   -1.407157   -0.011439
 ---------------------------------------------------------------------

 SCF Done:  E(RwB97XD) =  -461.119734241     A.U. after    1 cycles

 The electronic state is 1-A.
 Alpha  occ. eigenvalues --  -19.18499 -14.46690 -14.42187 -10.35743 -10.33802
 Alpha  occ. eigenvalues --  -10.31264 -10.27433 -10.26562 -10.26473 -10.23833
 Alpha  occ. eigenvalues --   -1.10454  -1.02493  -0.97329  -0.91295  -0.83006
 Alpha  occ. eigenvalues --   -0.79135  -0.78415  -0.73848  -0.67645  -0.62224
 Alpha  occ. eigenvalues --   -0.61128  -0.58748  -0.56009  -0.55245  -0.53778
 Alpha  occ. eigenvalues --   -0.52257  -0.50205  -0.49772  -0.48554  -0.47247
 Alpha  occ. eigenvalues --   -0.46866  -0.46137  -0.45221  -0.45152  -0.42998
 Alpha  occ. eigenvalues --   -0.42027  -0.39491  -0.34335  -0.32143  -0.24707
 Alpha virt. eigenvalues --    0.07467   0.09883   0.12787   0.13920   0.14328
 Alpha virt. eigenvalues --    0.15439   0.16739   0.17322   0.17602   0.18175
 Alpha virt. eigenvalues --    0.18982   0.19938   0.20142   0.21100   0.21398

 Mulliken charges:
               1
     1  C   -0.304383
     2  C    0.377844
     3  O   -0.617274
     4  C    0.181731
     5  C   -0.292479
     6  H    0.148912
     7  H    0.152050
     8  H    0.148444
     9  N   -0.323612
    10  H    0.268056
    11  H    0.269982
    12  C   -0.377253
    13  H    0.150069
    14  H    0.137333
    15  H    0.139208
    16  C   -0.407587
    17  H    0.130320
    18  H    0.124515
    19  H    0.150817
    20  C   -0.388685
    21  H    0.119134
    22  H    0.106758
    23  H    0.114113
    24  N   -0.516769
    25  H    0.260843
    26  H    0.247915
 Sum of Mulliken charges =  -0.00000

 Dipole moment (field-independent basis, Debye):
    X=             -4.3596    Y=              2.6759    Z=             -1.6462  Tot=              5.3737
 Quadrupole moment (field-independent basis, Debye-Ang):
   XX=            -50.7109   YY=            -68.9864   ZZ=            -62.0593
   XY=              4.9648   XZ=              4.8837   YZ=              2.0751

  Exact polarizability: 183.662  -0.050 146.962   2.231   1.050 123.768
 Approx polarizability: 134.533   1.371 121.039   1.554   1.023 104.053

 ******    1 imaginary frequencies (negative Signs) ******

                      1                      2                      3
                      A                      A                      A
 Frequencies --   -393.3891                62.2519                72.7033
 Red. masses --      5.6445                 2.8933                 1.9532
 Frc consts  --      0.5147                 0.0066                 0.0061
 IR Inten    --    798.3074                13.7930                 7.8025

                      4                      5                      6
                      A                      A                      A
 Frequencies --    112.2693               124.5017               134.3671
 Red. masses --      1.5737                 1.6627                 2.9420
 Frc consts  --      0.0117                 0.0152                 0.0313
 IR Inten    --     12.3095                 7.5755                14.5691

                      7                      8                      9
                      A                      A                      A
 Frequencies --    166.1695               222.0359               244.5394
 Red. masses --      1.1285                 2.4428                 1.7817
 Frc consts  --      0.0184                 0.0710                 0.0628
 IR Inten    --      0.2398                 3.9272                33.6700

                     10                     11                     12
                      A                      A                      A
 Frequencies --    251.8229               271.5115               294.4164
 Red. masses --      2.1791                 1.1243                 2.0960
 Frc consts  --      0.0814                 0.0488                 0.1070
 IR Inten    --     17.7069                 2.2068                 3.3268

                     13                     14                     15
                      A                      A                      A
 Frequencies --    352.2462               372.6757               388.9304
 Red. masses --      2.6476                 3.4191                 2.3201
 Frc consts  --      0.1936                 0.2798                 0.2068
 IR Inten    --     28.3827                10.3855                15.5683

                     16                     17                     18
                      A                      A                      A
 Frequencies --    421.1762               454.1004               484.6634
 Red. masses --      3.0815                 1.3030                 2.0616
 Frc consts  --      0.3221                 0.1583                 0.2853
 IR Inten    --     25.1329                56.8282                58.8884

                     19                     20                     21
                      A                      A                      A
 Frequencies --    504.9697               547.0672               609.9897
 Red. masses --      1.4666                 2.3907                 4.0759
 Frc consts  --      0.2203                 0.4216                 0.8936
 IR Inten    --    370.8407                34.7450                65.8312

                     22                     23                     24
                      A                      A                      A
 Frequencies --    698.2647               699.8148               794.9447
 Red. masses --      1.3878                 2.5729                 9.0856
 Frc consts  --      0.3987                 0.7424                 3.3828
 IR Inten    --     18.4822                32.4434                67.5534

                     25                     26                     27
                      A                      A                      A
 Frequencies --    892.9680               946.5070              1007.1154
 Red. masses --      2.4345                 1.3743                 1.4122
 Frc consts  --      1.1438                 0.7254                 0.8439
 IR Inten    --     31.8582                 0.9098                35.6834

                     28                     29                     30
                      A                      A                      A
 Frequencies --   1013.4543              1034.2482              1050.5044
 Red. masses --      1.2477                 1.1792                 1.5840
 Frc consts  --      0.7550                 0.7431                 1.0299
 IR Inten    --     16.9595                66.4023                95.6756

                     31                     32                     33
                      A                      A                      A
 Frequencies --   1057.8521              1063.8865              1089.6459
 Red. masses --      1.8475                 1.2671                 1.7615
 Frc consts  --      1.2181                 0.8450                 1.2322
 IR Inten    --      6.1751               301.9866                74.9716

                     34                     35                     36
                      A                      A                      A
 Frequencies --   1112.5510              1162.3807              1178.9012
 Red. masses --      1.9600                 1.9374                 3.4313
 Frc consts  --      1.4294                 1.5423                 2.8097
 IR Inten    --     15.5974                48.5373                 7.6716

                     37                     38                     39
                      A                      A                      A
 Frequencies --   1213.3447              1282.0681              1346.9728
 Red. masses --      1.3822                 3.0812                 1.3584
 Frc consts  --      1.1990                 2.9840                 1.4521
 IR Inten    --     59.1949                42.2595                26.6699

                     40                     41                     42
                      A                      A                      A
 Frequencies --   1377.3160              1402.0640              1406.1928
 Red. masses --      2.0490                 1.6133                 2.2836
 Frc consts  --      2.2901                 1.8686                 2.6605
 IR Inten    --     28.6456                19.3337               554.2244

                     43                     44                     45
                      A                      A                      A
 Frequencies --   1422.0507              1432.5195              1461.9162
 Red. masses --      1.4281                 1.4350                 1.2511
 Frc consts  --      1.7015                 1.7350                 1.5753
 IR Inten    --    138.9718               250.2801                59.4777

                     46                     47                     48
                      A                      A                      A
 Frequencies --   1473.8651              1483.6889              1485.2470
 Red. masses --      1.0635                 1.0624                 1.0686
 Frc consts  --      1.3611                 1.3779                 1.3889
 IR Inten    --     24.2868                 7.1514                 5.5782

                     49                     50                     51
                      A                      A                      A
 Frequencies --   1493.3014              1499.7798              1507.5961
 Red. masses --      1.0422                 1.0641                 1.0455
 Frc consts  --      1.3693                 1.4102                 1.4001
 IR Inten    --     17.8294                36.3524                25.8871

                     52                     53                     54
                      A                      A                      A
 Frequencies --   1509.8663              1511.5563              1591.0228
 Red. masses --      1.1762                 1.0519                 3.6074
 Frc consts  --      1.5798                 1.4160                 5.3801
 IR Inten    --     85.0126                14.1820               553.8969

                     55                     56                     57
                      A                      A                      A
 Frequencies --   1634.1263              1659.1371              3000.0106
 Red. masses --      1.3517                 1.0864                 1.0531
 Frc consts  --      2.1266                 1.7620                 5.5843
 IR Inten    --    252.2516                43.5006               115.6576

                     58                     59                     60
                      A                      A                      A
 Frequencies --   3050.4991              3057.1733              3059.1509
 Red. masses --      1.0908                 1.0394                 1.0372
 Frc consts  --      5.9804                 5.7236                 5.7189
 IR Inten    --     75.6365                29.1357                59.7824

                     61                     62                     63
                      A                      A                      A
 Frequencies --   3062.2969              3119.2997              3131.3687
 Red. masses --      1.0381                 1.0996                 1.0996
 Frc consts  --      5.7359                 6.3039                 6.3525
 IR Inten    --     47.6126                30.6321                39.3658

                     64                     65                     66
                      A                      A                      A
 Frequencies --   3133.2537              3141.7258              3152.1007
 Red. masses --      1.1008                 1.0919                 1.1031
 Frc consts  --      6.3670                 6.3501                 6.4573
 IR Inten    --     19.9387                42.8751                29.7792

                     67                     68                     69
                      A                      A                      A
 Frequencies --   3164.5452              3183.2866              3434.0140
 Red. masses --      1.1046                 1.1006                 1.0638
 Frc consts  --      6.5176                 6.5711                 7.3912
 IR Inten    --     19.3858                 5.0985               101.3143

                     70                     71                     72
                      A                      A                      A
 Frequencies --   3586.1526              3600.8480              3710.4584
 Red. masses --      1.0861                 1.0472                 1.0999
 Frc consts  --      8.2293                 7.9999                 8.9217
 IR Inten    --     45.5625                40.4828                34.0395

 - Thermochemistry -
 -------------------
 Temperature   298.150 Kelvin.  Pressure   1.00000 Atm.
 Atom     1 has atomic number  6 and mass  12.00000

 Molecular mass:   144.12626 amu.
 Principal axes and moments of inertia in atomic units:
                           1         2         3
     Eigenvalues --  1036.794271860.420422259.48388
           X            0.99943   0.03374  -0.00239
           Y           -0.03376   0.99938  -0.00990
           Z            0.00205   0.00998   0.99995
 This molecule is an asymmetric top.
 Rotational symmetry number  1.
 Warning -- assumption of classical behavior for rotation
           may cause significant error
 Rotational temperatures (Kelvin)      0.08354     0.04656     0.03833
 Rotational constants (GHZ):           1.74069     0.97007     0.79874
    1 imaginary frequencies ignored.
 Zero-point vibrational energy     608153.1 (Joules/Mol)
                                  145.35209 (Kcal/Mol)
 Warning -- explicit consideration of  20 degrees of freedom as
           vibrations may cause significant error
 Vibrational temperatures:     89.57   104.60   161.53   179.13   193.32
          (Kelvin)            239.08   319.46   351.84   362.32   390.64
                              423.60   506.80   536.20   559.58   605.98
                              653.35   697.32   726.54   787.11   877.64
                             1004.65  1006.88  1143.75  1284.78  1361.81
                             1449.01  1458.13  1488.05  1511.44  1522.01
                             1530.70  1567.76  1600.71  1672.41  1696.18
                             1745.73  1844.61  1937.99  1981.65  2017.26
                             2023.20  2046.01  2061.08  2103.37  2120.56
                             2134.70  2136.94  2148.53  2157.85  2169.09
                             2172.36  2174.79  2289.13  2351.14  2387.13
                             4316.35  4388.99  4398.59  4401.44  4405.96
                             4487.98  4505.34  4508.05  4520.24  4535.17
                             4553.07  4580.04  4940.78  5159.67  5180.82
                             5338.52

 Zero-point correction=                           0.231633 (Hartree/Particle)
 Thermal correction to Energy=                    0.244321
 Thermal correction to Enthalpy=                  0.245265
 Thermal correction to Gibbs Free Energy=         0.193697
 Sum of electronic and zero-point Energies=           -460.888101
 Sum of electronic and thermal Energies=              -460.875413
 Sum of electronic and thermal Enthalpies=            -460.874469
 Sum of electronic and thermal Free Energies=         -460.926037

                     E (Thermal)             CV                S
                      KCal/Mol        Cal/Mol-Kelvin    Cal/Mol-Kelvin
 Total                  153.314             46.512            108.534
 Electronic               0.000              0.000              0.000
 Translational            0.889              2.981             40.808
 Rotational               0.889              2.981             29.856
 Vibrational            151.536             40.551             37.870
 Vibration     1          0.597              1.972              4.384
 Vibration     2          0.599              1.967              4.079
 Vibration     3          0.607              1.939              3.229
 Vibration     4          0.610              1.928              3.029
 Vibration     5          0.613              1.919              2.883
 Vibration     6          0.624              1.884              2.478
 Vibration     7          0.648              1.808              1.942
 Vibration     8          0.660              1.772              1.770
 Vibration     9          0.664              1.760              1.718
 Vibration    10          0.675              1.726              1.587
 Vibration    11          0.689              1.684              1.448
 Vibration    12          0.729              1.571              1.156
 Vibration    13          0.744              1.528              1.069
 Vibration    14          0.757              1.494              1.004
 Vibration    15          0.784              1.424              0.888
 Vibration    16          0.813              1.352              0.783
 Vibration    17          0.841              1.284              0.698
 Vibration    18          0.860              1.239              0.646
 Vibration    19          0.902              1.146              0.550
 Vibration    20          0.969              1.011              0.433

 Optimization completed.
    -- Stationary point found.
 Normal termination of Gaussian 16 at Sun Feb 14 00:18:41 2021.
