 Gaussian 16, Revision A.03,
 Gaussian 16:  ES64L-G16RevA.03 25-Dec-2016

 ----------------------------------------------------------------------
 # wB97XD def2tzvp, opt=(ts, noeigen, calcfc, maxcycles=70, maxstep=8),
  freq=noraman, scrf=(iefpcm, solvent=water)
 ----------------------------------------------------------------------

 ------------------------
 1_iteration/TS-498-1.out
 ------------------------
 Symbolic Z-matrix:
 Charge =  0 Multiplicity = 1

 SCF Done:  E(RwB97XD) =  -445.048050507     A.U. after   14 cycles
 SCF Done:  E(RwB97XD) =  -445.050039121     A.U. after   13 cycles
 SCF Done:  E(RwB97XD) =  -445.050771533     A.U. after   13 cycles
 SCF Done:  E(RwB97XD) =  -445.050716212     A.U. after   13 cycles
 SCF Done:  E(RwB97XD) =  -445.050965000     A.U. after   12 cycles
 SCF Done:  E(RwB97XD) =  -445.051178644     A.U. after   12 cycles
 SCF Done:  E(RwB97XD) =  -445.051082415     A.U. after   11 cycles
 SCF Done:  E(RwB97XD) =  -445.051177503     A.U. after   11 cycles
 SCF Done:  E(RwB97XD) =  -445.051186493     A.U. after   10 cycles
 SCF Done:  E(RwB97XD) =  -445.051187465     A.U. after   10 cycles
 SCF Done:  E(RwB97XD) =  -445.051154383     A.U. after   11 cycles
 SCF Done:  E(RwB97XD) =  -445.051192168     A.U. after   11 cycles
 SCF Done:  E(RwB97XD) =  -445.051190394     A.U. after   10 cycles
 SCF Done:  E(RwB97XD) =  -445.051192053     A.U. after    9 cycles
 Optimization completed.
    -- Stationary point found.
 Normal termination of Gaussian 16 at Sat Feb 13 23:59:37 2021.

 ---------------------------------------------------------------------
 #N Geom=AllCheck Guess=TCheck SCRF=Check GenChk RwB97XD/def2TZVP Freq
 ---------------------------------------------------------------------

 Structure from the checkpoint file:  "/beegfs/scratch/user/q/tla25/Gau-11382.chk"
 ------------------------
 1_iteration/TS-498-1.out
 ------------------------
 Charge =  0 Multiplicity = 1

                         Standard orientation:
 ---------------------------------------------------------------------
 Center     Atomic      Atomic             Coordinates (Angstroms)
 Number     Number       Type             X           Y           Z
 ---------------------------------------------------------------------
      1          6           0        0.752925    0.566069    0.068105
      2          6           0        1.857374   -0.298439   -0.129168
      3          8           0        2.981789    0.121043   -0.499132
      4          6           0       -0.558767    0.196049    0.522738
      5          6           0       -2.919842   -0.643538   -0.990077
      6          1           0       -3.285036   -0.871584   -1.991783
      7          1           0       -3.032392   -1.524260   -0.361975
      8          1           0       -3.509721    0.170578   -0.575596
      9          7           0       -1.507192   -0.250669   -1.020794
     10          1           0       -0.933145   -0.986287   -1.417419
     11          1           0       -1.371576    0.566720   -1.605511
     12          6           0       -1.415565    1.344436    1.027040
     13          1           0       -0.964773    1.730452    1.943724
     14          1           0       -1.479141    2.168270    0.319412
     15          1           0       -2.424385    1.013128    1.269543
     16          6           0       -0.814667   -1.043167    1.362347
     17          1           0       -0.202373   -0.992121    2.263447
     18          1           0       -1.858103   -1.079533    1.673941
     19          1           0       -0.586142   -1.974895    0.855983
     20          6           0        0.968540    2.012531   -0.327160
     21          1           0        0.883682    2.708441    0.514256
     22          1           0        1.967804    2.119321   -0.742373
     23          1           0        0.258226    2.358538   -1.088314
     24          6           0        1.779324   -1.807977    0.081165
     25          1           0        0.959462   -2.274089   -0.467198
     26          1           0        2.714100   -2.235973   -0.275804
     27          1           0        1.663610   -2.066149    1.134337
 ---------------------------------------------------------------------

 SCF Done:  E(RwB97XD) =  -445.051192053     A.U. after    1 cycles

 The electronic state is 1-A.
 Alpha  occ. eigenvalues --  -19.17599 -14.49047 -10.34953 -10.32858 -10.32036
 Alpha  occ. eigenvalues --  -10.27707 -10.27657 -10.26335 -10.25450 -10.24026
 Alpha  occ. eigenvalues --   -1.07964  -1.04528  -0.91861  -0.83172  -0.82033
 Alpha  occ. eigenvalues --   -0.79498  -0.78763  -0.72857  -0.66041  -0.63392
 Alpha  occ. eigenvalues --   -0.59530  -0.56374  -0.55928  -0.54553  -0.52809
 Alpha  occ. eigenvalues --   -0.50798  -0.49841  -0.48799  -0.48520  -0.47967
 Alpha  occ. eigenvalues --   -0.47252  -0.46526  -0.45529  -0.44724  -0.41891
 Alpha  occ. eigenvalues --   -0.41503  -0.40711  -0.40257  -0.30021  -0.25076
 Alpha virt. eigenvalues --    0.07146   0.09143   0.12701   0.13057   0.13859
 Alpha virt. eigenvalues --    0.14916   0.16412   0.16972   0.17464   0.17607
 Alpha virt. eigenvalues --    0.18587   0.19634   0.20043   0.20689   0.21050

 Mulliken charges:
               1
     1  C   -0.143871
     2  C    0.186655
     3  O   -0.585642
     4  C    0.057655
     5  C   -0.299726
     6  H    0.159376
     7  H    0.161984
     8  H    0.159096
     9  N   -0.272736
    10  H    0.275803
    11  H    0.282508
    12  C   -0.384886
    13  H    0.152479
    14  H    0.148780
    15  H    0.140554
    16  C   -0.404976
    17  H    0.156082
    18  H    0.149049
    19  H    0.147833
    20  C   -0.422934
    21  H    0.117472
    22  H    0.124413
    23  H    0.107254
    24  C   -0.387505
    25  H    0.120070
    26  H    0.115565
    27  H    0.139649
 Sum of Mulliken charges =  -0.00000

 Dipole moment (field-independent basis, Debye):
    X=            -12.6390    Y=             -2.4159    Z=             -0.9062  Tot=             12.8997
 Quadrupole moment (field-independent basis, Debye-Ang):
   XX=            -79.7277   YY=            -62.1489   ZZ=            -59.3841
   XY=             -1.8817   XZ=              8.7889   YZ=              1.1108

  Exact polarizability: 200.237  -1.399 145.451  -2.103   0.377 129.448
 Approx polarizability: 149.776   0.588 115.585  -1.846   0.693 110.251

 ******    1 imaginary frequencies (negative Signs) ******

                      1                      2                      3
                      A                      A                      A
 Frequencies --   -356.1747                49.2640                72.8612
 Red. masses --      5.9099                 3.0425                 3.8859
 Frc consts  --      0.4417                 0.0044                 0.0122
 IR Inten    --    953.8760                 3.6869                 5.4358

                      4                      5                      6
                      A                      A                      A
 Frequencies --     91.8703               163.4990               176.5839
 Red. masses --      1.8441                 2.1945                 1.1656
 Frc consts  --      0.0092                 0.0346                 0.0214
 IR Inten    --      3.8486                 3.7394                 0.6325

                      7                      8                      9
                      A                      A                      A
 Frequencies --    207.1324               240.4458               246.5206
 Red. masses --      1.1922                 1.2205                 1.3513
 Frc consts  --      0.0301                 0.0416                 0.0484
 IR Inten    --      1.3008                 2.7050                 1.0664

                     10                     11                     12
                      A                      A                      A
 Frequencies --    270.0955               288.6813               296.5182
 Red. masses --      1.4359                 1.4985                 2.2619
 Frc consts  --      0.0617                 0.0736                 0.1172
 IR Inten    --      8.8255                 2.2289                 0.6723

                     13                     14                     15
                      A                      A                      A
 Frequencies --    306.7655               356.4106               377.4291
 Red. masses --      2.0565                 2.6092                 2.8920
 Frc consts  --      0.1140                 0.1953                 0.2427
 IR Inten    --      5.2514                 8.6965                27.9389

                     16                     17                     18
                      A                      A                      A
 Frequencies --    420.4441               439.4932               492.1778
 Red. masses --      3.0615                 2.4583                 3.1160
 Frc consts  --      0.3189                 0.2798                 0.4447
 IR Inten    --      6.3207                 6.5948               140.2157

                     19                     20                     21
                      A                      A                      A
 Frequencies --    545.1181               583.3289               638.1706
 Red. masses --      2.9872                 3.4926                 2.6328
 Frc consts  --      0.5230                 0.7002                 0.6317
 IR Inten    --      8.9601                28.4093                30.9323

                     22                     23                     24
                      A                      A                      A
 Frequencies --    683.4562               704.5373               882.8362
 Red. masses --      3.4260                 1.2619                 2.3487
 Frc consts  --      0.9429                 0.3690                 1.0786
 IR Inten    --     23.3924                21.5890                40.8156

                     25                     26                     27
                      A                      A                      A
 Frequencies --    955.6459               962.6619               994.7031
 Red. masses --      1.3592                 1.9604                 1.4171
 Frc consts  --      0.7313                 1.0704                 0.8261
 IR Inten    --      2.4241                80.6870               136.3894

                     28                     29                     30
                      A                      A                      A
 Frequencies --   1019.9402              1035.2015              1043.8305
 Red. masses --      1.2541                 1.4973                 1.5998
 Frc consts  --      0.7687                 0.9454                 1.0270
 IR Inten    --     15.0222                12.9038                10.8209

                     31                     32                     33
                      A                      A                      A
 Frequencies --   1051.1940              1065.8018              1075.3847
 Red. masses --      2.0729                 1.3775                 1.2283
 Frc consts  --      1.3496                 0.9219                 0.8369
 IR Inten    --     45.4649                 4.8270               249.7331

                     34                     35                     36
                      A                      A                      A
 Frequencies --   1108.9561              1112.0889              1170.1700
 Red. masses --      1.9087                 2.0961                 2.3480
 Frc consts  --      1.3830                 1.5273                 1.8943
 IR Inten    --     33.7425                36.6193                45.7468

                     37                     38                     39
                      A                      A                      A
 Frequencies --   1231.8671              1262.6398              1352.5641
 Red. masses --      3.3225                 1.3572                 1.2977
 Frc consts  --      2.9706                 1.2748                 1.3987
 IR Inten    --      1.2604                65.6618                 1.5289

                     40                     41                     42
                      A                      A                      A
 Frequencies --   1379.4872              1391.6366              1402.4560
 Red. masses --      1.3208                 2.2422                 1.5692
 Frc consts  --      1.4808                 2.5584                 1.8184
 IR Inten    --      3.8318               421.7767                37.5279

                     43                     44                     45
                      A                      A                      A
 Frequencies --   1411.0730              1428.6526              1432.8062
 Red. masses --      1.3078                 1.3497                 2.4273
 Frc consts  --      1.5343                 1.6231                 2.9359
 IR Inten    --     61.9441                34.2107               385.7011

                     46                     47                     48
                      A                      A                      A
 Frequencies --   1460.5500              1466.8997              1479.3063
 Red. masses --      1.1198                 1.2218                 1.0558
 Frc consts  --      1.4074                 1.5490                 1.3613
 IR Inten    --     48.8547                 2.6007                 4.3210

                     49                     50                     51
                      A                      A                      A
 Frequencies --   1488.2155              1491.8964              1496.0235
 Red. masses --      1.0642                 1.1409                 1.0474
 Frc consts  --      1.3887                 1.4962                 1.3811
 IR Inten    --      4.8465                78.9229                34.3680

                     52                     53                     54
                      A                      A                      A
 Frequencies --   1499.8978              1506.0848              1512.9116
 Red. masses --      1.0857                 1.0828                 1.0417
 Frc consts  --      1.4390                 1.4471                 1.4048
 IR Inten    --      6.5877                20.9434                14.8606

                     55                     56                     57
                      A                      A                      A
 Frequencies --   1516.0368              1519.0828              1566.2731
 Red. masses --      1.1213                 1.1067                 3.6743
 Frc consts  --      1.5185                 1.5047                 5.3108
 IR Inten    --    151.0515                26.5359               838.6975

                     58                     59                     60
                      A                      A                      A
 Frequencies --   1642.9676              3004.5907              3047.0030
 Red. masses --      1.0848                 1.0472                 1.0962
 Frc consts  --      1.7253                 5.5698                 5.9963
 IR Inten    --     45.6170               116.3186                80.4657

                     61                     62                     63
                      A                      A                      A
 Frequencies --   3061.4398              3067.4193              3075.4108
 Red. masses --      1.0366                 1.0384                 1.0359
 Frc consts  --      5.7243                 5.7567                 5.7728
 IR Inten    --     18.8932                18.3189                34.7369

                     64                     65                     66
                      A                      A                      A
 Frequencies --   3078.0418              3134.6263              3136.3600
 Red. masses --      1.0403                 1.1008                 1.1006
 Frc consts  --      5.8071                 6.3728                 6.3786
 IR Inten    --     36.8244                33.4530                 6.0370

                     67                     68                     69
                      A                      A                      A
 Frequencies --   3142.2275              3151.1825              3153.3711
 Red. masses --      1.1010                 1.1025                 1.0930
 Frc consts  --      6.4051                 6.4504                 6.4033
 IR Inten    --     61.5428                28.9235                21.9709

                     70                     71                     72
                      A                      A                      A
 Frequencies --   3155.0851              3163.4164              3181.1210
 Red. masses --      1.1020                 1.1023                 1.1061
 Frc consts  --      6.4635                 6.4991                 6.5951
 IR Inten    --     10.6805                32.0269                13.4903

                     73                     74                     75
                      A                      A                      A
 Frequencies --   3189.8019              3524.9204              3599.2269
 Red. masses --      1.0976                 1.0517                 1.0954
 Frc consts  --      6.5799                 7.6993                 8.3610
 IR Inten    --     13.9985                16.1137                39.3059

 - Thermochemistry -
 -------------------
 Temperature   298.150 Kelvin.  Pressure   1.00000 Atm.
 Atom     1 has atomic number  6 and mass  12.00000

 Molecular mass:   143.13101 amu.
 Principal axes and moments of inertia in atomic units:
                           1         2         3
     Eigenvalues --  1008.877012035.283922350.86470
           X            0.99996  -0.00457   0.00788
           Y            0.00467   0.99990  -0.01301
           Z           -0.00782   0.01304   0.99988
 This molecule is an asymmetric top.
 Rotational symmetry number  1.
 Warning -- assumption of classical behavior for rotation
           may cause significant error
 Rotational temperatures (Kelvin)      0.08585     0.04256     0.03684
 Rotational constants (GHZ):           1.78886     0.88673     0.76769
    1 imaginary frequencies ignored.
 Zero-point vibrational energy     639606.1 (Joules/Mol)
                                  152.86953 (Kcal/Mol)
 Warning -- explicit consideration of  19 degrees of freedom as
           vibrations may cause significant error
 Vibrational temperatures:     70.88   104.83   132.18   235.24   254.06
          (Kelvin)            298.02   345.95   354.69   388.61   415.35
                              426.62   441.37   512.80   543.04   604.93
                              632.33   708.13   784.30   839.28   918.19
                              983.34  1013.67  1270.20  1374.96  1385.06
                             1431.16  1467.47  1489.42  1501.84  1512.43
                             1533.45  1547.24  1595.54  1600.05  1683.61
                             1772.38  1816.66  1946.04  1984.77  2002.25
                             2017.82  2030.22  2055.51  2061.49  2101.41
                             2110.54  2128.39  2141.21  2146.51  2152.44
                             2158.02  2166.92  2176.74  2181.24  2185.62
                             2253.52  2363.86  4322.94  4383.96  4404.73
                             4413.33  4424.83  4428.62  4510.03  4512.52
                             4520.96  4533.85  4537.00  4539.46  4551.45
                             4576.92  4589.41  5071.57  5178.48

 Zero-point correction=                           0.243613 (Hartree/Particle)
 Thermal correction to Energy=                    0.256095
 Thermal correction to Enthalpy=                  0.257039
 Thermal correction to Gibbs Free Energy=         0.205845
 Sum of electronic and zero-point Energies=           -444.807579
 Sum of electronic and thermal Energies=              -444.795097
 Sum of electronic and thermal Enthalpies=            -444.794153
 Sum of electronic and thermal Free Energies=         -444.845347

                     E (Thermal)             CV                S
                      KCal/Mol        Cal/Mol-Kelvin    Cal/Mol-Kelvin
 Total                  160.702             46.302            107.746
 Electronic               0.000              0.000              0.000
 Translational            0.889              2.981             40.787
 Rotational               0.889              2.981             29.958
 Vibrational            158.925             40.340             37.002
 Vibration     1          0.595              1.978              4.847
 Vibration     2          0.599              1.967              4.075
 Vibration     3          0.602              1.955              3.620
 Vibration     4          0.623              1.887              2.509
 Vibration     5          0.628              1.871              2.364
 Vibration     6          0.641              1.830              2.069
 Vibration     7          0.658              1.778              1.800
 Vibration     8          0.661              1.769              1.755
 Vibration     9          0.674              1.728              1.596
 Vibration    10          0.685              1.695              1.482
 Vibration    11          0.690              1.680              1.436
 Vibration    12          0.697              1.661              1.380
 Vibration    13          0.732              1.562              1.138
 Vibration    14          0.748              1.518              1.049
 Vibration    15          0.783              1.426              0.890
 Vibration    16          0.800              1.384              0.828
 Vibration    17          0.848              1.267              0.678
 Vibration    18          0.900              1.150              0.554
 Vibration    19          0.940              1.067              0.479

 Optimization completed.
    -- Stationary point found.
 Normal termination of Gaussian 16 at Sun Feb 14 00:26:50 2021.
