 Gaussian 16, Revision A.03,
 Gaussian 16:  ES64L-G16RevA.03 25-Dec-2016

 ----------------------------------------------------------------------
 # wB97XD def2tzvp, opt=(ts, noeigen, calcfc, maxcycles=70, maxstep=8),
  freq=noraman, scrf=(iefpcm, solvent=water)
 ----------------------------------------------------------------------

 ------------------------
 1_iteration/TS-462-1.out
 ------------------------
 Symbolic Z-matrix:
 Charge =  0 Multiplicity = 1

 SCF Done:  E(RwB97XD) =  -500.407409139     A.U. after   15 cycles
 SCF Done:  E(RwB97XD) =  -500.409882301     A.U. after   13 cycles
 SCF Done:  E(RwB97XD) =  -500.411546177     A.U. after   12 cycles
 SCF Done:  E(RwB97XD) =  -500.412749070     A.U. after   12 cycles
 SCF Done:  E(RwB97XD) =  -500.413499036     A.U. after   12 cycles
 SCF Done:  E(RwB97XD) =  -500.413802236     A.U. after   12 cycles
 SCF Done:  E(RwB97XD) =  -500.413670466     A.U. after   12 cycles
 SCF Done:  E(RwB97XD) =  -500.413691293     A.U. after   11 cycles
 SCF Done:  E(RwB97XD) =  -500.413832027     A.U. after   11 cycles
 SCF Done:  E(RwB97XD) =  -500.413857785     A.U. after   11 cycles
 SCF Done:  E(RwB97XD) =  -500.413864106     A.U. after   10 cycles
 SCF Done:  E(RwB97XD) =  -500.413864183     A.U. after    9 cycles
 SCF Done:  E(RwB97XD) =  -500.413864300     A.U. after    7 cycles
 SCF Done:  E(RwB97XD) =  -500.413828543     A.U. after   10 cycles
 SCF Done:  E(RwB97XD) =  -500.413864264     A.U. after   10 cycles
 SCF Done:  E(RwB97XD) =  -500.413864320     A.U. after    7 cycles
 Optimization completed.
    -- Stationary point found.
 Normal termination of Gaussian 16 at Sun Feb 14 00:31:28 2021.

 ---------------------------------------------------------------------
 #N Geom=AllCheck Guess=TCheck SCRF=Check GenChk RwB97XD/def2TZVP Freq
 ---------------------------------------------------------------------

 Structure from the checkpoint file:  "/beegfs/scratch/user/q/tla25/Gau-73454.chk"
 ------------------------
 1_iteration/TS-462-1.out
 ------------------------
 Charge =  0 Multiplicity = 1

                         Standard orientation:
 ---------------------------------------------------------------------
 Center     Atomic      Atomic             Coordinates (Angstroms)
 Number     Number       Type             X           Y           Z
 ---------------------------------------------------------------------
      1          6           0        0.031782    0.699816   -0.020618
      2          6           0       -0.866279   -0.404919   -0.138933
      3          8           0       -0.461541   -1.570291   -0.389591
      4          6           0        1.327233    0.472481   -0.530560
      5          6           0        3.431319   -1.357578    0.121512
      6          1           0        3.684243   -2.260009    0.680206
      7          1           0        3.350690   -1.611413   -0.935940
      8          1           0        4.229897   -0.629049    0.246875
      9          7           0        2.166093   -0.780926    0.561432
     10          1           0        1.395865   -1.449001    0.515333
     11          1           0        2.216933   -0.393487    1.495409
     12          6           0        2.327424    1.593427   -0.601696
     13          1           0        1.959920    2.357185   -1.290128
     14          1           0        2.475246    2.068424    0.368749
     15          1           0        3.292642    1.248037   -0.970696
     16          1           0        1.367988   -0.196546   -1.386731
     17          6           0       -0.236935    1.875391    0.889763
     18          1           0       -0.355934    2.831945    0.366424
     19          1           0       -1.142151    1.718323    1.477038
     20          1           0        0.576368    2.016221    1.610307
     21          7           0       -2.221716   -0.214812    0.079562
     22          6           0       -2.902842    0.989137   -0.347654
     23          6           0       -3.075803   -1.375701    0.171200
     24          1           0       -2.187597    1.725224   -0.702516
     25          1           0       -3.588480    0.760268   -1.172250
     26          1           0       -3.488092    1.431235    0.464120
     27          1           0       -2.561019   -2.179506    0.691175
     28          1           0       -3.976320   -1.110438    0.729249
     29          1           0       -3.383897   -1.747241   -0.814942
 ---------------------------------------------------------------------

 SCF Done:  E(RwB97XD) =  -500.413864320     A.U. after    1 cycles

 The electronic state is 1-A.
 Alpha  occ. eigenvalues --  -19.18408 -14.46932 -14.43488 -10.35137 -10.32097
 Alpha  occ. eigenvalues --  -10.31376 -10.29906 -10.29502 -10.27415 -10.26270
 Alpha  occ. eigenvalues --  -10.23351  -1.10524  -1.02764  -1.00944  -0.89541
 Alpha  occ. eigenvalues --   -0.82613  -0.80012  -0.78597  -0.77151  -0.74397
 Alpha  occ. eigenvalues --   -0.66073  -0.62341  -0.60767  -0.57636  -0.55400
 Alpha  occ. eigenvalues --   -0.55044  -0.54379  -0.53958  -0.50868  -0.49703
 Alpha  occ. eigenvalues --   -0.48816  -0.47868  -0.47592  -0.47334  -0.46421
 Alpha  occ. eigenvalues --   -0.46142  -0.44808  -0.43684  -0.42663  -0.41849
 Alpha  occ. eigenvalues --   -0.40490  -0.32886  -0.30372  -0.24167
 Alpha virt. eigenvalues --    0.08643   0.09995   0.12179   0.13294   0.14274
 Alpha virt. eigenvalues --    0.15661   0.16286   0.16703   0.16869   0.17734
 Alpha virt. eigenvalues --    0.18409   0.19279   0.19388   0.19735   0.20870

 Mulliken charges:
               1
     1  C   -0.249852
     2  C    0.346906
     3  O   -0.622912
     4  C   -0.071721
     5  C   -0.295559
     6  H    0.149323
     7  H    0.146440
     8  H    0.154509
     9  N   -0.284713
    10  H    0.270684
    11  H    0.268563
    12  C   -0.328135
    13  H    0.138412
    14  H    0.125808
    15  H    0.139741
    16  H    0.125248
    17  C   -0.433219
    18  H    0.119112
    19  H    0.135172
    20  H    0.118754
    21  N   -0.151238
    22  C   -0.293303
    23  C   -0.291317
    24  H    0.150904
    25  H    0.123165
    26  H    0.133232
    27  H    0.130698
    28  H    0.129299
    29  H    0.115999
 Sum of Mulliken charges =  -0.00000

 Dipole moment (field-independent basis, Debye):
    X=              4.6476    Y=              1.5215    Z=              2.0918  Tot=              5.3189
 Quadrupole moment (field-independent basis, Debye-Ang):
   XX=            -50.2928   YY=            -74.1909   ZZ=            -68.9095
   XY=             -5.2484   XZ=              2.5622   YZ=             -3.3482

  Exact polarizability: 213.691  -4.967 164.239   2.560   1.514 131.046
 Approx polarizability: 150.605  -4.379 133.186   1.038   1.061 113.130

 ******    1 imaginary frequencies (negative Signs) ******

                      1                      2                      3
                      A                      A                      A
 Frequencies --   -403.2709                64.3544                74.9046
 Red. masses --      6.1320                 2.9132                 3.4429
 Frc consts  --      0.5875                 0.0071                 0.0114
 IR Inten    --    983.0583                 6.7982                11.0507

                      4                      5                      6
                      A                      A                      A
 Frequencies --     99.5245               111.6403               133.4595
 Red. masses --      2.2434                 1.7027                 2.0893
 Frc consts  --      0.0131                 0.0125                 0.0219
 IR Inten    --      1.8563                 4.0056                 5.4545

                      7                      8                      9
                      A                      A                      A
 Frequencies --    158.7249               171.1924               176.4366
 Red. masses --      1.9383                 1.1291                 1.2331
 Frc consts  --      0.0288                 0.0195                 0.0226
 IR Inten    --     36.0403                 1.6584                 2.2400

                     10                     11                     12
                      A                      A                      A
 Frequencies --    187.0394               218.9198               235.9479
 Red. masses --      1.4446                 2.0085                 1.8576
 Frc consts  --      0.0298                 0.0567                 0.0609
 IR Inten    --     11.5334                10.6159                 4.2134

                     13                     14                     15
                      A                      A                      A
 Frequencies --    238.8739               265.0491               294.9114
 Red. masses --      1.7016                 2.2590                 2.3245
 Frc consts  --      0.0572                 0.0935                 0.1191
 IR Inten    --      3.3138                 7.2885                38.4746

                     16                     17                     18
                      A                      A                      A
 Frequencies --    341.4350               350.4918               391.1649
 Red. masses --      2.4129                 2.1949                 2.3721
 Frc consts  --      0.1657                 0.1589                 0.2138
 IR Inten    --     11.8168                 5.2429                 3.2962

                     19                     20                     21
                      A                      A                      A
 Frequencies --    425.5568               489.1069               581.9648
 Red. masses --      4.3107                 3.1074                 4.3488
 Frc consts  --      0.4599                 0.4380                 0.8678
 IR Inten    --     18.8306               117.4127                48.1952

                     22                     23                     24
                      A                      A                      A
 Frequencies --    625.4983               712.9302               747.0666
 Red. masses --      2.7845                 1.6619                 2.5060
 Frc consts  --      0.6419                 0.4977                 0.8240
 IR Inten    --      2.6824                52.1528                 2.0185

                     25                     26                     27
                      A                      A                      A
 Frequencies --    793.5569               899.9647               978.9983
 Red. masses --      8.4905                 2.6689                 1.4438
 Frc consts  --      3.1502                 1.2736                 0.8153
 IR Inten    --     60.8982                29.9080                30.8202

                     28                     29                     30
                      A                      A                      A
 Frequencies --   1003.8978              1030.4107              1052.9309
 Red. masses --      1.4161                 1.3507                 1.4079
 Frc consts  --      0.8409                 0.8449                 0.9196
 IR Inten    --     29.2695                 5.3043                 5.1395

                     31                     32                     33
                      A                      A                      A
 Frequencies --   1061.8616              1068.6993              1084.5465
 Red. masses --      1.3567                 1.7747                 1.4924
 Frc consts  --      0.9013                 1.1942                 1.0343
 IR Inten    --     51.7515                 5.8202                10.6736

                     34                     35                     36
                      A                      A                      A
 Frequencies --   1087.1164              1092.3685              1134.3438
 Red. masses --      1.6642                 2.0991                 1.2277
 Frc consts  --      1.1588                 1.4758                 0.9307
 IR Inten    --    567.6484               101.4849                 2.3521

                     37                     38                     39
                      A                      A                      A
 Frequencies --   1168.4662              1173.6072              1214.3939
 Red. masses --      1.4778                 1.8803                 1.2485
 Frc consts  --      1.1887                 1.5259                 1.0848
 IR Inten    --     13.3535                29.8321               142.3358

                     40                     41                     42
                      A                      A                      A
 Frequencies --   1234.0797              1286.0363              1305.9799
 Red. masses --      1.3930                 3.0605                 2.5625
 Frc consts  --      1.2500                 2.9822                 2.5750
 IR Inten    --     91.5972                36.4171                34.5285

                     43                     44                     45
                      A                      A                      A
 Frequencies --   1342.0273              1352.8866              1405.9245
 Red. masses --      2.0854                 1.4084                 1.4331
 Frc consts  --      2.2129                 1.5188                 1.6689
 IR Inten    --     37.5215                16.6326                 1.7388

                     46                     47                     48
                      A                      A                      A
 Frequencies --   1408.9003              1424.1916              1441.0349
 Red. masses --      1.7277                 1.4052                 1.2239
 Frc consts  --      2.0206                 1.6793                 1.4974
 IR Inten    --    342.5311               175.7843               117.9095

                     49                     50                     51
                      A                      A                      A
 Frequencies --   1452.2626              1468.1063              1470.9513
 Red. masses --      1.6213                 1.3485                 1.1814
 Frc consts  --      2.0146                 1.7125                 1.5060
 IR Inten    --    110.5437                29.5050               121.7999

                     52                     53                     54
                      A                      A                      A
 Frequencies --   1482.1555              1485.6796              1486.5115
 Red. masses --      1.0845                 1.0686                 1.0934
 Frc consts  --      1.4037                 1.3897                 1.4235
 IR Inten    --      1.9343                30.7178                 5.4699

                     55                     56                     57
                      A                      A                      A
 Frequencies --   1493.0595              1499.8026              1501.4809
 Red. masses --      1.0482                 1.0480                 1.0803
 Frc consts  --      1.3768                 1.3889                 1.4349
 IR Inten    --     23.3426                29.2405                71.1472

                     58                     59                     60
                      A                      A                      A
 Frequencies --   1504.2675              1510.3334              1516.1534
 Red. masses --      1.1340                 1.0426                 1.1370
 Frc consts  --      1.5118                 1.4012                 1.5399
 IR Inten    --    111.8158                 5.0957                53.8016

                     61                     62                     63
                      A                      A                      A
 Frequencies --   1531.9457              1573.0900              1657.2927
 Red. masses --      1.3591                 6.0162                 1.0909
 Frc consts  --      1.8793                 8.7716                 1.7654
 IR Inten    --    256.8133               544.8577                38.7002

                     64                     65                     66
                      A                      A                      A
 Frequencies --   2999.8345              3001.3802              3011.4272
 Red. masses --      1.0506                 1.0478                 1.0456
 Frc consts  --      5.5702                 5.5613                 5.5869
 IR Inten    --    224.8403                49.1192               169.8498

                     67                     68                     69
                      A                      A                      A
 Frequencies --   3042.9525              3059.0687              3061.1590
 Red. masses --      1.0961                 1.0345                 1.0368
 Frc consts  --      5.9796                 5.7035                 5.7244
 IR Inten    --     65.0923                60.5011                32.5502

                     70                     71                     72
                      A                      A                      A
 Frequencies --   3064.5872              3084.4978              3119.0441
 Red. masses --      1.0974                 1.0871                 1.0941
 Frc consts  --      6.0726                 6.0938                 6.2709
 IR Inten    --     83.5831                48.8751                39.8649

                     73                     74                     75
                      A                      A                      A
 Frequencies --   3124.0050              3130.2367              3132.6263
 Red. masses --      1.0938                 1.1023                 1.0998
 Frc consts  --      6.2896                 6.3635                 6.3587
 IR Inten    --     13.7614                45.8613                 5.2123

                     76                     77                     78
                      A                      A                      A
 Frequencies --   3147.8500              3159.7433              3161.3831
 Red. masses --      1.1012                 1.1043                 1.0985
 Frc consts  --      6.4291                 6.4958                 6.4688
 IR Inten    --     57.1060                19.6636                20.1545

                     79                     80                     81
                      A                      A                      A
 Frequencies --   3177.5641              3422.0423              3588.1677
 Red. masses --      1.0948                 1.0639                 1.0861
 Frc consts  --      6.5132                 7.3407                 8.2390
 IR Inten    --     13.2111               123.5078                56.3109

 - Thermochemistry -
 -------------------
 Temperature   298.150 Kelvin.  Pressure   1.00000 Atm.
 Atom     1 has atomic number  6 and mass  12.00000

 Molecular mass:   158.14191 amu.
 Principal axes and moments of inertia in atomic units:
                           1         2         3
     Eigenvalues --  1013.577702758.184903459.48408
           X            0.99998  -0.00605  -0.00131
           Y            0.00605   0.99998  -0.00100
           Z            0.00131   0.00099   1.00000
 This molecule is an asymmetric top.
 Rotational symmetry number  1.
 Warning -- assumption of classical behavior for rotation
           may cause significant error
 Rotational temperatures (Kelvin)      0.08545     0.03140     0.02504
 Rotational constants (GHZ):           1.78057     0.65432     0.52168
    1 imaginary frequencies ignored.
 Zero-point vibrational energy     683445.0 (Joules/Mol)
                                  163.34727 (Kcal/Mol)
 Warning -- explicit consideration of  20 degrees of freedom as
           vibrations may cause significant error
 Vibrational temperatures:     92.59   107.77   143.19   160.63   192.02
          (Kelvin)            228.37   246.31   253.85   269.11   314.98
                              339.48   343.69   381.35   424.31   491.25
                              504.28   562.80   612.28   703.72   837.32
                              899.95  1025.75  1074.86  1141.75  1294.85
                             1408.56  1444.39  1482.53  1514.93  1527.78
                             1537.62  1560.42  1564.12  1571.67  1632.07
                             1681.16  1688.56  1747.24  1775.57  1850.32
                             1879.01  1930.88  1946.50  2022.81  2027.09
                             2049.09  2073.33  2089.48  2112.28  2116.37
                             2132.49  2137.56  2138.76  2148.18  2157.88
                             2160.30  2164.31  2173.03  2181.41  2204.13
                             2263.33  2384.47  4316.09  4318.32  4332.77
                             4378.13  4401.32  4404.33  4409.26  4437.90
                             4487.61  4494.75  4503.71  4507.15  4529.05
                             4546.17  4548.53  4571.81  4923.56  5162.57

 Zero-point correction=                           0.260310 (Hartree/Particle)
 Thermal correction to Energy=                    0.274427
 Thermal correction to Enthalpy=                  0.275371
 Thermal correction to Gibbs Free Energy=         0.220287
 Sum of electronic and zero-point Energies=           -500.153554
 Sum of electronic and thermal Energies=              -500.139437
 Sum of electronic and thermal Enthalpies=            -500.138493
 Sum of electronic and thermal Free Energies=         -500.193577

                     E (Thermal)             CV                S
                      KCal/Mol        Cal/Mol-Kelvin    Cal/Mol-Kelvin
 Total                  172.206             50.177            115.934
 Electronic               0.000              0.000              0.000
 Translational            0.889              2.981             41.084
 Rotational               0.889              2.981             30.648
 Vibrational            170.428             44.216             44.201
 Vibration     1          0.597              1.971              4.319
 Vibration     2          0.599              1.966              4.020
 Vibration     3          0.604              1.949              3.464
 Vibration     4          0.607              1.940              3.240
 Vibration     5          0.613              1.920              2.896
 Vibration     6          0.621              1.893              2.565
 Vibration     7          0.626              1.878              2.422
 Vibration     8          0.628              1.871              2.366
 Vibration     9          0.632              1.858              2.257
 Vibration    10          0.647              1.812              1.968
 Vibration    11          0.655              1.786              1.833
 Vibration    12          0.657              1.781              1.811
 Vibration    13          0.671              1.737              1.628
 Vibration    14          0.689              1.683              1.446
 Vibration    15          0.721              1.593              1.205
 Vibration    16          0.727              1.574              1.164
 Vibration    17          0.759              1.489              0.996
 Vibration    18          0.787              1.415              0.873
 Vibration    19          0.845              1.274              0.686
 Vibration    20          0.939              1.070              0.482

 Optimization completed.
    -- Stationary point found.
 Normal termination of Gaussian 16 at Sun Feb 14 01:09:21 2021.
