 Gaussian 16, Revision A.03,
 Gaussian 16:  ES64L-G16RevA.03 25-Dec-2016

 ----------------------------------------------------------------------
 # wB97XD def2tzvp, opt=(ts, noeigen, calcfc, maxcycles=70, maxstep=1),
  freq=noraman, scrf=(iefpcm, solvent=water)
 ----------------------------------------------------------------------

 ------------------------
 4_iteration/TS-488-4.out
 ------------------------
 Symbolic Z-matrix:
 Charge =  0 Multiplicity = 1

 SCF Done:  E(RwB97XD) =  -828.528058942     A.U. after   15 cycles
 Optimization completed.
    -- Stationary point found.
 Normal termination of Gaussian 16 at Mon Feb 15 03:25:11 2021.

 ---------------------------------------------------------------------
 #N Geom=AllCheck Guess=TCheck SCRF=Check GenChk RwB97XD/def2TZVP Freq
 ---------------------------------------------------------------------

 Structure from the checkpoint file:  "/beegfs/scratch/user/q/tla25/Gau-47315.chk"
 ------------------------
 4_iteration/TS-488-4.out
 ------------------------
 Charge =  0 Multiplicity = 1

                         Standard orientation:
 ---------------------------------------------------------------------
 Center     Atomic      Atomic             Coordinates (Angstroms)
 Number     Number       Type             X           Y           Z
 ---------------------------------------------------------------------
      1          6           0        0.501911   -0.140200    0.266431
      2          6           0       -0.379759   -1.177450   -0.123649
      3          8           0        0.013301   -2.298670   -0.507289
      4          6           0        0.155500    1.141730    0.790491
      5          6           0       -0.418280    3.701600   -0.670599
      6          1           0       -0.530220    4.151820   -1.658019
      7          1           0       -1.350480    3.819300   -0.122039
      8          1           0        0.376590    4.218970   -0.137559
      9          7           0       -0.091480    2.277850   -0.765329
     10          1           0       -0.815480    1.769590   -1.259979
     11          1           0        0.773480    2.134410   -1.274029
     12          6           0        1.273760    1.918890    1.453061
     13          1           0        1.516520    1.432760    2.400391
     14          1           0        2.181190    1.941830    0.853171
     15          1           0        0.964850    2.939000    1.675391
     16          6           0       -1.167420    1.412390    1.476071
     17          1           0       -1.237590    0.777410    2.360451
     18          1           0       -1.213370    2.449500    1.806121
     19          1           0       -2.032960    1.209360    0.853891
     20          6           0        1.951091   -0.441390    0.036971
     21          6           0        2.762281   -0.924790    1.062411
     22          6           0        4.108041   -1.189050    0.853231
     23          6           0        4.674061   -0.975810   -0.396309
     24          6           0        3.880521   -0.504390   -1.432189
     25          6           0        2.534391   -0.245060   -1.214059
     26          1           0        2.327311   -1.091030    2.041241
     27          1           0        4.717161   -1.562130    1.667691
     28          1           0        5.724711   -1.178980   -0.561999
     29          1           0        4.309331   -0.340020   -2.413289
     30          1           0        1.919261    0.106900   -2.035189
     31          6           0       -1.875279   -0.997780   -0.135419
     32          6           0       -2.498209   -0.409861   -1.230479
     33          6           0       -3.879499   -0.277451   -1.268579
     34          6           0       -4.650439   -0.741181   -0.212499
     35          6           0       -4.034849   -1.353991    0.871481
     36          6           0       -2.655519   -1.487691    0.905791
     37          1           0       -1.900489   -0.058960   -2.064959
     38          1           0       -4.352899    0.187589   -2.124239
     39          1           0       -5.727309   -0.632811   -0.236569
     40          1           0       -4.632699   -1.725511    1.694471
     41          1           0       -2.176759   -1.955670    1.757771
 ---------------------------------------------------------------------

 SCF Done:  E(RwB97XD) =  -828.528058942     A.U. after    1 cycles

 The electronic state is 1-A.
 Alpha  occ. eigenvalues --  -19.19485 -14.48125 -10.35636 -10.34470 -10.31802
 Alpha  occ. eigenvalues --  -10.29506 -10.29214 -10.29139 -10.29125 -10.29073
 Alpha  occ. eigenvalues --  -10.28934 -10.28920 -10.28542 -10.28510 -10.28394
 Alpha  occ. eigenvalues --  -10.28190 -10.28040 -10.27873 -10.27780 -10.25574
 Alpha  occ. eigenvalues --   -1.09997  -1.03731  -0.96643  -0.96198  -0.92249
 Alpha  occ. eigenvalues --   -0.86183  -0.85783  -0.85212  -0.84417  -0.80074
 Alpha  occ. eigenvalues --   -0.79581  -0.78640  -0.72102  -0.70541  -0.69688
 Alpha  occ. eigenvalues --   -0.68663  -0.66769  -0.63341  -0.62747  -0.60748
 Alpha  occ. eigenvalues --   -0.58879  -0.57112  -0.56067  -0.55572  -0.54711
 Alpha  occ. eigenvalues --   -0.54428  -0.53569  -0.52906  -0.52181  -0.51085
 Alpha  occ. eigenvalues --   -0.50284  -0.50147  -0.49457  -0.48638  -0.47969
 Alpha  occ. eigenvalues --   -0.47412  -0.46899  -0.46007  -0.45729  -0.44858
 Alpha  occ. eigenvalues --   -0.44158  -0.43131  -0.42522  -0.41923  -0.40959
 Alpha  occ. eigenvalues --   -0.40221  -0.33998  -0.33927  -0.33228  -0.32522
 Alpha  occ. eigenvalues --   -0.30704  -0.27072
 Alpha virt. eigenvalues --    0.04432   0.04969   0.05334   0.05784   0.06296
 Alpha virt. eigenvalues --    0.09513   0.12273   0.12771   0.13067   0.14617
 Alpha virt. eigenvalues --    0.14866   0.15212   0.15849   0.15908   0.16478

 Mulliken charges:
               1
     1  C   -0.218462
     2  C    0.253752
     3  O   -0.542142
     4  C    0.057558
     5  C   -0.297705
     6  H    0.156237
     7  H    0.159270
     8  H    0.157098
     9  N   -0.300251
    10  H    0.251205
    11  H    0.271618
    12  C   -0.367354
    13  H    0.149369
    14  H    0.155839
    15  H    0.142461
    16  C   -0.378555
    17  H    0.148087
    18  H    0.151210
    19  H    0.162915
    20  C    0.253111
    21  C   -0.260221
    22  C   -0.161912
    23  C   -0.134728
    24  C   -0.170030
    25  C   -0.263158
    26  H    0.140172
    27  H    0.135896
    28  H    0.140039
    29  H    0.136213
    30  H    0.144569
    31  C    0.177404
    32  C   -0.305565
    33  C   -0.139312
    34  C   -0.155259
    35  C   -0.136205
    36  C   -0.253953
    37  H    0.168615
    38  H    0.143071
    39  H    0.143895
    40  H    0.142284
    41  H    0.142923
 Sum of Mulliken charges =  -0.00000

 Dipole moment (field-independent basis, Debye):
    X=             -1.8981    Y=             12.1612    Z=              0.1564  Tot=             12.3095
 Quadrupole moment (field-independent basis, Debye-Ang):
   XX=           -109.4389   YY=           -121.4158   ZZ=           -108.4211
   XY=             -1.0783   XZ=             -0.3066   YZ=            -12.1905

  Exact polarizability: 351.391 -12.286 290.626  -2.204 -25.212 289.215
 Approx polarizability: 267.631 -12.185 233.212  -2.363 -21.925 249.951

 ******    1 imaginary frequencies (negative Signs) ******

                      1                      2                      3
                      A                      A                      A
 Frequencies --   -349.5812                29.9554                43.0403
 Red. masses --      5.8337                 4.5599                 3.7564
 Frc consts  --      0.4200                 0.0024                 0.0041
 IR Inten    --    884.1214                 3.4249                 2.8059

                      4                      5                      6
                      A                      A                      A
 Frequencies --     53.2612                56.7883                63.1095
 Red. masses --      4.0360                 4.7903                 2.3233
 Frc consts  --      0.0067                 0.0091                 0.0055
 IR Inten    --      2.6419                 0.6982                 1.2266

                      7                      8                      9
                      A                      A                      A
 Frequencies --     73.0859                92.5914               101.6387
 Red. masses --      2.8297                 3.9293                 4.0376
 Frc consts  --      0.0089                 0.0198                 0.0246
 IR Inten    --      2.6199                 5.6610                 5.7155

                     10                     11                     12
                      A                      A                      A
 Frequencies --    175.8225               198.3188               205.8949
 Red. masses --      1.4669                 3.1184                 5.0115
 Frc consts  --      0.0267                 0.0723                 0.1252
 IR Inten    --      1.3110                 4.6950                 4.7030

                     13                     14                     15
                      A                      A                      A
 Frequencies --    212.7573               240.3298               257.0880
 Red. masses --      2.1679                 3.1429                 1.7558
 Frc consts  --      0.0578                 0.1070                 0.0684
 IR Inten    --      0.8038                 0.5845                 9.0775

                     16                     17                     18
                      A                      A                      A
 Frequencies --    274.5543               291.4070               294.1477
 Red. masses --      1.7299                 1.5399                 2.0353
 Frc consts  --      0.0768                 0.0770                 0.1038
 IR Inten    --      8.3687                 2.6201                 3.9426

                     19                     20                     21
                      A                      A                      A
 Frequencies --    323.2580               359.2548               371.4586
 Red. masses --      3.9137                 4.8205                 3.0724
 Frc consts  --      0.2410                 0.3666                 0.2498
 IR Inten    --     65.2915                24.7354                 2.1836

                     22                     23                     24
                      A                      A                      A
 Frequencies --    397.2799               416.8535               425.9766
 Red. masses --      2.4622                 2.8814                 2.8789
 Frc consts  --      0.2290                 0.2950                 0.3078
 IR Inten    --     12.2262                 1.0524                 0.4588

                     25                     26                     27
                      A                      A                      A
 Frequencies --    436.2535               527.9812               539.2425
 Red. masses --      2.9550                 3.9011                 3.3519
 Frc consts  --      0.3314                 0.6407                 0.5743
 IR Inten    --     10.0834                19.9460                 3.8186

                     28                     29                     30
                      A                      A                      A
 Frequencies --    571.7404               615.5116               634.2130
 Red. masses --      5.4628                 3.7719                 6.2112
 Frc consts  --      1.0521                 0.8420                 1.4720
 IR Inten    --     87.1437                50.1024                 3.7793

                     31                     32                     33
                      A                      A                      A
 Frequencies --    639.9953               642.4242               663.3061
 Red. masses --      3.3759                 6.3099                 1.4143
 Frc consts  --      0.8147                 1.5343                 0.3666
 IR Inten    --     84.7162                 1.8997                 9.3237

                     34                     35                     36
                      A                      A                      A
 Frequencies --    703.6359               731.0397               731.7706
 Red. masses --      5.5957                 1.5224                 1.5293
 Frc consts  --      1.6323                 0.4794                 0.4825
 IR Inten    --      6.9725                71.9010               107.9041

                     37                     38                     39
                      A                      A                      A
 Frequencies --    783.7941               794.4007               805.0122
 Red. masses --      2.4567                 5.0359                 3.1818
 Frc consts  --      0.8892                 1.8724                 1.2148
 IR Inten    --     35.7851                37.0545                59.1803

                     40                     41                     42
                      A                      A                      A
 Frequencies --    872.3110               882.0519               882.5324
 Red. masses --      3.7912                 1.2465                 1.2603
 Frc consts  --      1.6997                 0.5714                 0.5783
 IR Inten    --     32.4585                 0.3067                 1.2609

                     43                     44                     45
                      A                      A                      A
 Frequencies --    910.6036               954.1783               958.2706
 Red. masses --      2.4750                 1.3948                 1.5061
 Frc consts  --      1.2092                 0.7482                 0.8149
 IR Inten    --     21.7140                 1.2939                20.8575

                     46                     47                     48
                      A                      A                      A
 Frequencies --    964.2810              1010.4407              1012.2522
 Red. masses --      1.4958                 1.2578                 1.4021
 Frc consts  --      0.8195                 0.7566                 0.8465
 IR Inten    --      9.6953                 3.9864                 0.4507

                     49                     50                     51
                      A                      A                      A
 Frequencies --   1014.0473              1025.0897              1025.2775
 Red. masses --      1.2791                 3.9081                 3.2157
 Frc consts  --      0.7750                 2.4196                 1.9916
 IR Inten    --      5.2811                 1.3526                 0.7972

                     52                     53                     54
                      A                      A                      A
 Frequencies --   1026.7521              1030.1906              1038.5539
 Red. masses --      1.6930                 1.3644                 1.3033
 Frc consts  --      1.0516                 0.8531                 0.8282
 IR Inten    --      0.2759                 3.0618                30.9285

                     55                     56                     57
                      A                      A                      A
 Frequencies --   1047.3128              1053.1145              1055.1725
 Red. masses --      1.3017                 2.0759                 3.0625
 Frc consts  --      0.8412                 1.3565                 2.0090
 IR Inten    --    211.3624                11.9802               174.8383

                     58                     59                     60
                      A                      A                      A
 Frequencies --   1061.0010              1080.9440              1106.2328
 Red. masses --      2.1231                 1.8552                 1.5475
 Frc consts  --      1.4082                 1.2772                 1.1158
 IR Inten    --     15.3595                 8.1599                14.5357

                     61                     62                     63
                      A                      A                      A
 Frequencies --   1109.3211              1111.1417              1176.1357
 Red. masses --      1.5497                 1.8998                 2.9301
 Frc consts  --      1.1236                 1.3819                 2.3880
 IR Inten    --      6.3415                42.2300                 0.3696

                     64                     65                     66
                      A                      A                      A
 Frequencies --   1180.5270              1182.6250              1204.4431
 Red. masses --      1.1382                 1.1446                 1.1244
 Frc consts  --      0.9346                 0.9432                 0.9610
 IR Inten    --      0.0080                 0.1325                 0.1660

                     67                     68                     69
                      A                      A                      A
 Frequencies --   1205.4220              1232.9662              1235.9812
 Red. masses --      1.1235                 1.4308                 3.2381
 Frc consts  --      0.9619                 1.2816                 2.9145
 IR Inten    --      0.5475                36.9004                 9.9871

                     70                     71                     72
                      A                      A                      A
 Frequencies --   1267.6892              1306.0243              1317.0126
 Red. masses --      3.5690                 4.4489                 4.2725
 Frc consts  --      3.3793                 4.4710                 4.3663
 IR Inten    --     28.0942                 0.1683                 1.5760

                     73                     74                     75
                      A                      A                      A
 Frequencies --   1350.5091              1355.9671              1358.3822
 Red. masses --      1.3496                 1.4279                 1.4570
 Frc consts  --      1.4503                 1.5469                 1.5840
 IR Inten    --      1.3492                 0.2518                 1.1532

                     76                     77                     78
                      A                      A                      A
 Frequencies --   1404.5203              1410.1947              1428.8187
 Red. masses --      2.6651                 1.3841                 1.3392
 Frc consts  --      3.0975                 1.6217                 1.6108
 IR Inten    --    741.6182                73.2036               213.5266

                     79                     80                     81
                      A                      A                      A
 Frequencies --   1432.5530              1465.2168              1481.4602
 Red. masses --      3.7283                 1.2385                 1.1531
 Frc consts  --      4.5080                 1.5665                 1.4911
 IR Inten    --    266.3321                55.3692                 5.5092

                     82                     83                     84
                      A                      A                      A
 Frequencies --   1484.5108              1486.2672              1487.5797
 Red. masses --      1.0782                 1.9294                 2.0568
 Frc consts  --      1.3999                 2.5112                 2.6816
 IR Inten    --      0.8946                 1.3982                 5.8099

                     85                     86                     87
                      A                      A                      A
 Frequencies --   1493.0347              1504.9627              1511.1526
 Red. masses --      1.0766                 1.1328                 1.0860
 Frc consts  --      1.4139                 1.5117                 1.4612
 IR Inten    --     48.7967                71.4041                52.2507

                     88                     89                     90
                      A                      A                      A
 Frequencies --   1512.7569              1541.3813              1543.3820
 Red. masses --      1.0367                 2.3838                 2.5101
 Frc consts  --      1.3978                 3.3369                 3.5228
 IR Inten    --     12.6713                21.4461                27.3914

                     91                     92                     93
                      A                      A                      A
 Frequencies --   1572.6622              1641.4619              1644.1615
 Red. masses --      9.1414                 1.2163                 4.4455
 Frc consts  --     13.3209                 1.9309                 7.0805
 IR Inten    --    792.6834                33.0216                 1.8501

                     94                     95                     96
                      A                      A                      A
 Frequencies --   1648.0724              1671.7501              1674.5217
 Red. masses --      4.5728                 5.9727                 5.9127
 Frc consts  --      7.3179                 9.8347                 9.7683
 IR Inten    --      1.5780                26.5085                 1.9697

                     97                     98                     99
                      A                      A                      A
 Frequencies --   3067.5626              3069.6487              3076.4269
 Red. masses --      1.0382                 1.0362                 1.0398
 Frc consts  --      5.7559                 5.7529                 5.7981
 IR Inten    --     11.7049                47.8968                28.8855

                    100                    101                    102
                      A                      A                      A
 Frequencies --   3137.9084              3142.5573              3147.3634
 Red. masses --      1.0992                 1.1009                 1.1011
 Frc consts  --      6.3769                 6.4059                 6.4262
 IR Inten    --      7.6030                47.6733                14.8098

                    103                    104                    105
                      A                      A                      A
 Frequencies --   3164.9024              3174.3644              3177.4718
 Red. masses --      1.1035                 1.1057                 1.0884
 Frc consts  --      6.5126                 6.5645                 6.4744
 IR Inten    --     39.2746                14.1620                12.9473

                    106                    107                    108
                      A                      A                      A
 Frequencies --   3177.7168              3184.5729              3185.6985
 Red. masses --      1.0884                 1.0869                 1.0993
 Frc consts  --      6.4756                 6.4947                 6.5733
 IR Inten    --     19.6655                 6.4169                 7.3768

                    109                    110                    111
                      A                      A                      A
 Frequencies --   3190.4825              3195.7880              3200.2479
 Red. masses --      1.0870                 1.0903                 1.0902
 Frc consts  --      6.5193                 6.5609                 6.5782
 IR Inten    --      3.2513                 8.6207                 4.3583

                    112                    113                    114
                      A                      A                      A
 Frequencies --   3203.2374              3208.6155              3216.3562
 Red. masses --      1.0947                 1.0946                 1.0986
 Frc consts  --      6.6177                 6.6396                 6.6959
 IR Inten    --     54.3724                39.3522                25.6193

                    115                    116                    117
                      A                      A                      A
 Frequencies --   3220.4797              3520.7190              3601.4792
 Red. masses --      1.0986                 1.0514                 1.0961
 Frc consts  --      6.7132                 7.6786                 8.3763
 IR Inten    --     21.8242                12.2466                69.2129

 - Thermochemistry -
 -------------------
 Temperature   298.150 Kelvin.  Pressure   1.00000 Atm.
 Atom     1 has atomic number  6 and mass  12.00000

 Molecular mass:   267.16231 amu.
 Principal axes and moments of inertia in atomic units:
                           1         2         3
     Eigenvalues --  3168.925707795.437309117.26087
           X            0.99999  -0.00425  -0.00041
           Y            0.00424   0.99989  -0.01444
           Z            0.00047   0.01444   0.99990
 This molecule is an asymmetric top.
 Rotational symmetry number  1.
 Warning -- assumption of classical behavior for rotation
           may cause significant error
 Rotational temperatures (Kelvin)      0.02733     0.01111     0.00950
 Rotational constants (GHZ):           0.56951     0.23151     0.19795
    1 imaginary frequencies ignored.
 Zero-point vibrational energy     919252.2 (Joules/Mol)
                                  219.70656 (Kcal/Mol)
 Warning -- explicit consideration of  28 degrees of freedom as
           vibrations may cause significant error
 Vibrational temperatures:     43.10    61.93    76.63    81.71    90.80
          (Kelvin)            105.15   133.22   146.24   252.97   285.34
                              296.24   306.11   345.78   369.89   395.02
                              419.27   423.21   465.10   516.89   534.45
                              571.60   599.76   612.89   627.67   759.65
                              775.85   822.61   885.58   912.49   920.81
                              924.31   954.35  1012.38  1051.80  1052.85
                             1127.70  1142.97  1158.23  1255.06  1269.08
                             1269.77  1310.16  1372.85  1378.74  1387.39
                             1453.80  1456.41  1458.99  1474.88  1475.15
                             1477.27  1482.21  1494.25  1506.85  1515.20
                             1518.16  1526.54  1555.24  1591.62  1596.07
                             1598.69  1692.20  1698.52  1701.53  1732.92
                             1734.33  1773.96  1778.30  1823.92  1879.08
                             1894.89  1943.08  1950.93  1954.41  2020.79
                             2028.96  2055.75  2061.12  2108.12  2131.49
                             2135.88  2138.41  2140.30  2148.14  2165.31
                             2174.21  2176.52  2217.70  2220.58  2262.71
                             2361.70  2365.58  2371.21  2405.28  2409.26
                             4413.54  4416.54  4426.29  4514.75  4521.44
                             4528.35  4553.59  4567.20  4571.67  4572.03
                             4581.89  4583.51  4590.39  4598.03  4604.44
                             4608.74  4616.48  4627.62  4633.55  5065.53
                             5181.73

 Zero-point correction=                           0.350125 (Hartree/Particle)
 Thermal correction to Energy=                    0.369150
 Thermal correction to Enthalpy=                  0.370094
 Thermal correction to Gibbs Free Energy=         0.301843
 Sum of electronic and zero-point Energies=           -828.177934
 Sum of electronic and thermal Energies=              -828.158909
 Sum of electronic and thermal Enthalpies=            -828.157965
 Sum of electronic and thermal Free Energies=         -828.226216

                     E (Thermal)             CV                S
                      KCal/Mol        Cal/Mol-Kelvin    Cal/Mol-Kelvin
 Total                  231.645             72.991            143.646
 Electronic               0.000              0.000              0.000
 Translational            0.889              2.981             42.647
 Rotational               0.889              2.981             33.776
 Vibrational            229.867             67.029             67.223
 Vibration     1          0.594              1.984              5.832
 Vibration     2          0.595              1.980              5.114
 Vibration     3          0.596              1.976              4.692
 Vibration     4          0.596              1.975              4.566
 Vibration     5          0.597              1.972              4.358
 Vibration     6          0.599              1.967              4.068
 Vibration     7          0.602              1.954              3.605
 Vibration     8          0.604              1.948              3.423
 Vibration     9          0.628              1.872              2.372
 Vibration    10          0.637              1.842              2.149
 Vibration    11          0.640              1.831              2.080
 Vibration    12          0.644              1.821              2.020
 Vibration    13          0.657              1.779              1.800
 Vibration    14          0.667              1.751              1.681
 Vibration    15          0.677              1.720              1.567
 Vibration    16          0.687              1.690              1.466
 Vibration    17          0.689              1.685              1.450
 Vibration    18          0.708              1.629              1.294
 Vibration    19          0.734              1.556              1.125
 Vibration    20          0.743              1.531              1.074
 Vibration    21          0.764              1.476              0.973
 Vibration    22          0.780              1.434              0.903
 Vibration    23          0.788              1.414              0.872
 Vibration    24          0.797              1.391              0.838
 Vibration    25          0.883              1.188              0.592
 Vibration    26          0.894              1.163              0.567
 Vibration    27          0.928              1.092              0.501
 Vibration    28          0.975              0.999              0.424

 Optimization completed.
    -- Stationary point found.
 Normal termination of Gaussian 16 at Mon Feb 15 06:18:14 2021.
