 Gaussian 16, Revision A.03,
 Gaussian 16:  ES64L-G16RevA.03 25-Dec-2016

 ----------------------------------------------------------------------
 # wB97XD def2tzvp, opt=(ts, noeigen, calcfc, maxcycles=70, maxstep=5),
  freq=noraman, scrf=(iefpcm, solvent=water)
 ----------------------------------------------------------------------

 ------------------------
 2_iteration/TS-484-2.out
 ------------------------
 Symbolic Z-matrix:
 Charge =  0 Multiplicity = 1

 SCF Done:  E(RwB97XD) =  -712.034391599     A.U. after   14 cycles
 SCF Done:  E(RwB97XD) =  -712.035292204     A.U. after   12 cycles
 SCF Done:  E(RwB97XD) =  -712.035548217     A.U. after   12 cycles
 SCF Done:  E(RwB97XD) =  -712.035575503     A.U. after   10 cycles
 SCF Done:  E(RwB97XD) =  -712.035582316     A.U. after   10 cycles
 SCF Done:  E(RwB97XD) =  -712.035583096     A.U. after    8 cycles
 SCF Done:  E(RwB97XD) =  -712.035583085     A.U. after    7 cycles
 SCF Done:  E(RwB97XD) =  -712.035583109     A.U. after    6 cycles
 Optimization completed.
    -- Stationary point found.
 Normal termination of Gaussian 16 at Sun Feb 14 13:10:50 2021.

 ---------------------------------------------------------------------
 #N Geom=AllCheck Guess=TCheck SCRF=Check GenChk RwB97XD/def2TZVP Freq
 ---------------------------------------------------------------------

 Structure from the checkpoint file:  "/beegfs/scratch/user/q/tla25/Gau-68339.chk"
 ------------------------
 2_iteration/TS-484-2.out
 ------------------------
 Charge =  0 Multiplicity = 1

                         Standard orientation:
 ---------------------------------------------------------------------
 Center     Atomic      Atomic             Coordinates (Angstroms)
 Number     Number       Type             X           Y           Z
 ---------------------------------------------------------------------
      1          6           0       -0.268475    0.175012   -0.409126
      2          6           0       -0.643072    1.533323   -0.218220
      3          8           0       -1.785947    1.978423   -0.070402
      4          6           0       -1.271739   -0.812728   -0.609086
      5          6           0       -3.382938   -1.670850    1.354925
      6          1           0       -3.733791   -1.543459    2.380724
      7          1           0       -4.183072   -1.385447    0.675174
      8          1           0       -3.140950   -2.720378    1.195252
      9          7           0       -2.203842   -0.851911    1.083843
     10          1           0       -2.408495    0.141846    1.143917
     11          1           0       -1.452139   -1.053712    1.731975
     12          6           0       -0.825729   -2.252404   -0.704483
     13          1           0       -0.339567   -2.413678   -1.668385
     14          1           0       -0.113013   -2.516433    0.075250
     15          1           0       -1.682022   -2.924095   -0.651621
     16          6           0       -2.448032   -0.531066   -1.516357
     17          1           0       -2.087137   -0.593689   -2.545842
     18          1           0       -3.229722   -1.282093   -1.399858
     19          1           0       -2.861869    0.458780   -1.354082
     20          6           0        1.140459   -0.228242   -0.132904
     21          6           0        1.969556   -0.703931   -1.149054
     22          6           0        3.273594   -1.104325   -0.892494
     23          6           0        3.784837   -1.028824    0.395179
     24          6           0        2.979448   -0.550731    1.420177
     25          6           0        1.675509   -0.159402    1.155433
     26          1           0        1.580655   -0.758638   -2.159294
     27          1           0        3.893649   -1.470768   -1.701763
     28          1           0        4.802595   -1.337876    0.598583
     29          1           0        3.367187   -0.486638    2.429773
     30          1           0        1.053635    0.211521    1.962546
     31          8           0        0.419491    2.386723   -0.167291
     32          6           0        0.129105    3.740649    0.134112
     33          1           0        1.089414    4.250728    0.169514
     34          1           0       -0.499075    4.193575   -0.634289
     35          1           0       -0.372874    3.833757    1.098447
 ---------------------------------------------------------------------

 SCF Done:  E(RwB97XD) =  -712.035583109     A.U. after    1 cycles

 The electronic state is 1-A.
 Alpha  occ. eigenvalues --  -19.27131 -19.20285 -14.47241 -10.38412 -10.34704
 Alpha  occ. eigenvalues --  -10.32133 -10.31471 -10.29089 -10.28421 -10.28402
 Alpha  occ. eigenvalues --  -10.28306 -10.28003 -10.27927 -10.27655 -10.26961
 Alpha  occ. eigenvalues --  -10.24801  -1.18307  -1.08638  -1.02943  -0.96101
 Alpha  occ. eigenvalues --   -0.91806  -0.86056  -0.84292  -0.82240  -0.79254
 Alpha  occ. eigenvalues --   -0.78966  -0.76911  -0.69596  -0.68767  -0.66815
 Alpha  occ. eigenvalues --   -0.62449  -0.62080  -0.60717  -0.57941  -0.56253
 Alpha  occ. eigenvalues --   -0.55917  -0.55032  -0.54943  -0.53506  -0.53235
 Alpha  occ. eigenvalues --   -0.51675  -0.51012  -0.50157  -0.49500  -0.47906
 Alpha  occ. eigenvalues --   -0.47390  -0.47058  -0.45947  -0.45650  -0.45219
 Alpha  occ. eigenvalues --   -0.43648  -0.42876  -0.42065  -0.41296  -0.39746
 Alpha  occ. eigenvalues --   -0.37255  -0.34925  -0.33081  -0.32120  -0.26055
 Alpha virt. eigenvalues --    0.05459   0.05793   0.06874   0.09874   0.12795
 Alpha virt. eigenvalues --    0.13203   0.13901   0.14896   0.15206   0.16456
 Alpha virt. eigenvalues --    0.16712   0.17015   0.17963   0.18396   0.18607

 Mulliken charges:
               1
     1  C   -0.262244
     2  C    0.441545
     3  O   -0.560366
     4  C    0.098288
     5  C   -0.296268
     6  H    0.151634
     7  H    0.155199
     8  H    0.150023
     9  N   -0.323519
    10  H    0.270680
    11  H    0.272653
    12  C   -0.365482
    13  H    0.147898
    14  H    0.149014
    15  H    0.140588
    16  C   -0.389431
    17  H    0.135390
    18  H    0.129593
    19  H    0.156127
    20  C    0.232128
    21  C   -0.260512
    22  C   -0.157229
    23  C   -0.145502
    24  C   -0.148350
    25  C   -0.273705
    26  H    0.143566
    27  H    0.135407
    28  H    0.139604
    29  H    0.136009
    30  H    0.134601
    31  O   -0.314711
    32  C   -0.195143
    33  H    0.133107
    34  H    0.120280
    35  H    0.119127
 Sum of Mulliken charges =  -0.00000

 Dipole moment (field-independent basis, Debye):
    X=             -2.9165    Y=             -5.0258    Z=              3.0506  Tot=              6.5628
 Quadrupole moment (field-independent basis, Debye-Ang):
   XX=            -89.5182   YY=            -94.8211   ZZ=            -87.9726
   XY=             10.5399   XZ=             -5.0514   YZ=              0.8214

  Exact polarizability: 266.697  -2.691 223.441  -5.290   5.908 221.153
 Approx polarizability: 206.454  -6.801 174.417  -4.042   6.117 187.972

 ******    1 imaginary frequencies (negative Signs) ******

                      1                      2                      3
                      A                      A                      A
 Frequencies --   -364.6822                32.5961                43.5179
 Red. masses --      5.8382                 3.7186                 3.4751
 Frc consts  --      0.4575                 0.0023                 0.0039
 IR Inten    --    726.0138                 5.4823                 0.2293

                      4                      5                      6
                      A                      A                      A
 Frequencies --     67.0355                71.3716                77.4065
 Red. masses --      2.3943                 2.8803                 3.8034
 Frc consts  --      0.0063                 0.0086                 0.0134
 IR Inten    --      3.3013                 3.8252                 3.7025

                      7                      8                      9
                      A                      A                      A
 Frequencies --     91.6964               124.8127               164.6129
 Red. masses --      2.9547                 2.8310                 1.5888
 Frc consts  --      0.0146                 0.0260                 0.0254
 IR Inten    --     13.7691                 8.6668                 2.2053

                     10                     11                     12
                      A                      A                      A
 Frequencies --    172.4016               184.9950               200.7878
 Red. masses --      1.1549                 2.2431                 2.9971
 Frc consts  --      0.0202                 0.0452                 0.0712
 IR Inten    --      0.0871                 4.0323                 3.5349

                     13                     14                     15
                      A                      A                      A
 Frequencies --    239.0643               258.3633               272.7500
 Red. masses --      1.3599                 3.7293                 1.0776
 Frc consts  --      0.0458                 0.1467                 0.0472
 IR Inten    --      9.6944                 4.3353                 0.8333

                     16                     17                     18
                      A                      A                      A
 Frequencies --    284.7125               302.2860               325.6440
 Red. masses --      2.1247                 3.4857                 3.9674
 Frc consts  --      0.1015                 0.1877                 0.2479
 IR Inten    --      2.8239                64.1769                16.7385

                     19                     20                     21
                      A                      A                      A
 Frequencies --    352.0906               383.6031               405.3411
 Red. masses --      3.0689                 2.5808                 3.0051
 Frc consts  --      0.2242                 0.2238                 0.2909
 IR Inten    --      6.0137                 4.9942                19.8257

                     22                     23                     24
                      A                      A                      A
 Frequencies --    416.9610               426.2582               509.8885
 Red. masses --      5.9446                 2.9018                 3.4332
 Frc consts  --      0.6089                 0.3106                 0.5259
 IR Inten    --      8.1934                 0.3357                17.1655

                     25                     26                     27
                      A                      A                      A
 Frequencies --    546.0946               585.1145               639.6755
 Red. masses --      4.3384                 3.4604                 6.2476
 Frc consts  --      0.7623                 0.6980                 1.5062
 IR Inten    --     61.8426                40.3016                 1.6707

                     28                     29                     30
                      A                      A                      A
 Frequencies --    673.4410               685.4494               729.2041
 Red. masses --      1.5493                 3.2101                 1.5350
 Frc consts  --      0.4140                 0.8886                 0.4809
 IR Inten    --     39.8841                 0.4566                93.2701

                     31                     32                     33
                      A                      A                      A
 Frequencies --    762.2520               798.9576               810.5829
 Red. masses --      3.6057                 6.2555                 3.3924
 Frc consts  --      1.2343                 2.3527                 1.3133
 IR Inten    --      4.2239                43.5691                79.2004

                     34                     35                     36
                      A                      A                      A
 Frequencies --    879.2404               890.2426               949.3862
 Red. masses --      1.2487                 3.1253                 1.3956
 Frc consts  --      0.5688                 1.4593                 0.7411
 IR Inten    --      0.9142                10.7714                 0.2681

                     37                     38                     39
                      A                      A                      A
 Frequencies --    957.8823               979.9599              1010.7921
 Red. masses --      1.4959                 3.6065                 1.3740
 Frc consts  --      0.8087                 2.0406                 0.8271
 IR Inten    --      5.0390                59.5106                 0.1198

                     40                     41                     42
                      A                      A                      A
 Frequencies --   1012.7758              1023.9040              1025.5545
 Red. masses --      1.2356                 1.3228                 5.3390
 Frc consts  --      0.7467                 0.8171                 3.3085
 IR Inten    --     17.3992                 0.0749                 0.8736

                     43                     44                     45
                      A                      A                      A
 Frequencies --   1036.0458              1042.8239              1052.8042
 Red. masses --      1.5095                 1.7176                 1.3244
 Frc consts  --      0.9546                 1.1005                 0.8649
 IR Inten    --     22.2475                70.3483                68.5277

                     46                     47                     48
                      A                      A                      A
 Frequencies --   1058.4724              1069.4968              1105.5614
 Red. masses --      2.6040                 1.8065                 1.5647
 Frc consts  --      1.7189                 1.2175                 1.1268
 IR Inten    --    301.1920                 8.2117                18.1454

                     49                     50                     51
                      A                      A                      A
 Frequencies --   1112.2656              1142.2524              1179.7623
 Red. masses --      2.0389                 4.2572                 1.1341
 Frc consts  --      1.4862                 3.2727                 0.9300
 IR Inten    --     31.2112               272.8582                 0.2227

                     52                     53                     54
                      A                      A                      A
 Frequencies --   1180.7576              1204.8324              1212.4138
 Red. masses --      1.2807                 1.1242                 1.5332
 Frc consts  --      1.0520                 0.9615                 1.3279
 IR Inten    --      2.3505                 1.0109               135.1112

                     55                     56                     57
                      A                      A                      A
 Frequencies --   1215.7143              1242.4928              1274.9408
 Red. masses --      1.4064                 3.2560                 4.0190
 Frc consts  --      1.2246                 2.9615                 3.8490
 IR Inten    --     48.4662                 3.2275               410.7999

                     58                     59                     60
                      A                      A                      A
 Frequencies --   1303.7703              1348.6395              1354.2160
 Red. masses --      4.4702                 1.5227                 1.5480
 Frc consts  --      4.4769                 1.6318                 1.6726
 IR Inten    --      7.7998               135.1887                18.7691

                     61                     62                     63
                      A                      A                      A
 Frequencies --   1360.7594              1396.3256              1410.6396
 Red. masses --      2.6181                 1.7381                 1.5480
 Frc consts  --      2.8563                 1.9966                 1.8149
 IR Inten    --    225.8415               290.4217                41.8318

                     64                     65                     66
                      A                      A                      A
 Frequencies --   1424.8081              1463.1739              1476.0420
 Red. masses --      1.5218                 1.2379                 1.0968
 Frc consts  --      1.8202                 1.5614                 1.4079
 IR Inten    --    200.1962                34.6165                44.5521

                     67                     68                     69
                      A                      A                      A
 Frequencies --   1478.0999              1480.6040              1480.8210
 Red. masses --      1.1000                 1.0723                 1.0974
 Frc consts  --      1.4159                 1.3850                 1.4178
 IR Inten    --     31.9677                16.7334                25.1180

                     70                     71                     72
                      A                      A                      A
 Frequencies --   1485.9500              1491.8706              1498.1645
 Red. masses --      2.1065                 1.0556                 1.0692
 Frc consts  --      2.7405                 1.3843                 1.4140
 IR Inten    --      8.6188                18.0469                 4.0585

                     73                     74                     75
                      A                      A                      A
 Frequencies --   1503.2356              1508.8524              1509.8344
 Red. masses --      1.0517                 1.2216                 1.0332
 Frc consts  --      1.4002                 1.6385                 1.3877
 IR Inten    --     21.7366                47.3414                13.9531

                     76                     77                     78
                      A                      A                      A
 Frequencies --   1542.0726              1640.7350              1648.6262
 Red. masses --      2.4392                 5.4957                 1.5181
 Frc consts  --      3.4175                 8.7167                 2.4310
 IR Inten    --     38.4763               121.8399               224.7240

                     79                     80                     81
                      A                      A                      A
 Frequencies --   1654.0076              1671.3960              3053.8292
 Red. masses --      2.7834                 5.9935                 1.0311
 Frc consts  --      4.4863                 9.8648                 5.6654
 IR Inten    --    524.7051                17.4648                80.5103

                     82                     83                     84
                      A                      A                      A
 Frequencies --   3061.1552              3062.2610              3066.8649
 Red. masses --      1.0394                 1.0380                 1.0373
 Frc consts  --      5.7383                 5.7350                 5.7485
 IR Inten    --     30.1780                51.1063                31.3685

                     85                     86                     87
                      A                      A                      A
 Frequencies --   3124.8179              3124.9305              3136.8305
 Red. masses --      1.1037                 1.1017                 1.1005
 Frc consts  --      6.3495                 6.3389                 6.3800
 IR Inten    --     27.6974                50.4658                31.1500

                     88                     89                     90
                      A                      A                      A
 Frequencies --   3137.9969              3154.8404              3159.6602
 Red. masses --      1.1002                 1.1038                 1.1046
 Frc consts  --      6.3832                 6.4730                 6.4971
 IR Inten    --     22.7993                37.6054                32.1259

                     91                     92                     93
                      A                      A                      A
 Frequencies --   3167.4215              3180.4348              3184.7342
 Red. masses --      1.1053                 1.0871                 1.0872
 Frc consts  --      6.5332                 6.4789                 6.4968
 IR Inten    --     17.7641                14.6808                 5.2821

                     94                     95                     96
                      A                      A                      A
 Frequencies --   3193.2038              3195.8138              3202.5839
 Red. masses --      1.0992                 1.0908                 1.0948
 Frc consts  --      6.6038                 6.5640                 6.6161
 IR Inten    --      3.6241                11.6025                57.1757

                     97                     98                     99
                      A                      A                      A
 Frequencies --   3215.7326              3491.5422              3590.7859
 Red. masses --      1.0986                 1.0560                 1.0926
 Frc consts  --      6.6934                 7.5848                 8.3002
 IR Inten    --     23.4305                39.9675                50.2139

 - Thermochemistry -
 -------------------
 Temperature   298.150 Kelvin.  Pressure   1.00000 Atm.
 Atom     1 has atomic number  6 and mass  12.00000

 Molecular mass:   221.14158 amu.
 Principal axes and moments of inertia in atomic units:
                           1         2         3
     Eigenvalues --  2810.460024254.171315689.95281
           X            0.99901   0.04438  -0.00257
           Y           -0.04435   0.99898   0.00901
           Z            0.00297  -0.00889   0.99996
 This molecule is an asymmetric top.
 Rotational symmetry number  1.
 Warning -- assumption of classical behavior for rotation
           may cause significant error
 Rotational temperatures (Kelvin)      0.03082     0.02036     0.01522
 Rotational constants (GHZ):           0.64215     0.42423     0.31718
    1 imaginary frequencies ignored.
 Zero-point vibrational energy     790357.3 (Joules/Mol)
                                  188.89993 (Kcal/Mol)
 Warning -- explicit consideration of  25 degrees of freedom as
           vibrations may cause significant error
 Vibrational temperatures:     46.90    62.61    96.45   102.69   111.37
          (Kelvin)            131.93   179.58   236.84   248.05   266.17
                              288.89   343.96   371.73   392.43   409.64
                              434.92   468.53   506.58   551.92   583.20
                              599.91   613.29   733.62   785.71   841.85
                              920.35   968.93   986.21  1049.16  1096.71
                             1149.52  1166.25  1265.03  1280.86  1365.96
                             1378.18  1409.94  1454.30  1457.16  1473.17
                             1475.54  1490.64  1500.39  1514.75  1522.91
                             1538.77  1590.66  1600.30  1643.45  1697.41
                             1698.85  1733.49  1744.39  1749.14  1787.67
                             1834.36  1875.83  1940.39  1948.41  1957.83
                             2009.00  2029.60  2049.98  2105.18  2123.70
                             2126.66  2130.26  2130.57  2137.95  2146.47
                             2155.52  2162.82  2170.90  2172.31  2218.70
                             2360.65  2372.01  2379.75  2404.77  4393.78
                             4404.32  4405.91  4412.53  4495.92  4496.08
                             4513.20  4514.88  4539.11  4546.05  4557.21
                             4575.94  4582.12  4594.31  4598.06  4607.80
                             4626.72  5023.55  5166.34

 Zero-point correction=                           0.301031 (Hartree/Particle)
 Thermal correction to Energy=                    0.318151
 Thermal correction to Enthalpy=                  0.319095
 Thermal correction to Gibbs Free Energy=         0.255624
 Sum of electronic and zero-point Energies=           -711.734552
 Sum of electronic and thermal Energies=              -711.717432
 Sum of electronic and thermal Enthalpies=            -711.716488
 Sum of electronic and thermal Free Energies=         -711.779959

                     E (Thermal)             CV                S
                      KCal/Mol        Cal/Mol-Kelvin    Cal/Mol-Kelvin
 Total                  199.643             63.138            133.587
 Electronic               0.000              0.000              0.000
 Translational            0.889              2.981             42.084
 Rotational               0.889              2.981             32.587
 Vibrational            197.865             57.177             58.916
 Vibration     1          0.594              1.983              5.665
 Vibration     2          0.595              1.980              5.092
 Vibration     3          0.598              1.970              4.239
 Vibration     4          0.598              1.968              4.115
 Vibration     5          0.599              1.964              3.956
 Vibration     6          0.602              1.955              3.624
 Vibration     7          0.610              1.928              3.024
 Vibration     8          0.623              1.886              2.496
 Vibration     9          0.626              1.876              2.409
 Vibration    10          0.631              1.860              2.277
 Vibration    11          0.638              1.839              2.126
 Vibration    12          0.657              1.781              1.810
 Vibration    13          0.667              1.749              1.673
 Vibration    14          0.676              1.724              1.579
 Vibration    15          0.683              1.702              1.505
 Vibration    16          0.694              1.669              1.404
 Vibration    17          0.710              1.624              1.282
 Vibration    18          0.729              1.571              1.157
 Vibration    19          0.753              1.505              1.025
 Vibration    20          0.770              1.459              0.943
 Vibration    21          0.780              1.433              0.902
 Vibration    22          0.788              1.413              0.871
 Vibration    23          0.865              1.228              0.634
 Vibration    24          0.901              1.148              0.552
 Vibration    25          0.942              1.064              0.476

 Optimization completed.
    -- Stationary point found.
 Normal termination of Gaussian 16 at Sun Feb 14 14:36:55 2021.
