 Gaussian 16, Revision A.03,
 Gaussian 16:  ES64L-G16RevA.03 25-Dec-2016

 ----------------------------------------------------------------------
 # wB97XD def2tzvp, opt=(ts, noeigen, calcfc, maxcycles=70, maxstep=5),
  freq=noraman, scrf=(iefpcm, solvent=water)
 ----------------------------------------------------------------------

 ------------------------
 2_iteration/TS-487-2.out
 ------------------------
 Symbolic Z-matrix:
 Charge =  0 Multiplicity = 1

 SCF Done:  E(RwB97XD) =  -883.910340278     A.U. after   14 cycles
 Optimization completed.
    -- Stationary point found.
 Normal termination of Gaussian 16 at Thu Apr  1 00:18:56 2021.

 ---------------------------------------------------------------------
 #N Geom=AllCheck Guess=TCheck SCRF=Check GenChk RwB97XD/def2TZVP Freq
 ---------------------------------------------------------------------

 Structure from the checkpoint file:  "/beegfs/scratch/user/q/tla25/Gau-91213.chk"
 ------------------------
 2_iteration/TS-487-2.out
 ------------------------
 Charge =  0 Multiplicity = 1

                         Standard orientation:
 ---------------------------------------------------------------------
 Center     Atomic      Atomic             Coordinates (Angstroms)
 Number     Number       Type             X           Y           Z
 ---------------------------------------------------------------------
      1          6           0        1.114210   -0.222700   -0.444601
      2          6           0       -0.184790   -0.826001   -0.391201
      3          8           0       -0.392489   -2.045201   -0.239401
      4          6           0        2.265510   -1.047100   -0.558801
      5          6           0        3.194511   -3.114700    1.432699
      6          1           0        3.006021   -3.524900    2.426899
      7          1           0        3.097521   -3.916100    0.702999
      8          1           0        4.213111   -2.730299    1.400499
      9          7           0        2.256511   -2.046000    1.103199
     10          1           0        1.298811   -2.381600    1.018099
     11          1           0        2.271710   -1.306400    1.794599
     12          6           0        3.619810   -0.385399   -0.469201
     13          1           0        3.821510    0.153401   -1.396801
     14          1           0        3.676910    0.328901    0.350799
     15          1           0        4.402810   -1.133499   -0.347801
     16          6           0        2.274311   -2.207900   -1.528101
     17          1           0        2.420110   -1.793100   -2.528601
     18          1           0        3.106211   -2.885600   -1.334201
     19          1           0        1.340311   -2.760000   -1.512401
     20          6           0        1.255110    1.223700   -0.109901
     21          6           0        1.731809    2.143500   -1.046501
     22          6           0        1.868699    3.489000   -0.735901
     23          6           0        1.514899    3.953100    0.522899
     24          6           0        1.025799    3.059500    1.466099
     25          6           0        0.902609    1.714500    1.151499
     26          1           0        1.996109    1.791900   -2.036901
     27          1           0        2.244199    4.178300   -1.482401
     28          1           0        1.615699    5.003300    0.766299
     29          1           0        0.745399    3.410100    2.451899
     30          1           0        0.522710    1.023000    1.895199
     31          7           0       -1.257990    0.051599   -0.496801
     32          6           0       -2.610890   -0.151211   -0.242201
     33          6           0       -3.189490   -1.397511    0.014399
     34          6           0       -4.553290   -1.489912    0.255899
     35          6           0       -5.367990   -0.368412    0.243099
     36          6           0       -4.795290    0.870288   -0.016701
     37          6           0       -3.437790    0.979688   -0.253901
     38          1           0       -1.003290    1.011889   -0.655801
     39          1           0       -2.566889   -2.276811    0.019399
     40          1           0       -4.981989   -2.465012    0.454099
     41          1           0       -6.430390   -0.455612    0.429799
     42          1           0       -5.409301    1.762288   -0.032401
     43          1           0       -3.003501    1.953689   -0.450301
 ---------------------------------------------------------------------

 SCF Done:  E(RwB97XD) =  -883.910340278     A.U. after    1 cycles

 The electronic state is 1-A.
 Alpha  occ. eigenvalues --  -19.19703 -14.46749 -14.45354 -10.37336 -10.34543
 Alpha  occ. eigenvalues --  -10.33437 -10.31318 -10.29438 -10.28812 -10.28699
 Alpha  occ. eigenvalues --  -10.28674 -10.28648 -10.28589 -10.28476 -10.28390
 Alpha  occ. eigenvalues --  -10.28302 -10.27921 -10.27765 -10.27619 -10.26890
 Alpha  occ. eigenvalues --  -10.24831  -1.12300  -1.03202  -1.02473  -0.96478
 Alpha  occ. eigenvalues --   -0.94956  -0.91674  -0.86360  -0.84771  -0.84610
 Alpha  occ. eigenvalues --   -0.84034  -0.79656  -0.79024  -0.77919  -0.72391
 Alpha  occ. eigenvalues --   -0.70860  -0.69831  -0.69031  -0.66316  -0.63184
 Alpha  occ. eigenvalues --   -0.62164  -0.61580  -0.60652  -0.58073  -0.57051
 Alpha  occ. eigenvalues --   -0.55921  -0.55454  -0.54136  -0.53492  -0.53153
 Alpha  occ. eigenvalues --   -0.52347  -0.51926  -0.51009  -0.50596  -0.50300
 Alpha  occ. eigenvalues --   -0.49787  -0.49449  -0.47611  -0.47291  -0.46956
 Alpha  occ. eigenvalues --   -0.46008  -0.45566  -0.45403  -0.44347  -0.43620
 Alpha  occ. eigenvalues --   -0.42462  -0.42336  -0.41683  -0.39606  -0.38841
 Alpha  occ. eigenvalues --   -0.34396  -0.33537  -0.33421  -0.32085  -0.29816
 Alpha  occ. eigenvalues --   -0.25269
 Alpha virt. eigenvalues --    0.04447   0.05011   0.05584   0.05750   0.08925
 Alpha virt. eigenvalues --    0.09917   0.12464   0.13006   0.13336   0.14136
 Alpha virt. eigenvalues --    0.14713   0.15052   0.16476   0.16492   0.16869

 Mulliken charges:
               1
     1  C   -0.203636
     2  C    0.424246
     3  O   -0.606411
     4  C    0.122271
     5  C   -0.296274
     6  H    0.149741
     7  H    0.153729
     8  H    0.147921
     9  N   -0.326697
    10  H    0.267994
    11  H    0.269968
    12  C   -0.367084
    13  H    0.146709
    14  H    0.148817
    15  H    0.140270
    16  C   -0.397352
    17  H    0.134430
    18  H    0.128591
    19  H    0.155171
    20  C    0.049338
    21  C   -0.221484
    22  C   -0.167400
    23  C   -0.131356
    24  C   -0.144682
    25  C   -0.238843
    26  H    0.147065
    27  H    0.136869
    28  H    0.141561
    29  H    0.138233
    30  H    0.137092
    31  N   -0.255993
    32  C    0.301350
    33  C   -0.308686
    34  C   -0.107547
    35  C   -0.205077
    36  C   -0.097770
    37  C   -0.324566
    38  H    0.247078
    39  H    0.155998
    40  H    0.138687
    41  H    0.138287
    42  H    0.140979
    43  H    0.138461
 Sum of Mulliken charges =  -0.00000

 Dipole moment (field-independent basis, Debye):
    X=              6.7090    Y=              0.3175    Z=              2.8582  Tot=              7.2994
 Quadrupole moment (field-independent basis, Debye-Ang):
   XX=           -113.7969   YY=           -115.0973   ZZ=           -121.3055
   XY=            -14.1773   XZ=              1.9920   YZ=             -7.4701

  Exact polarizability: 383.484  -8.072 362.538 -18.429 -12.395 258.633
 Approx polarizability: 276.241  -0.375 288.618 -16.855  -9.998 223.979

 ******    1 imaginary frequencies (negative Signs) ******

                      1                      2                      3
                      A                      A                      A
 Frequencies --   -377.6730                21.5616                26.6303
 Red. masses --      5.8628                 3.9370                 4.2607
 Frc consts  --      0.4927                 0.0011                 0.0018
 IR Inten    --    964.2038                 1.4731                 0.5207

                      4                      5                      6
                      A                      A                      A
 Frequencies --     44.3230                46.3732                52.4951
 Red. masses --      4.1940                 3.8488                 4.1818
 Frc consts  --      0.0049                 0.0049                 0.0068
 IR Inten    --      1.9582                 2.2567                 4.4195

                      7                      8                      9
                      A                      A                      A
 Frequencies --     81.2667                98.2393               113.8435
 Red. masses --      2.4169                 4.1963                 2.6877
 Frc consts  --      0.0094                 0.0239                 0.0205
 IR Inten    --      1.6955                 1.0884                16.1125

                     10                     11                     12
                      A                      A                      A
 Frequencies --    134.5197               172.7802               184.9802
 Red. masses --      3.9551                 1.1236                 3.4538
 Frc consts  --      0.0422                 0.0198                 0.0696
 IR Inten    --     22.5747                 0.1887                 2.3718

                     13                     14                     15
                      A                      A                      A
 Frequencies --    221.1014               227.6717               242.0172
 Red. masses --      4.8448                 3.3835                 1.5752
 Frc consts  --      0.1395                 0.1033                 0.0544
 IR Inten    --      7.8184                 5.3849                10.0651

                     16                     17                     18
                      A                      A                      A
 Frequencies --    252.9923               268.1648               279.4211
 Red. masses --      3.7942                 1.2131                 2.4975
 Frc consts  --      0.1431                 0.0514                 0.1149
 IR Inten    --      3.8455                12.3488                23.5615

                     19                     20                     21
                      A                      A                      A
 Frequencies --    287.2759               335.3732               365.0322
 Red. masses --      2.1715                 3.0796                 3.2699
 Frc consts  --      0.1056                 0.2041                 0.2567
 IR Inten    --      7.5498                35.4273                 1.7913

                     22                     23                     24
                      A                      A                      A
 Frequencies --    370.3845               397.9491               424.7183
 Red. masses --      5.8763                 3.2127                 3.0160
 Frc consts  --      0.4750                 0.2998                 0.3205
 IR Inten    --      1.0204                37.9074                 0.1848

                     25                     26                     27
                      A                      A                      A
 Frequencies --    424.9061               428.7552               483.7968
 Red. masses --      3.0451                 3.6335                 3.4424
 Frc consts  --      0.3239                 0.3935                 0.4747
 IR Inten    --      0.2850                 2.6858                 5.3117

                     28                     29                     30
                      A                      A                      A
 Frequencies --    521.5710               536.8246               573.2731
 Red. masses --      3.0413                 3.5271                 2.3128
 Frc consts  --      0.4875                 0.5989                 0.4478
 IR Inten    --     26.0316                59.3059                74.1179

                     31                     32                     33
                      A                      A                      A
 Frequencies --    581.5619               612.0051               635.2222
 Red. masses --      1.4480                 5.0523                 6.3079
 Frc consts  --      0.2885                 1.1149                 1.4996
 IR Inten    --    100.0685                 8.8688                 1.0646

                     34                     35                     36
                      A                      A                      A
 Frequencies --    639.3746               682.6468               692.3362
 Red. masses --      6.2869                 1.5265                 3.2136
 Frc consts  --      1.5143                 0.4191                 0.9075
 IR Inten    --      1.8685                46.3988                 4.0272

                     37                     38                     39
                      A                      A                      A
 Frequencies --    718.8770               729.9574               775.2856
 Red. masses --      1.8832                 1.5248                 3.6780
 Frc consts  --      0.5734                 0.4787                 1.3025
 IR Inten    --     65.7944                97.3897                19.6993

                     40                     41                     42
                      A                      A                      A
 Frequencies --    781.7593               790.2288               824.3678
 Red. masses --      1.8539                 5.2885                 3.6866
 Frc consts  --      0.6675                 1.9458                 1.4761
 IR Inten    --    103.0131                83.5650                 3.3069

                     43                     44                     45
                      A                      A                      A
 Frequencies --    860.6932               873.7797               881.2084
 Red. masses --      1.2647                 5.2183                 1.2813
 Frc consts  --      0.5520                 2.3474                 0.5862
 IR Inten    --      0.1484                 1.6186                 1.0156

                     46                     47                     48
                      A                      A                      A
 Frequencies --    920.4424               928.0493               953.2527
 Red. masses --      2.9312                 1.4791                 1.3734
 Frc consts  --      1.4631                 0.7506                 0.7353
 IR Inten    --     32.2462                14.1323                 1.1072

                     49                     50                     51
                      A                      A                      A
 Frequencies --    960.8995               999.4674              1007.8184
 Red. masses --      1.4881                 1.3406                 1.6164
 Frc consts  --      0.8095                 0.7890                 0.9673
 IR Inten    --      4.9384                 0.0245                11.7727

                     52                     53                     54
                      A                      A                      A
 Frequencies --   1013.6870              1014.6073              1017.5067
 Red. masses --      1.2778                 1.3622                 4.7592
 Frc consts  --      0.7736                 0.8262                 2.9031
 IR Inten    --      0.8901                 1.8434                 7.4046

                     55                     56                     57
                      A                      A                      A
 Frequencies --   1022.9614              1026.2756              1026.8472
 Red. masses --      1.8549                 1.8903                 1.9977
 Frc consts  --      1.1436                 1.1730                 1.2410
 IR Inten    --     47.1370                16.0937                 5.0894

                     58                     59                     60
                      A                      A                      A
 Frequencies --   1041.5955              1057.6658              1059.8151
 Red. masses --      1.6705                 1.9985                 2.2777
 Frc consts  --      1.0678                 1.3172                 1.5073
 IR Inten    --     73.6259                32.0407                51.1231

                     61                     62                     63
                      A                      A                      A
 Frequencies --   1061.9352              1068.5051              1093.6983
 Red. masses --      1.3331                 1.8348                 1.9571
 Frc consts  --      0.8858                 1.2342                 1.3793
 IR Inten    --    373.0961                 5.7045                52.1380

                     64                     65                     66
                      A                      A                      A
 Frequencies --   1107.7094              1115.0809              1122.9422
 Red. masses --      1.5690                 1.9512                 1.7100
 Frc consts  --      1.1343                 1.4294                 1.2705
 IR Inten    --     16.6015                13.4399                39.3686

                     67                     68                     69
                      A                      A                      A
 Frequencies --   1180.4380              1180.7069              1205.7721
 Red. masses --      1.1168                 1.1316                 1.1241
 Frc consts  --      0.9169                 0.9294                 0.9629
 IR Inten    --      4.8456                 1.2500                 0.3506

                     70                     71                     72
                      A                      A                      A
 Frequencies --   1206.4216              1213.0187              1241.2583
 Red. masses --      1.1497                 1.3817                 3.3225
 Frc consts  --      0.9859                 1.1978                 3.0161
 IR Inten    --     42.2514                48.6372                31.8988

                     73                     74                     75
                      A                      A                      A
 Frequencies --   1263.3187              1280.1117              1302.2518
 Red. masses --      2.7125                 3.3411                 4.5123
 Frc consts  --      2.5506                 3.2258                 4.5086
 IR Inten    --    604.1875                79.3963                17.3401

                     76                     77                     78
                      A                      A                      A
 Frequencies --   1339.8731              1343.1446              1355.3792
 Red. masses --      2.5149                 4.0250                 1.5215
 Frc consts  --      2.6601                 4.2782                 1.6468
 IR Inten    --     18.6913              1053.6498                11.8257

                     79                     80                     81
                      A                      A                      A
 Frequencies --   1356.5415              1360.0813              1399.4327
 Red. masses --      1.5543                 1.7295                 1.7680
 Frc consts  --      1.6852                 1.8850                 2.0400
 IR Inten    --     53.6790                11.5870               205.3271

                     82                     83                     84
                      A                      A                      A
 Frequencies --   1411.5073              1424.3181              1464.0983
 Red. masses --      1.5002                 1.4470                 1.2340
 Frc consts  --      1.7610                 1.7296                 1.5585
 IR Inten    --     40.8775               203.2339                20.7399

                     85                     86                     87
                      A                      A                      A
 Frequencies --   1470.5940              1477.0699              1480.9087
 Red. masses --      1.7160                 1.1767                 1.0666
 Frc consts  --      2.1865                 1.5125                 1.3781
 IR Inten    --    341.2012                34.8870                 1.3997

                     88                     89                     90
                      A                      A                      A
 Frequencies --   1485.4790              1492.1543              1503.0474
 Red. masses --      2.1546                 1.0558                 1.0746
 Frc consts  --      2.8012                 1.3850                 1.4304
 IR Inten    --     11.9097                18.1116                38.8398

                     91                     92                     93
                      A                      A                      A
 Frequencies --   1509.5720              1511.1073              1539.7296
 Red. masses --      1.1781                 1.0465                 2.3811
 Frc consts  --      1.5817                 1.4079                 3.3260
 IR Inten    --     95.9710                29.2519                47.5583

                     94                     95                     96
                      A                      A                      A
 Frequencies --   1545.1498              1557.2834              1637.1813
 Red. masses --      2.4985                 2.1668                 5.3355
 Frc consts  --      3.5146                 3.0960                 8.4259
 IR Inten    --    293.2846               366.7209               363.6636

                     97                     98                     99
                      A                      A                      A
 Frequencies --   1643.3775              1656.4617              1660.3953
 Red. masses --      5.9733                 1.1420                 3.3186
 Frc consts  --      9.5048                 1.8462                 5.3905
 IR Inten    --    264.1514                69.0574               144.1270

                    100                    101                    102
                      A                      A                      A
 Frequencies --   1668.5358              1674.9063              3058.1253
 Red. masses --      5.4654                 5.9749                 1.0376
 Frc consts  --      8.9649                 9.8756                 5.7172
 IR Inten    --      4.7896               246.3630                64.9686

                    103                    104                    105
                      A                      A                      A
 Frequencies --   3060.3988              3066.3194              3123.1648
 Red. masses --      1.0406                 1.0370                 1.0990
 Frc consts  --      5.7426                 5.7447                 6.3159
 IR Inten    --     35.7232                34.5677                32.8810

                    106                    107                    108
                      A                      A                      A
 Frequencies --   3132.8011              3136.7515              3153.7658
 Red. masses --      1.1001                 1.1001                 1.1037
 Frc consts  --      6.3615                 6.3776                 6.4679
 IR Inten    --     21.1080                37.5916                38.1980

                    109                    110                    111
                      A                      A                      A
 Frequencies --   3164.0997              3182.7923              3183.9609
 Red. masses --      1.1049                 1.0880                 1.0870
 Frc consts  --      6.5176                 6.4940                 6.4926
 IR Inten    --     19.1348                16.7265                11.7604

                    112                    113                    114
                      A                      A                      A
 Frequencies --   3188.2376              3192.5044              3193.4139
 Red. masses --      1.0873                 1.0992                 1.0881
 Frc consts  --      6.5116                 6.6009                 6.5377
 IR Inten    --      3.8270                 5.0441                 3.7138

                    115                    116                    117
                      A                      A                      A
 Frequencies --   3198.7000              3203.3306              3205.5589
 Red. masses --      1.0910                 1.0930                 1.0949
 Frc consts  --      6.5768                 6.6078                 6.6286
 IR Inten    --     10.8688                32.7976                50.6773

                    118                    119                    120
                      A                      A                      A
 Frequencies --   3218.0305              3219.3722              3267.2757
 Red. masses --      1.0987                 1.0978                 1.0924
 Frc consts  --      6.7035                 6.7038                 6.8707
 IR Inten    --     21.9944                25.4390                 6.1630

                    121                    122                    123
                      A                      A                      A
 Frequencies --   3462.1838              3588.2498              3639.2952
 Red. masses --      1.0602                 1.0887                 1.0761
 Frc consts  --      7.4876                 8.2591                 8.3974
 IR Inten    --     82.2176                49.1124                72.7801

 - Thermochemistry -
 -------------------
 Temperature   298.150 Kelvin.  Pressure   1.00000 Atm.
 Atom     1 has atomic number  6 and mass  12.00000

 Molecular mass:   282.17321 amu.
 Principal axes and moments of inertia in atomic units:
                           1         2         3
     Eigenvalues --  4597.871578240.18224**********
           X            0.99951  -0.03128  -0.00155
           Y            0.03127   0.99949  -0.00631
           Z            0.00175   0.00626   0.99998
 This molecule is an asymmetric top.
 Rotational symmetry number  1.
 Warning -- assumption of classical behavior for rotation
           may cause significant error
 Rotational temperatures (Kelvin)      0.01884     0.01051     0.00757
 Rotational constants (GHZ):           0.39252     0.21902     0.15773
    1 imaginary frequencies ignored.
 Zero-point vibrational energy     964173.8 (Joules/Mol)
                                  230.44306 (Kcal/Mol)
 Warning -- explicit consideration of  31 degrees of freedom as
           vibrations may cause significant error
 Vibrational temperatures:     31.02    38.32    63.77    66.72    75.53
          (Kelvin)            116.92   141.34   163.80   193.54   248.59
                              266.15   318.12   327.57   348.21   364.00
                              385.83   402.02   413.33   482.53   525.20
                              532.90   572.56   611.07   611.35   616.88
                              696.08   750.42   772.37   824.81   836.74
                              880.54   913.94   919.92   982.18   996.12
                             1034.30  1050.25  1115.46  1124.78  1136.96
                             1186.08  1238.35  1257.17  1267.86  1324.31
                             1335.26  1371.52  1382.52  1438.01  1450.03
                             1458.47  1459.79  1463.97  1471.81  1476.58
                             1477.40  1498.62  1521.75  1524.84  1527.89
                             1537.34  1573.59  1593.75  1604.35  1615.66
                             1698.39  1698.77  1734.84  1735.77  1745.26
                             1785.89  1817.63  1841.80  1873.65  1927.78
                             1932.49  1950.09  1951.76  1956.85  2013.47
                             2030.84  2049.28  2106.51  2115.86  2125.17
                             2130.70  2137.27  2146.88  2162.55  2171.94
                             2174.15  2215.33  2223.13  2240.58  2355.54
                             2364.45  2383.28  2388.94  2400.65  2409.82
                             4399.96  4403.23  4411.75  4493.54  4507.40
                             4513.09  4537.57  4552.43  4579.33  4581.01
                             4587.16  4593.30  4594.61  4602.22  4608.88
                             4612.08  4630.03  4631.96  4700.88  4981.31
                             5162.69  5236.13

 Zero-point correction=                           0.367234 (Hartree/Particle)
 Thermal correction to Energy=                    0.387393
 Thermal correction to Enthalpy=                  0.388338
 Thermal correction to Gibbs Free Energy=         0.316748
 Sum of electronic and zero-point Energies=           -883.543106
 Sum of electronic and thermal Energies=              -883.522947
 Sum of electronic and thermal Enthalpies=            -883.522003
 Sum of electronic and thermal Free Energies=         -883.593592

                     E (Thermal)             CV                S
                      KCal/Mol        Cal/Mol-Kelvin    Cal/Mol-Kelvin
 Total                  243.093             77.441            150.672
 Electronic               0.000              0.000              0.000
 Translational            0.889              2.981             42.810
 Rotational               0.889              2.981             34.427
 Vibrational            241.316             71.480             73.436
 Vibration     1          0.593              1.985              6.485
 Vibration     2          0.593              1.984              6.066
 Vibration     3          0.595              1.980              5.056
 Vibration     4          0.595              1.979              4.966
 Vibration     5          0.596              1.977              4.721
 Vibration     6          0.600              1.962              3.860
 Vibration     7          0.604              1.950              3.489
 Vibration     8          0.607              1.938              3.202
 Vibration     9          0.613              1.919              2.880
 Vibration    10          0.626              1.876              2.405
 Vibration    11          0.631              1.860              2.278
 Vibration    12          0.648              1.809              1.950
 Vibration    13          0.651              1.799              1.897
 Vibration    14          0.658              1.776              1.788
 Vibration    15          0.664              1.758              1.710
 Vibration    16          0.673              1.732              1.608
 Vibration    17          0.680              1.712              1.537
 Vibration    18          0.684              1.697              1.490
 Vibration    19          0.716              1.605              1.234
 Vibration    20          0.738              1.544              1.101
 Vibration    21          0.742              1.533              1.078
 Vibration    22          0.764              1.475              0.970
 Vibration    23          0.787              1.416              0.876
 Vibration    24          0.787              1.416              0.875
 Vibration    25          0.790              1.408              0.863
 Vibration    26          0.840              1.286              0.700
 Vibration    27          0.877              1.202              0.606
 Vibration    28          0.892              1.169              0.572
 Vibration    29          0.930              1.089              0.498
 Vibration    30          0.938              1.071              0.482
 Vibration    31          0.971              1.006              0.429

 Optimization completed.
    -- Stationary point found.
 Normal termination of Gaussian 16 at Thu Apr  1 03:19:09 2021.
