 Gaussian 16, Revision A.03,
 Gaussian 16:  ES64L-G16RevA.03 25-Dec-2016

 ----------------------------------------------------------------------
 # wB97XD def2tzvp, opt=(ts, noeigen, calcfc, maxcycles=70, maxstep=3),
  freq=noraman, scrf=(iefpcm, solvent=water)
 ----------------------------------------------------------------------

 -----------------------
 0_iteration/TS-48-0.out
 -----------------------
 Symbolic Z-matrix:
 Charge =  0 Multiplicity = 1

 SCF Done:  E(RwB97XD) =  -980.956104222     A.U. after   15 cycles
 SCF Done:  E(RwB97XD) =  -980.956402565     A.U. after   11 cycles
 SCF Done:  E(RwB97XD) =  -980.956636456     A.U. after   11 cycles
 SCF Done:  E(RwB97XD) =  -980.956785953     A.U. after   11 cycles
 SCF Done:  E(RwB97XD) =  -980.956836596     A.U. after   11 cycles
 SCF Done:  E(RwB97XD) =  -980.956837146     A.U. after   10 cycles
 Optimization completed.
    -- Stationary point found.
 Normal termination of Gaussian 16 at Sun Apr 11 22:52:55 2021.

 ---------------------------------------------------------------------
 #N Geom=AllCheck Guess=TCheck SCRF=Check GenChk RwB97XD/def2TZVP Freq
 ---------------------------------------------------------------------

 Structure from the checkpoint file:  "/beegfs/scratch/user/q/tla25/Gau-403443.chk"
 -----------------------
 0_iteration/TS-48-0.out
 -----------------------
 Charge =  0 Multiplicity = 1

                         Standard orientation:
 ---------------------------------------------------------------------
 Center     Atomic      Atomic             Coordinates (Angstroms)
 Number     Number       Type             X           Y           Z
 ---------------------------------------------------------------------
      1          6           0       -0.096482   -0.529911   -0.197020
      2          6           0       -1.209881   -1.423197   -0.286586
      3          8           0       -1.077666   -2.662122   -0.290490
      4          6           0        1.160718   -1.132528   -0.334908
      5          6           0        2.660605   -3.078769    1.284689
      6          1           0        2.687408   -3.786063    2.116052
      7          1           0        2.695117   -3.637271    0.348924
      8          1           0        3.539292   -2.437063    1.335672
      9          7           0        1.463122   -2.253012    1.296107
     10          1           0        0.608093   -2.794359    1.224444
     11          1           0        1.408604   -1.646525    2.103820
     12          6           0        2.443224   -0.393298   -0.399066
     13          6           0        2.833648    0.513821    0.584888
     14          6           0        4.045943    1.174759    0.491558
     15          6           0        4.885398    0.946094   -0.591950
     16          6           0        4.510289    0.040597   -1.572012
     17          6           0        3.301302   -0.632830   -1.467963
     18          1           0        2.183999    0.703217    1.429830
     19          1           0        4.337967    1.872696    1.265968
     20          1           0        5.831416    1.467292   -0.665689
     21          1           0        5.162017   -0.150672   -2.415002
     22          1           0        3.016882   -1.350099   -2.228787
     23          1           0        1.159073   -2.044958   -0.921250
     24          6           0       -0.267405    0.892920    0.192299
     25          6           0       -0.890408    1.235824    1.392289
     26          6           0       -1.063299    2.562270    1.760464
     27          6           0       -0.604306    3.579124    0.935800
     28          6           0        0.023208    3.255920   -0.260307
     29          6           0        0.184134    1.929291   -0.626258
     30          1           0       -1.245338    0.447332    2.045733
     31          1           0       -1.552687    2.801478    2.696713
     32          1           0       -0.735182    4.615366    1.221313
     33          1           0        0.381656    4.041618   -0.914126
     34          1           0        0.665249    1.685238   -1.565880
     35          6           0       -2.607904   -0.876113   -0.373513
     36          6           0       -2.932626    0.172202   -1.229509
     37          6           0       -4.240423    0.622433   -1.325952
     38          6           0       -5.235636    0.041175   -0.552197
     39          6           0       -4.919735   -1.004410    0.304773
     40          6           0       -3.615223   -1.467276    0.382882
     41          1           0       -2.158081    0.634519   -1.827897
     42          1           0       -4.482975    1.430603   -2.004599
     43          1           0       -6.255082    0.399924   -0.619211
     44          1           0       -5.692177   -1.461806    0.910378
     45          1           0       -3.366613   -2.290996    1.040354
 ---------------------------------------------------------------------

 SCF Done:  E(RwB97XD) =  -980.956837146     A.U. after    1 cycles

 The electronic state is 1-A.
 Alpha  occ. eigenvalues --  -19.20862 -14.46417 -10.35266 -10.33661 -10.31217
 Alpha  occ. eigenvalues --  -10.30425 -10.29470 -10.29422 -10.29380 -10.29330
 Alpha  occ. eigenvalues --  -10.29298 -10.29236 -10.29209 -10.29061 -10.29021
 Alpha  occ. eigenvalues --  -10.28975 -10.28929 -10.28915 -10.28602 -10.28573
 Alpha  occ. eigenvalues --  -10.28481 -10.28262 -10.28206 -10.26348  -1.11343
 Alpha  occ. eigenvalues --   -1.02196  -0.97450  -0.96633  -0.96080  -0.90817
 Alpha  occ. eigenvalues --   -0.87066  -0.85575  -0.85289  -0.85007  -0.84529
 Alpha  occ. eigenvalues --   -0.82295  -0.78021  -0.75737  -0.71645  -0.70873
 Alpha  occ. eigenvalues --   -0.70245  -0.69779  -0.69408  -0.67001  -0.63513
 Alpha  occ. eigenvalues --   -0.62847  -0.61462  -0.60188  -0.58385  -0.56784
 Alpha  occ. eigenvalues --   -0.55897  -0.55380  -0.54745  -0.54681  -0.54244
 Alpha  occ. eigenvalues --   -0.53149  -0.52580  -0.52130  -0.51534  -0.50984
 Alpha  occ. eigenvalues --   -0.50802  -0.50368  -0.49860  -0.47860  -0.47664
 Alpha  occ. eigenvalues --   -0.47214  -0.46837  -0.45979  -0.45073  -0.44317
 Alpha  occ. eigenvalues --   -0.43313  -0.43052  -0.42344  -0.42242  -0.41838
 Alpha  occ. eigenvalues --   -0.41055  -0.35072  -0.34290  -0.34226  -0.33539
 Alpha  occ. eigenvalues --   -0.33175  -0.32624  -0.31486  -0.26859
 Alpha virt. eigenvalues --    0.00742   0.03985   0.04521   0.05158   0.06143
 Alpha virt. eigenvalues --    0.06344   0.08701   0.10442   0.12907   0.13135
 Alpha virt. eigenvalues --    0.13347   0.13739   0.14461   0.15380   0.15960

 Mulliken charges:
               1
     1  C   -0.088075
     2  C    0.316514
     3  O   -0.541193
     4  C   -0.115096
     5  C   -0.280315
     6  H    0.148508
     7  H    0.144813
     8  H    0.149938
     9  N   -0.349941
    10  H    0.272565
    11  H    0.268273
    12  C    0.229565
    13  C   -0.244910
    14  C   -0.159503
    15  C   -0.132247
    16  C   -0.151078
    17  C   -0.216459
    18  H    0.170890
    19  H    0.142858
    20  H    0.145801
    21  H    0.143297
    22  H    0.141543
    23  H    0.163036
    24  C    0.123812
    25  C   -0.231950
    26  C   -0.164939
    27  C   -0.134999
    28  C   -0.155572
    29  C   -0.224364
    30  H    0.136405
    31  H    0.136165
    32  H    0.140015
    33  H    0.136460
    34  H    0.142084
    35  C    0.119424
    36  C   -0.223200
    37  C   -0.164074
    38  C   -0.125002
    39  C   -0.158531
    40  C   -0.231421
    41  H    0.159579
    42  H    0.140089
    43  H    0.144105
    44  H    0.140796
    45  H    0.136338
 Sum of Mulliken charges =  -0.00000

 Dipole moment (field-independent basis, Debye):
    X=              5.3198    Y=              0.7914    Z=              3.3392  Tot=              6.3306
 Quadrupole moment (field-independent basis, Debye-Ang):
   XX=           -124.3551   YY=           -139.4570   ZZ=           -129.4625
   XY=            -11.4449   XZ=             -3.0446   YZ=             -9.1022

  Exact polarizability: 451.379   4.961 378.943 -25.181 -11.554 319.948
 Approx polarizability: 323.647   7.460 308.876 -24.481  -8.084 279.378

 ******    1 imaginary frequencies (negative Signs) ******

                      1                      2                      3
                      A                      A                      A
 Frequencies --   -349.0006                28.8595                37.3296
 Red. masses --      5.9141                 5.1687                 4.1026
 Frc consts  --      0.4244                 0.0025                 0.0034
 IR Inten    --    897.7723                 0.1712                 3.1867

                      4                      5                      6
                      A                      A                      A
 Frequencies --     41.9957                44.8585                52.1783
 Red. masses --      4.2562                 4.4726                 3.8862
 Frc consts  --      0.0044                 0.0053                 0.0062
 IR Inten    --      1.5162                 1.9369                 0.4058

                      7                      8                      9
                      A                      A                      A
 Frequencies --     64.4216                71.0347                81.5886
 Red. masses --      3.7502                 3.0943                 3.7265
 Frc consts  --      0.0092                 0.0092                 0.0146
 IR Inten    --      0.4332                 2.9598                 1.3861

                     10                     11                     12
                      A                      A                      A
 Frequencies --    106.2127               117.9500               141.6154
 Red. masses --      4.2126                 2.6432                 2.1971
 Frc consts  --      0.0280                 0.0217                 0.0260
 IR Inten    --      3.8058                14.4765                10.7082

                     13                     14                     15
                      A                      A                      A
 Frequencies --    161.5460               187.9000               203.9228
 Red. masses --      2.6514                 3.2196                 3.9634
 Frc consts  --      0.0408                 0.0670                 0.0971
 IR Inten    --      2.1395                 4.5945                 3.4526

                     16                     17                     18
                      A                      A                      A
 Frequencies --    225.6551               255.7148               256.7849
 Red. masses --      3.1652                 4.7990                 3.9427
 Frc consts  --      0.0950                 0.1849                 0.1532
 IR Inten    --      3.3270                 4.9299                23.0186

                     19                     20                     21
                      A                      A                      A
 Frequencies --    279.3575               345.1623               360.1949
 Red. masses --      4.3630                 4.2890                 8.9583
 Frc consts  --      0.2006                 0.3011                 0.6848
 IR Inten    --     14.6096                54.0142                11.1774

                     22                     23                     24
                      A                      A                      A
 Frequencies --    408.7075               420.9884               422.2692
 Red. masses --      4.8410                 2.8809                 2.9204
 Frc consts  --      0.4764                 0.3008                 0.3068
 IR Inten    --      3.1110                 2.4519                 0.8407

                     25                     26                     27
                      A                      A                      A
 Frequencies --    425.7628               499.8288               511.6280
 Red. masses --      2.8817                 4.3059                 4.3249
 Frc consts  --      0.3078                 0.6338                 0.6670
 IR Inten    --      1.5644                 6.8211                27.6271

                     28                     29                     30
                      A                      A                      A
 Frequencies --    530.8435               565.7550               580.9682
 Red. masses --      3.8503                 2.3271                 4.0408
 Frc consts  --      0.6393                 0.4389                 0.8036
 IR Inten    --     27.5005                45.0173                80.8088

                     31                     32                     33
                      A                      A                      A
 Frequencies --    625.8301               636.0370               636.9476
 Red. masses --      2.5349                 6.0726                 4.8628
 Frc consts  --      0.5850                 1.4474                 1.1624
 IR Inten    --    132.3553                 4.1451                15.8015

                     34                     35                     36
                      A                      A                      A
 Frequencies --    639.1955               668.8801               688.3853
 Red. masses --      6.2050                 4.8180                 4.0911
 Frc consts  --      1.4937                 1.2700                 1.1422
 IR Inten    --      2.6260                24.9403                 1.4562

                     37                     38                     39
                      A                      A                      A
 Frequencies --    724.6714               725.6629               726.4727
 Red. masses --      1.6996                 1.5320                 1.5678
 Frc consts  --      0.5259                 0.4753                 0.4875
 IR Inten    --     54.1264                90.9785               125.8076

                     40                     41                     42
                      A                      A                      A
 Frequencies --    744.1991               756.6367               798.3860
 Red. masses --      3.6620                 3.0570                 2.1173
 Frc consts  --      1.1950                 1.0312                 0.7952
 IR Inten    --      0.8979                89.4135                19.0238

                     43                     44                     45
                      A                      A                      A
 Frequencies --    816.7210               821.8176               840.1144
 Red. masses --      3.1256                 3.1203                 3.8963
 Frc consts  --      1.2284                 1.2416                 1.6202
 IR Inten    --     51.5671                20.6588                24.2455

                     46                     47                     48
                      A                      A                      A
 Frequencies --    875.4823               880.2829               880.8107
 Red. masses --      1.2543                 1.2480                 1.2477
 Frc consts  --      0.5664                 0.5698                 0.5703
 IR Inten    --      0.8797                 0.5764                 0.5474

                     49                     50                     51
                      A                      A                      A
 Frequencies --    943.5228               954.4867               964.2767
 Red. masses --      2.3037                 1.6368                 1.4723
 Frc consts  --      1.2083                 0.8786                 0.8066
 IR Inten    --     39.0760                 4.8242                 5.4971

                     52                     53                     54
                      A                      A                      A
 Frequencies --    968.6870               980.9848              1009.7067
 Red. masses --      1.5354                 1.2578                 1.3788
 Frc consts  --      0.8489                 0.7132                 0.8282
 IR Inten    --     10.8307                94.9550                 0.9396

                     55                     56                     57
                      A                      A                      A
 Frequencies --   1013.4654              1015.5571              1016.4066
 Red. masses --      1.1389                 1.3652                 1.3683
 Frc consts  --      0.6892                 0.8296                 0.8329
 IR Inten    --     82.6601                 2.5158                 6.6105

                     58                     59                     60
                      A                      A                      A
 Frequencies --   1024.2719              1026.0472              1026.7603
 Red. masses --      1.3116                 6.1869                 5.5493
 Frc consts  --      0.8107                 3.8376                 3.4469
 IR Inten    --      0.1039                 0.1383                 1.9127

                     61                     62                     63
                      A                      A                      A
 Frequencies --   1027.3870              1030.2602              1033.0248
 Red. masses --      5.4771                 1.3376                 1.3259
 Frc consts  --      3.4062                 0.8365                 0.8336
 IR Inten    --      0.2512                 0.6645                 0.5160

                     64                     65                     66
                      A                      A                      A
 Frequencies --   1057.7403              1061.0222              1064.2261
 Red. masses --      2.5844                 2.2184                 2.0503
 Frc consts  --      1.7036                 1.4714                 1.3681
 IR Inten    --     14.7883                44.3526                 7.4857

                     67                     68                     69
                      A                      A                      A
 Frequencies --   1080.0800              1107.7151              1109.5655
 Red. masses --      3.7334                 1.6345                 1.6657
 Frc consts  --      2.5660                 1.1817                 1.2083
 IR Inten    --    223.0142                 8.5726                21.0154

                     70                     71                     72
                      A                      A                      A
 Frequencies --   1113.7478              1130.1566              1151.2172
 Red. masses --      1.6452                 2.2236                 1.3539
 Frc consts  --      1.2024                 1.6734                 1.0572
 IR Inten    --      8.7937                28.5017               235.5581

                     73                     74                     75
                      A                      A                      A
 Frequencies --   1180.0931              1182.9642              1184.5030
 Red. masses --      1.1307                 1.1384                 1.2186
 Frc consts  --      0.9277                 0.9386                 1.0073
 IR Inten    --      0.0367                 1.0532                10.9444

                     76                     77                     78
                      A                      A                      A
 Frequencies --   1184.9849              1204.7861              1206.2669
 Red. masses --      1.2929                 1.3455                 1.1566
 Frc consts  --      1.0697                 1.1507                 0.9915
 IR Inten    --     12.7909                 1.3961                 0.8376

                     79                     80                     81
                      A                      A                      A
 Frequencies --   1208.2903              1213.8707              1243.0391
 Red. masses --      1.8296                 1.1251                 1.7736
 Frc consts  --      1.5738                 0.9768                 1.6146
 IR Inten    --     10.3655                 0.5936                14.0076

                     82                     83                     84
                      A                      A                      A
 Frequencies --   1308.3513              1321.6918              1327.5252
 Red. masses --      4.3895                 4.0194                 4.4789
 Frc consts  --      4.4271                 4.1369                 4.6506
 IR Inten    --     30.8796               103.0861                 5.9690

                     85                     86                     87
                      A                      A                      A
 Frequencies --   1341.8221              1346.2223              1357.4001
 Red. masses --      1.4766                 2.8155                 1.4542
 Frc consts  --      1.5664                 3.0063                 1.5787
 IR Inten    --     79.5235               336.4502                 1.1869

                     88                     89                     90
                      A                      A                      A
 Frequencies --   1358.5476              1369.0374              1403.4180
 Red. masses --      1.5467                 1.4410                 3.3821
 Frc consts  --      1.6819                 1.5912                 3.9248
 IR Inten    --     20.3134               162.2286                46.4162

                     91                     92                     93
                      A                      A                      A
 Frequencies --   1449.3386              1464.8177              1487.3244
 Red. masses --      2.2750                 1.3520                 2.2148
 Frc consts  --      2.8156                 1.7092                 2.8866
 IR Inten    --    673.9130               147.7360                10.8592

                     94                     95                     96
                      A                      A                      A
 Frequencies --   1488.4367              1491.2649              1502.7985
 Red. masses --      1.0489                 2.2829                 1.5395
 Frc consts  --      1.3691                 2.9912                 2.0485
 IR Inten    --     18.7139                38.3975               113.4912

                     97                     98                     99
                      A                      A                      A
 Frequencies --   1506.4841              1540.8592              1545.0547
 Red. masses --      1.3530                 2.3293                 2.5019
 Frc consts  --      1.8091                 3.2583                 3.5189
 IR Inten    --     70.4825                 4.0566                27.1124

                    100                    101                    102
                      A                      A                      A
 Frequencies --   1550.1907              1605.3933              1643.6107
 Red. masses --      2.5121                 8.9393                 5.7725
 Frc consts  --      3.5568                13.5742                 9.1877
 IR Inten    --     14.2720               570.5503                 8.7010

                    103                    104                    105
                      A                      A                      A
 Frequencies --   1651.2743              1652.9453              1656.8811
 Red. masses --      1.1785                 5.5008                 4.6078
 Frc consts  --      1.8933                 8.8550                 7.4530
 IR Inten    --     43.0537                17.3430                40.2585

                    106                    107                    108
                      A                      A                      A
 Frequencies --   1672.5800              1674.0622              1678.7502
 Red. masses --      5.9568                 5.8907                 5.8637
 Frc consts  --      9.8183                 9.7265                 9.7363
 IR Inten    --     11.9172                 5.5784                 0.6939

                    109                    110                    111
                      A                      A                      A
 Frequencies --   3053.4255              3126.2404              3150.8574
 Red. masses --      1.0351                 1.1029                 1.1046
 Frc consts  --      5.6857                 6.3508                 6.4613
 IR Inten    --     79.0272                25.8349                21.1989

                    112                    113                    114
                      A                      A                      A
 Frequencies --   3169.9990              3185.7289              3189.1422
 Red. masses --      1.0892                 1.0861                 1.0878
 Frc consts  --      6.4489                 6.4943                 6.5185
 IR Inten    --     14.7763                 9.4613                 1.3520

                    115                    116                    117
                      A                      A                      A
 Frequencies --   3192.3419              3193.1624              3198.3374
 Red. masses --      1.0871                 1.0857                 1.0879
 Frc consts  --      6.5275                 6.5220                 6.5567
 IR Inten    --      5.4011                 0.8126                 0.3346

                    118                    119                    120
                      A                      A                      A
 Frequencies --   3199.3232              3200.5808              3205.7380
 Red. masses --      1.0912                 1.0883                 1.0951
 Frc consts  --      6.5809                 6.5685                 6.6305
 IR Inten    --     13.7471                 1.7843                51.1978

                    121                    122                    123
                      A                      A                      A
 Frequencies --   3207.1040              3209.1037              3215.3195
 Red. masses --      1.0913                 1.0918                 1.0950
 Frc consts  --      6.6135                 6.6246                 6.6696
 IR Inten    --     14.9644                15.5703                40.5534

                    124                    125                    126
                      A                      A                      A
 Frequencies --   3215.6527              3217.8311              3222.2386
 Red. masses --      1.0948                 1.0987                 1.0986
 Frc consts  --      6.6698                 6.7028                 6.7206
 IR Inten    --     33.9238                19.3905                17.8980

                    127                    128                    129
                      A                      A                      A
 Frequencies --   3223.4322              3515.1144              3614.0744
 Red. masses --      1.0988                 1.0526                 1.0952
 Frc consts  --      6.7269                 7.6628                 8.4282
 IR Inten    --     14.0528                26.1030                51.9892

 - Thermochemistry -
 -------------------
 Temperature   298.150 Kelvin.  Pressure   1.00000 Atm.
 Atom     1 has atomic number  6 and mass  12.00000

 Molecular mass:   315.16231 amu.
 Principal axes and moments of inertia in atomic units:
                           1         2         3
     Eigenvalues --  4545.84602********************
           X            0.99992  -0.01289  -0.00037
           Y            0.01288   0.99977  -0.01738
           Z            0.00060   0.01737   0.99985
 This molecule is an asymmetric top.
 Rotational symmetry number  1.
 Warning -- assumption of classical behavior for rotation
           may cause significant error
 Rotational temperatures (Kelvin)      0.01905     0.00827     0.00671
 Rotational constants (GHZ):           0.39701     0.17237     0.13977
    1 imaginary frequencies ignored.
 Zero-point vibrational energy     985349.1 (Joules/Mol)
                                  235.50410 (Kcal/Mol)
 Warning -- explicit consideration of  29 degrees of freedom as
           vibrations may cause significant error
 Vibrational temperatures:     41.52    53.71    60.42    64.54    75.07
          (Kelvin)             92.69   102.20   117.39   152.82   169.70
                              203.75   232.43   270.35   293.40   324.67
                              367.92   369.46   401.93   496.61   518.24
                              588.04   605.71   607.55   612.58   719.14
                              736.12   763.77   814.00   835.88   900.43
                              915.12   916.43   919.66   962.37   990.43
                             1042.64  1044.07  1045.23  1070.74  1088.63
                             1148.70  1175.08  1182.41  1208.74  1259.62
                             1266.53  1267.29  1357.52  1373.29  1387.38
                             1393.72  1411.42  1452.74  1458.15  1461.16
                             1462.38  1473.70  1476.25  1477.28  1478.18
                             1482.31  1486.29  1521.85  1526.57  1531.18
                             1553.99  1593.75  1596.42  1602.43  1626.04
                             1656.34  1697.89  1702.02  1704.24  1704.93
                             1733.42  1735.55  1738.46  1746.49  1788.46
                             1882.43  1901.62  1910.01  1930.58  1936.91
                             1953.00  1954.65  1969.74  2019.21  2085.27
                             2107.55  2139.93  2141.53  2145.60  2162.19
                             2167.49  2216.95  2222.99  2230.38  2309.80
                             2364.79  2375.82  2378.22  2383.88  2406.47
                             2408.60  2415.35  4393.20  4497.96  4533.38
                             4560.92  4583.55  4588.46  4593.07  4594.25
                             4601.69  4603.11  4604.92  4612.34  4614.31
                             4617.18  4626.13  4626.61  4629.74  4636.08
                             4637.80  5057.47  5199.85

 Zero-point correction=                           0.375300 (Hartree/Particle)
 Thermal correction to Energy=                    0.396264
 Thermal correction to Enthalpy=                  0.397208
 Thermal correction to Gibbs Free Energy=         0.323248
 Sum of electronic and zero-point Energies=           -980.581537
 Sum of electronic and thermal Energies=              -980.560573
 Sum of electronic and thermal Enthalpies=            -980.559629
 Sum of electronic and thermal Free Energies=         -980.633589

                     E (Thermal)             CV                S
                      KCal/Mol        Cal/Mol-Kelvin    Cal/Mol-Kelvin
 Total                  248.660             80.565            155.662
 Electronic               0.000              0.000              0.000
 Translational            0.889              2.981             43.140
 Rotational               0.889              2.981             34.773
 Vibrational            246.882             74.604             77.749
 Vibration     1          0.593              1.984              5.906
 Vibration     2          0.594              1.982              5.396
 Vibration     3          0.595              1.980              5.163
 Vibration     4          0.595              1.979              5.032
 Vibration     5          0.596              1.977              4.733
 Vibration     6          0.597              1.971              4.317
 Vibration     7          0.598              1.968              4.124
 Vibration     8          0.600              1.962              3.852
 Vibration     9          0.605              1.944              3.337
 Vibration    10          0.608              1.934              3.134
 Vibration    11          0.615              1.912              2.782
 Vibration    12          0.622              1.890              2.532
 Vibration    13          0.633              1.856              2.248
 Vibration    14          0.640              1.834              2.097
 Vibration    15          0.650              1.802              1.913
 Vibration    16          0.666              1.753              1.691
 Vibration    17          0.666              1.751              1.684
 Vibration    18          0.680              1.712              1.538
 Vibration    19          0.724              1.585              1.188
 Vibration    20          0.735              1.554              1.121
 Vibration    21          0.773              1.451              0.931
 Vibration    22          0.783              1.425              0.889
 Vibration    23          0.785              1.422              0.884
 Vibration    24          0.788              1.414              0.873
 Vibration    25          0.855              1.250              0.659
 Vibration    26          0.867              1.224              0.630
 Vibration    27          0.886              1.182              0.585
 Vibration    28          0.922              1.105              0.512
 Vibration    29          0.938              1.072              0.484

 Optimization completed.
    -- Stationary point found.
 Normal termination of Gaussian 16 at Mon Apr 12 00:47:40 2021.
