 Gaussian 16, Revision A.03,
 Gaussian 16:  ES64L-G16RevA.03 25-Dec-2016

 ----------------------------------------------------------------------
 # wB97XD def2tzvp, opt=(ts, noeigen, calcfc, maxcycles=70, maxstep=8),
  freq=noraman, scrf=(iefpcm, solvent=water)
 ----------------------------------------------------------------------

 ------------------------
 1_iteration/TS-473-1.out
 ------------------------
 Symbolic Z-matrix:
 Charge =  0 Multiplicity = 1

 SCF Done:  E(RwB97XD) =  -786.721507186     A.U. after   14 cycles
 SCF Done:  E(RwB97XD) =  -786.721611305     A.U. after   12 cycles
 SCF Done:  E(RwB97XD) =  -786.721610292     A.U. after   13 cycles
 SCF Done:  E(RwB97XD) =  -786.721671703     A.U. after   12 cycles
 SCF Done:  E(RwB97XD) =  -786.721677176     A.U. after   10 cycles
 SCF Done:  E(RwB97XD) =  -786.721677677     A.U. after    9 cycles
 SCF Done:  E(RwB97XD) =  -786.721677781     A.U. after    7 cycles
 Optimization completed.
    -- Stationary point found.
 Normal termination of Gaussian 16 at Sat Feb 13 22:36:56 2021.

 ---------------------------------------------------------------------
 #N Geom=AllCheck Guess=TCheck SCRF=Check GenChk RwB97XD/def2TZVP Freq
 ---------------------------------------------------------------------

 Structure from the checkpoint file:  "/beegfs/scratch/user/q/tla25/Gau-29936.chk"
 ------------------------
 1_iteration/TS-473-1.out
 ------------------------
 Charge =  0 Multiplicity = 1

                         Standard orientation:
 ---------------------------------------------------------------------
 Center     Atomic      Atomic             Coordinates (Angstroms)
 Number     Number       Type             X           Y           Z
 ---------------------------------------------------------------------
      1          6           0        0.756385    0.072854    0.285545
      2          6           0        1.507778    1.257546    0.450443
      3          8           0        2.648100    1.492729    0.056129
      4          6           0       -0.544959   -0.043567    0.755007
      5          6           0       -3.215289    0.670693   -0.411665
      6          1           0       -3.758324    1.196567   -1.198787
      7          1           0       -3.614670   -0.337781   -0.326730
      8          1           0       -3.371740    1.190872    0.533042
      9          7           0       -1.781844    0.601153   -0.686563
     10          1           0       -1.582098    0.014338   -1.488165
     11          1           0       -1.395790    1.517582   -0.878123
     12          6           0       -1.194351   -1.361606    1.040173
     13          1           0       -2.231546   -1.238045    1.343464
     14          1           0       -1.146164   -2.029872    0.181628
     15          1           0       -0.656670   -1.837503    1.863345
     16          1           0       -0.835190    0.764306    1.419359
     17         17           0        1.474549   -1.234931   -0.637362
     18          1           0        0.955575    2.027942    1.026014
 ---------------------------------------------------------------------

 SCF Done:  E(RwB97XD) =  -786.721677781     A.U. after    1 cycles

 The electronic state is 1-A.
 Alpha  occ. eigenvalues -- -101.68761 -19.21281 -14.47301 -10.35106 -10.34998
 Alpha  occ. eigenvalues --  -10.31622 -10.31010 -10.28612  -9.57292  -7.31904
 Alpha  occ. eigenvalues --   -7.31089  -7.31079  -1.11638  -1.02910  -0.96509
 Alpha  occ. eigenvalues --   -0.88558  -0.81439  -0.78528  -0.70400  -0.63880
 Alpha  occ. eigenvalues --   -0.61916  -0.58538  -0.55816  -0.54618  -0.53239
 Alpha  occ. eigenvalues --   -0.50016  -0.49505  -0.48669  -0.47775  -0.47199
 Alpha  occ. eigenvalues --   -0.45380  -0.42159  -0.40181  -0.39183  -0.33087
 Alpha  occ. eigenvalues --   -0.28069
 Alpha virt. eigenvalues --    0.03988   0.09457   0.11900   0.13162   0.14073
 Alpha virt. eigenvalues --    0.14314   0.16378   0.17884   0.18610   0.19632
 Alpha virt. eigenvalues --    0.20215   0.20360   0.20943   0.23560   0.23997

 Mulliken charges:
               1
     1  C    0.013361
     2  C    0.050747
     3  O   -0.496112
     4  C   -0.086897
     5  C   -0.289609
     6  H    0.151051
     7  H    0.157159
     8  H    0.152256
     9  N   -0.372895
    10  H    0.279583
    11  H    0.277350
    12  C   -0.350956
    13  H    0.148322
    14  H    0.142010
    15  H    0.152806
    16  H    0.174103
    17  Cl  -0.177673
    18  H    0.075394
 Sum of Mulliken charges =   0.00000

 Dipole moment (field-independent basis, Debye):
    X=            -12.2056    Y=             -0.0206    Z=              0.0695  Tot=             12.2058
 Quadrupole moment (field-independent basis, Debye-Ang):
   XX=            -64.6868   YY=            -57.0954   ZZ=            -52.2757
   XY=             -9.2479   XZ=              3.4151   YZ=             -0.8516

  Exact polarizability: 169.175   8.743 115.490  -1.057   4.739  97.040
 Approx polarizability: 125.863   5.345  95.514  -3.183   3.903  84.955

 ******    1 imaginary frequencies (negative Signs) ******

                      1                      2                      3
                      A                      A                      A
 Frequencies --   -321.1380                41.4323                87.7343
 Red. masses --      5.9286                 2.5030                 3.5108
 Frc consts  --      0.3602                 0.0025                 0.0159
 IR Inten    --    890.9507                 3.4858                 1.9138

                      4                      5                      6
                      A                      A                      A
 Frequencies --     99.0533               170.7698               200.0588
 Red. masses --      3.8760                 1.1553                 2.8881
 Frc consts  --      0.0224                 0.0199                 0.0681
 IR Inten    --     13.4795                 1.0022                16.8240

                      7                      8                      9
                      A                      A                      A
 Frequencies --    213.8693               224.4905               242.9189
 Red. masses --      5.9307                 2.6349                 1.3306
 Frc consts  --      0.1598                 0.0782                 0.0463
 IR Inten    --      9.3573                 1.1306                 0.0875

                     10                     11                     12
                      A                      A                      A
 Frequencies --    309.2382               356.5179               478.7759
 Red. masses --      3.0094                 2.3572                 3.3521
 Frc consts  --      0.1696                 0.1765                 0.4527
 IR Inten    --     16.5236                12.5423                11.3986

                     13                     14                     15
                      A                      A                      A
 Frequencies --    491.7381               603.9802               636.4832
 Red. masses --      4.5074                 2.3277                 2.1184
 Frc consts  --      0.6422                 0.5003                 0.5056
 IR Inten    --    172.3725                24.7374                71.6193

                     16                     17                     18
                      A                      A                      A
 Frequencies --    687.3631               960.8753               999.8627
 Red. masses --      3.9105                 1.3803                 1.1871
 Frc consts  --      1.0886                 0.7509                 0.6992
 IR Inten    --     38.8885                49.8431                 5.2959

                     19                     20                     21
                      A                      A                      A
 Frequencies --   1015.5337              1022.3827              1037.3943
 Red. masses --      1.5605                 1.1305                 1.4024
 Frc consts  --      0.9482                 0.6962                 0.8892
 IR Inten    --      6.7679               133.2256                77.0955

                     22                     23                     24
                      A                      A                      A
 Frequencies --   1067.2201              1120.6209              1144.7562
 Red. masses --      3.5843                 2.5515                 1.2785
 Frc consts  --      2.4053                 1.8878                 0.9871
 IR Inten    --    167.3049                 7.0556                68.4951

                     25                     26                     27
                      A                      A                      A
 Frequencies --   1212.5724              1250.4620              1293.4282
 Red. masses --      1.4045                 1.8408                 2.6012
 Frc consts  --      1.2167                 1.6959                 2.5640
 IR Inten    --     20.3872               222.7006                17.1555

                     28                     29                     30
                      A                      A                      A
 Frequencies --   1345.0849              1407.8544              1425.2001
 Red. masses --      1.3202                 1.2633                 1.3145
 Frc consts  --      1.4073                 1.4753                 1.5731
 IR Inten    --      1.2883                74.8681               104.9411

                     31                     32                     33
                      A                      A                      A
 Frequencies --   1459.8518              1477.3110              1484.7705
 Red. masses --      1.1866                 1.1023                 1.0555
 Frc consts  --      1.4899                 1.4174                 1.3710
 IR Inten    --     29.2957                35.4726                 6.5522

                     34                     35                     36
                      A                      A                      A
 Frequencies --   1495.0328              1508.0670              1530.7730
 Red. masses --      1.0496                 1.0501                 2.7635
 Frc consts  --      1.3822                 1.4071                 3.8153
 IR Inten    --     12.5998                54.8411               569.4541

                     37                     38                     39
                      A                      A                      A
 Frequencies --   1647.1554              1681.8670              2909.1049
 Red. masses --      1.0896                 8.0731                 1.0811
 Frc consts  --      1.7417                13.4547                 5.3904
 IR Inten    --     76.7167              1088.2531               140.4745

                     40                     41                     42
                      A                      A                      A
 Frequencies --   3061.0128              3068.1046              3134.2192
 Red. masses --      1.0356                 1.0390                 1.1033
 Frc consts  --      5.7173                 5.7627                 6.3854
 IR Inten    --     60.8770                10.0098                21.3677

                     43                     44                     45
                      A                      A                      A
 Frequencies --   3138.9864              3163.3995              3166.0965
 Red. masses --      1.0978                 1.1034                 1.1000
 Frc consts  --      6.3732                 6.5058                 6.4969
 IR Inten    --     15.2891                15.4087                12.6980

                     46                     47                     48
                      A                      A                      A
 Frequencies --   3180.2020              3530.3211              3612.5513
 Red. masses --      1.0938                 1.0508                 1.0961
 Frc consts  --      6.5177                 7.7162                 8.4284
 IR Inten    --     18.4995                17.4660                35.4858

 - Thermochemistry -
 -------------------
 Temperature   298.150 Kelvin.  Pressure   1.00000 Atm.
 Atom     1 has atomic number  6 and mass  12.00000

 Molecular mass:   135.04509 amu.
 Principal axes and moments of inertia in atomic units:
                           1         2         3
     Eigenvalues --   782.637801856.036302216.74909
           X            0.99997  -0.00072   0.00823
           Y            0.00112   0.99877  -0.04964
           Z           -0.00818   0.04964   0.99873
 This molecule is an asymmetric top.
 Rotational symmetry number  1.
 Warning -- assumption of classical behavior for rotation
           may cause significant error
 Rotational temperatures (Kelvin)      0.11067     0.04667     0.03907
 Rotational constants (GHZ):           2.30597     0.97236     0.81414
    1 imaginary frequencies ignored.
 Zero-point vibrational energy     391157.9 (Joules/Mol)
                                   93.48899 (Kcal/Mol)
 Warning -- explicit consideration of  13 degrees of freedom as
           vibrations may cause significant error
 Vibrational temperatures:     59.61   126.23   142.52   245.70   287.84
          (Kelvin)            307.71   322.99   349.51   444.92   512.95
                              688.85   707.50   868.99   915.76   988.96
                             1382.49  1438.58  1461.13  1470.98  1492.58
                             1535.49  1612.32  1647.05  1744.62  1799.14
                             1860.95  1935.28  2025.59  2050.55  2100.40
                             2125.52  2136.25  2151.02  2169.77  2202.44
                             2369.89  2419.83  4185.55  4404.11  4414.32
                             4509.44  4516.30  4551.43  4555.31  4575.60
                             5079.34  5197.66

 Zero-point correction=                           0.148984 (Hartree/Particle)
 Thermal correction to Energy=                    0.158894
 Thermal correction to Enthalpy=                  0.159839
 Thermal correction to Gibbs Free Energy=         0.112921
 Sum of electronic and zero-point Energies=           -786.572694
 Sum of electronic and thermal Energies=              -786.562783
 Sum of electronic and thermal Enthalpies=            -786.561839
 Sum of electronic and thermal Free Energies=         -786.608757

                     E (Thermal)             CV                S
                      KCal/Mol        Cal/Mol-Kelvin    Cal/Mol-Kelvin
 Total                   99.708             33.646             98.746
 Electronic               0.000              0.000              0.000
 Translational            0.889              2.981             40.614
 Rotational               0.889              2.981             29.555
 Vibrational             97.930             27.685             28.577
 Vibration     1          0.594              1.981              5.189
 Vibration     2          0.601              1.958              3.710
 Vibration     3          0.604              1.950              3.473
 Vibration     4          0.626              1.878              2.427
 Vibration     5          0.638              1.840              2.133
 Vibration     6          0.644              1.820              2.010
 Vibration     7          0.649              1.804              1.923
 Vibration     8          0.659              1.774              1.781
 Vibration     9          0.699              1.656              1.366
 Vibration    10          0.732              1.562              1.137
 Vibration    11          0.835              1.297              0.713
 Vibration    12          0.847              1.268              0.679
 Vibration    13          0.962              1.023              0.443

 Optimization completed.
    -- Stationary point found.
 Normal termination of Gaussian 16 at Sat Feb 13 22:44:08 2021.
