 Gaussian 16, Revision A.03,
 Gaussian 16:  ES64L-G16RevA.03 25-Dec-2016

 ----------------------------------------------------------------------
 # wB97XD def2tzvp, opt=(ts, noeigen, calcfc, maxcycles=70, maxstep=5),
  freq=noraman, scrf=(iefpcm, solvent=water)
 ----------------------------------------------------------------------

 ------------------------
 2_iteration/TS-482-2.out
 ------------------------
 Symbolic Z-matrix:
 Charge =  0 Multiplicity = 1

 SCF Done:  E(RwB97XD) =  -636.790253729     A.U. after   15 cycles
 SCF Done:  E(RwB97XD) =  -636.790885490     A.U. after   12 cycles
 SCF Done:  E(RwB97XD) =  -636.790949735     A.U. after   12 cycles
 SCF Done:  E(RwB97XD) =  -636.790987270     A.U. after   10 cycles
 SCF Done:  E(RwB97XD) =  -636.790990151     A.U. after    9 cycles
 SCF Done:  E(RwB97XD) =  -636.790990002     A.U. after    7 cycles
 Optimization completed.
    -- Stationary point found.
 Normal termination of Gaussian 16 at Sun Feb 14 12:09:16 2021.

 ---------------------------------------------------------------------
 #N Geom=AllCheck Guess=TCheck SCRF=Check GenChk RwB97XD/def2TZVP Freq
 ---------------------------------------------------------------------

 Structure from the checkpoint file:  "/beegfs/scratch/user/q/tla25/Gau-81448.chk"
 ------------------------
 2_iteration/TS-482-2.out
 ------------------------
 Charge =  0 Multiplicity = 1

                         Standard orientation:
 ---------------------------------------------------------------------
 Center     Atomic      Atomic             Coordinates (Angstroms)
 Number     Number       Type             X           Y           Z
 ---------------------------------------------------------------------
      1          6           0        0.308943    0.602294    0.183896
      2          6           0        0.529224    1.940208   -0.234410
      3          8           0       -0.418091    2.684468   -0.571273
      4          6           0        1.281662   -0.354476    0.623226
      5          6           0        2.999266   -2.174023   -0.925895
      6          1           0        3.194590   -2.557997   -1.927530
      7          1           0        3.900802   -1.699745   -0.545483
      8          1           0        2.729704   -3.004041   -0.276556
      9          7           0        1.907536   -1.195360   -0.939176
     10          1           0        2.134998   -0.400964   -1.526753
     11          1           0        1.061243   -1.604505   -1.320330
     12          6           0        0.735593   -1.571688    1.347674
     13          1           0        0.376896   -1.256269    2.329296
     14          1           0       -0.100313   -2.031521    0.824525
     15          1           0        1.512853   -2.318529    1.504808
     16          6           0        2.602639    0.070027    1.236753
     17          1           0        2.400827    0.698156    2.105232
     18          1           0        3.158084   -0.802296    1.579519
     19          1           0        3.241000    0.628561    0.560243
     20          6           0       -1.110550    0.140735    0.057335
     21          6           0       -1.604175   -0.356984   -1.148773
     22          6           0       -2.912602   -0.805930   -1.267161
     23          6           0       -3.764901   -0.759797   -0.173316
     24          6           0       -3.296405   -0.257680    1.033329
     25          6           0       -1.986236    0.185877    1.141670
     26          1           0       -0.952705   -0.381774   -2.015769
     27          1           0       -3.267304   -1.190111   -2.216018
     28          1           0       -4.786263   -1.108965   -0.260704
     29          1           0       -3.954055   -0.212351    1.893170
     30          1           0       -1.626550    0.573425    2.088038
     31          6           0        1.916000    2.565519   -0.313787
     32          1           0        2.614659    1.968755   -0.902215
     33          1           0        1.811379    3.539523   -0.788072
     34          1           0        2.351392    2.707930    0.675756
 ---------------------------------------------------------------------

 SCF Done:  E(RwB97XD) =  -636.790990002     A.U. after    1 cycles

 The electronic state is 1-A.
 Alpha  occ. eigenvalues --  -19.18282 -14.48953 -10.35406 -10.33588 -10.32045
 Alpha  occ. eigenvalues --  -10.28766 -10.28387 -10.28350 -10.28228 -10.27939
 Alpha  occ. eigenvalues --  -10.27873 -10.27776 -10.27772 -10.26623 -10.24547
 Alpha  occ. eigenvalues --   -1.08774  -1.04470  -0.95921  -0.91949  -0.85505
 Alpha  occ. eigenvalues --   -0.84211  -0.82788  -0.79885  -0.79199  -0.77492
 Alpha  occ. eigenvalues --   -0.69470  -0.68589  -0.66373  -0.63401  -0.61530
 Alpha  occ. eigenvalues --   -0.59204  -0.56802  -0.56200  -0.54546  -0.54147
 Alpha  occ. eigenvalues --   -0.53430  -0.52076  -0.50803  -0.50086  -0.50013
 Alpha  occ. eigenvalues --   -0.48938  -0.48532  -0.47811  -0.47237  -0.46458
 Alpha  occ. eigenvalues --   -0.45548  -0.45262  -0.42878  -0.42592  -0.41435
 Alpha  occ. eigenvalues --   -0.40754  -0.40163  -0.33051  -0.32255  -0.30464
 Alpha  occ. eigenvalues --   -0.26133
 Alpha virt. eigenvalues --    0.05696   0.06114   0.06681   0.09170   0.12705
 Alpha virt. eigenvalues --    0.12829   0.13116   0.14670   0.14928   0.15908
 Alpha virt. eigenvalues --    0.16628   0.17305   0.17637   0.18010   0.18479

 Mulliken charges:
               1
     1  C   -0.200276
     2  C    0.202239
     3  O   -0.564405
     4  C    0.001919
     5  C   -0.299317
     6  H    0.159652
     7  H    0.163452
     8  H    0.156301
     9  N   -0.276268
    10  H    0.274803
    11  H    0.277367
    12  C   -0.371422
    13  H    0.147473
    14  H    0.154206
    15  H    0.138291
    16  C   -0.398736
    17  H    0.158611
    18  H    0.152800
    19  H    0.154193
    20  C    0.287946
    21  C   -0.267674
    22  C   -0.169056
    23  C   -0.135450
    24  C   -0.167350
    25  C   -0.250638
    26  H    0.140831
    27  H    0.135019
    28  H    0.139028
    29  H    0.134445
    30  H    0.135924
    31  C   -0.406882
    32  H    0.128762
    33  H    0.118719
    34  H    0.145495
 Sum of Mulliken charges =  -0.00000

 Dipole moment (field-independent basis, Debye):
    X=              8.4128    Y=             -9.7421    Z=             -0.6137  Tot=             12.8864
 Quadrupole moment (field-independent basis, Debye-Ang):
   XX=            -76.2301   YY=           -104.7999   ZZ=            -83.7620
   XY=              0.4336   XZ=             -6.0304   YZ=              8.8265

  Exact polarizability: 255.999  -5.949 228.663  -3.501   6.869 213.062
 Approx polarizability: 197.522  -4.184 179.430  -2.690   6.613 183.015

 ******    1 imaginary frequencies (negative Signs) ******

                      1                      2                      3
                      A                      A                      A
 Frequencies --   -346.4808                39.8276                49.2598
 Red. masses --      5.8445                 3.3941                 3.6938
 Frc consts  --      0.4134                 0.0032                 0.0053
 IR Inten    --    901.7998                 1.0302                 0.7438

                      4                      5                      6
                      A                      A                      A
 Frequencies --     76.0019                85.1079                91.7456
 Red. masses --      2.5041                 3.2471                 4.6750
 Frc consts  --      0.0085                 0.0139                 0.0232
 IR Inten    --      4.0426                 7.6945                 7.2569

                      7                      8                      9
                      A                      A                      A
 Frequencies --    112.6567               181.1814               202.6263
 Red. masses --      2.6741                 1.3826                 2.7560
 Frc consts  --      0.0200                 0.0267                 0.0667
 IR Inten    --      4.9919                 1.3966                 6.1509

                     10                     11                     12
                      A                      A                      A
 Frequencies --    221.9776               259.9185               266.3807
 Red. masses --      2.3107                 1.4058                 1.4819
 Frc consts  --      0.0671                 0.0560                 0.0620
 IR Inten    --      2.8781                 6.4635                 7.2355

                     13                     14                     15
                      A                      A                      A
 Frequencies --    281.1103               290.0869               304.4909
 Red. masses --      1.5071                 1.5718                 1.9218
 Frc consts  --      0.0702                 0.0779                 0.1050
 IR Inten    --      3.6311                 0.9699                 3.0111

                     16                     17                     18
                      A                      A                      A
 Frequencies --    329.0946               354.2303               371.7754
 Red. masses --      2.9224                 2.7084                 2.9952
 Frc consts  --      0.1865                 0.2002                 0.2439
 IR Inten    --     53.2344                19.5712                 6.5996

                     19                     20                     21
                      A                      A                      A
 Frequencies --    413.8781               426.3992               429.7616
 Red. masses --      2.9264                 2.7815                 2.6538
 Frc consts  --      0.2953                 0.2980                 0.2888
 IR Inten    --      1.3870                 1.6237                 9.1605

                     22                     23                     24
                      A                      A                      A
 Frequencies --    525.0129               528.4509               597.7058
 Red. masses --      3.5610                 3.4941                 3.2508
 Frc consts  --      0.5783                 0.5749                 0.6843
 IR Inten    --     56.5616                23.3597                78.6404

                     25                     26                     27
                      A                      A                      A
 Frequencies --    610.6537               633.5461               683.7091
 Red. masses --      3.2994                 5.7028                 3.7118
 Frc consts  --      0.7249                 1.3486                 1.0223
 IR Inten    --     24.9308                 4.1010                35.1775

                     28                     29                     30
                      A                      A                      A
 Frequencies --    694.8639               699.0190               731.4891
 Red. masses --      1.3214                 4.2797                 1.5176
 Frc consts  --      0.3759                 1.2321                 0.4784
 IR Inten    --     22.4495                15.0745                91.8032

                     31                     32                     33
                      A                      A                      A
 Frequencies --    790.5873               881.0239               891.8228
 Red. masses --      2.3138                 1.2472                 3.3498
 Frc consts  --      0.8521                 0.5704                 1.5697
 IR Inten    --     15.8987                 0.2224                40.4214

                     34                     35                     36
                      A                      A                      A
 Frequencies --    921.3323               953.8622               964.7539
 Red. masses --      2.2650                 1.4382                 1.4941
 Frc consts  --      1.1328                 0.7710                 0.8194
 IR Inten    --     23.2014                 2.4797                10.3760

                     37                     38                     39
                      A                      A                      A
 Frequencies --   1009.5499              1010.6406              1018.2143
 Red. masses --      1.3395                 1.4435                 1.3852
 Frc consts  --      0.8043                 0.8687                 0.8462
 IR Inten    --     74.3472                27.7035                40.0630

                     40                     41                     42
                      A                      A                      A
 Frequencies --   1024.7140              1025.7001              1039.3708
 Red. masses --      1.4349                 3.9202                 1.5297
 Frc consts  --      0.8877                 2.4300                 0.9736
 IR Inten    --      6.5272                 3.3538                 9.5828

                     43                     44                     45
                      A                      A                      A
 Frequencies --   1049.1933              1050.9826              1062.8852
 Red. masses --      2.3154                 1.5530                 1.8944
 Frc consts  --      1.5017                 1.0107                 1.2610
 IR Inten    --     16.7025                40.3274                16.9223

                     46                     47                     48
                      A                      A                      A
 Frequencies --   1068.6469              1097.8438              1105.3644
 Red. masses --      1.3438                 1.8185                 1.5595
 Frc consts  --      0.9042                 1.2914                 1.1227
 IR Inten    --    236.8949                29.7670                25.2003

                     49                     50                     51
                      A                      A                      A
 Frequencies --   1126.1004              1179.6766              1203.7392
 Red. masses --      2.1880                 1.1340                 1.1243
 Frc consts  --      1.6348                 0.9298                 0.9598
 IR Inten    --     12.1952                 0.0200                 0.2555

                     52                     53                     54
                      A                      A                      A
 Frequencies --   1232.2821              1241.9581              1255.2620
 Red. masses --      3.4878                 2.4395                 1.5702
 Frc consts  --      3.1205                 2.2170                 1.4577
 IR Inten    --      2.6644                23.3731                67.7807

                     55                     56                     57
                      A                      A                      A
 Frequencies --   1303.5507              1347.8586              1354.2626
 Red. masses --      4.4924                 1.3323                 1.4355
 Frc consts  --      4.4977                 1.4261                 1.5512
 IR Inten    --      0.0623                 6.9182                 1.7219

                     58                     59                     60
                      A                      A                      A
 Frequencies --   1379.3404              1400.6648              1410.1626
 Red. masses --      1.3844                 2.6752                 1.4199
 Frc consts  --      1.5519                 3.0923                 1.6636
 IR Inten    --    122.2156               439.2446               100.1337

                     61                     62                     63
                      A                      A                      A
 Frequencies --   1427.9535              1430.9383              1462.2214
 Red. masses --      1.3404                 2.8831                 1.1476
 Frc consts  --      1.6103                 3.4782                 1.4456
 IR Inten    --     76.0267               379.7117                44.4062

                     64                     65                     66
                      A                      A                      A
 Frequencies --   1468.8469              1481.7828              1484.7888
 Red. masses --      1.2032                 1.0873                 2.0687
 Frc consts  --      1.5295                 1.4066                 2.6871
 IR Inten    --      6.7344                 3.9564                 3.4414

                     67                     68                     69
                      A                      A                      A
 Frequencies --   1488.8358              1493.6189              1495.7479
 Red. masses --      1.0765                 1.0681                 1.0559
 Frc consts  --      1.4059                 1.4039                 1.3918
 IR Inten    --     12.9323                43.8783                19.6903

                     70                     71                     72
                      A                      A                      A
 Frequencies --   1509.0942              1513.1480              1521.5698
 Red. masses --      1.0709                 1.0810                 1.0957
 Frc consts  --      1.4370                 1.4583                 1.4946
 IR Inten    --     48.5460                43.9024                13.1122

                     73                     74                     75
                      A                      A                      A
 Frequencies --   1541.1602              1579.1543              1642.0584
 Red. masses --      2.4461                 5.1706                 4.4371
 Frc consts  --      3.4231                 7.5969                 7.0489
 IR Inten    --     43.1781               773.1001                 9.7923

                     76                     77                     78
                      A                      A                      A
 Frequencies --   1645.5491              1670.3178              3062.3438
 Red. masses --      1.1509                 5.9791                 1.0368
 Frc consts  --      1.8361                 9.8284                 5.7287
 IR Inten    --     38.6111                27.4764                18.4590

                     79                     80                     81
                      A                      A                      A
 Frequencies --   3067.8257              3074.8005              3078.1684
 Red. masses --      1.0374                 1.0361                 1.0406
 Frc consts  --      5.7526                 5.7712                 5.8093
 IR Inten    --     13.9673                38.0140                33.4430

                     82                     83                     84
                      A                      A                      A
 Frequencies --   3135.8273              3137.8265              3142.6088
 Red. masses --      1.1006                 1.1007                 1.1014
 Frc consts  --      6.3768                 6.3853                 6.4088
 IR Inten    --     28.9049                 7.6648                54.6536

                     85                     86                     87
                      A                      A                      A
 Frequencies --   3154.1598              3155.5639              3161.8202
 Red. masses --      1.1019                 1.1026                 1.1030
 Frc consts  --      6.4591                 6.4689                 6.4969
 IR Inten    --      8.0811                36.0228                41.2204

                     88                     89                     90
                      A                      A                      A
 Frequencies --   3176.1148              3180.7643              3182.7861
 Red. masses --      1.0877                 1.1060                 1.0869
 Frc consts  --      6.4648                 6.5930                 6.4872
 IR Inten    --     20.0809                13.6421                 7.3433

                     91                     92                     93
                      A                      A                      A
 Frequencies --   3193.3189              3194.3132              3201.6919
 Red. masses --      1.0969                 1.0902                 1.0946
 Frc consts  --      6.5905                 6.5544                 6.6109
 IR Inten    --     13.4248                 9.6876                57.6180

                     94                     95                     96
                      A                      A                      A
 Frequencies --   3215.1803              3520.7492              3597.6222
 Red. masses --      1.0985                 1.0518                 1.0956
 Frc consts  --      6.6907                 7.6814                 8.3550
 IR Inten    --     24.7427                16.2340                45.7389

 - Thermochemistry -
 -------------------
 Temperature   298.150 Kelvin.  Pressure   1.00000 Atm.
 Atom     1 has atomic number  6 and mass  12.00000

 Molecular mass:   205.14666 amu.
 Principal axes and moments of inertia in atomic units:
                           1         2         3
     Eigenvalues --  2185.787614036.645484924.04662
           X            1.00000  -0.00266  -0.00171
           Y            0.00268   0.99990   0.01421
           Z            0.00167  -0.01421   0.99990
 This molecule is an asymmetric top.
 Rotational symmetry number  1.
 Warning -- assumption of classical behavior for rotation
           may cause significant error
 Rotational temperatures (Kelvin)      0.03963     0.02146     0.01759
 Rotational constants (GHZ):           0.82567     0.44709     0.36652
    1 imaginary frequencies ignored.
 Zero-point vibrational energy     779867.0 (Joules/Mol)
                                  186.39269 (Kcal/Mol)
 Warning -- explicit consideration of  24 degrees of freedom as
           vibrations may cause significant error
 Vibrational temperatures:     57.30    70.87   109.35   122.45   132.00
          (Kelvin)            162.09   260.68   291.53   319.38   373.96
                              383.26   404.46   417.37   438.09   473.49
                              509.66   534.90   595.48   613.49   618.33
                              755.38   760.32   859.97   878.59   911.53
                              983.70   999.75  1005.73  1052.45  1137.48
                             1267.60  1283.13  1325.59  1372.39  1388.07
                             1452.52  1454.09  1464.98  1474.33  1475.75
                             1495.42  1509.56  1512.13  1529.25  1537.54
                             1579.55  1590.37  1620.21  1697.29  1731.91
                             1772.98  1786.90  1806.04  1875.52  1939.27
                             1948.48  1984.56  2015.24  2028.91  2054.51
                             2058.80  2103.81  2113.34  2131.95  2136.28
                             2142.10  2148.98  2152.05  2171.25  2177.08
                             2189.20  2217.39  2272.05  2362.56  2367.58
                             2403.21  4406.03  4413.92  4423.95  4428.80
                             4511.76  4514.63  4521.51  4538.13  4540.15
                             4549.15  4569.72  4576.41  4579.32  4594.47
                             4595.90  4606.52  4625.93  5065.57  5176.18

 Zero-point correction=                           0.297036 (Hartree/Particle)
 Thermal correction to Energy=                    0.312660
 Thermal correction to Enthalpy=                  0.313604
 Thermal correction to Gibbs Free Energy=         0.254244
 Sum of electronic and zero-point Energies=           -636.493954
 Sum of electronic and thermal Energies=              -636.478330
 Sum of electronic and thermal Enthalpies=            -636.477386
 Sum of electronic and thermal Free Energies=         -636.536746

                     E (Thermal)             CV                S
                      KCal/Mol        Cal/Mol-Kelvin    Cal/Mol-Kelvin
 Total                  196.197             59.587            124.933
 Electronic               0.000              0.000              0.000
 Translational            0.889              2.981             41.860
 Rotational               0.889              2.981             32.141
 Vibrational            194.420             53.625             50.933
 Vibration     1          0.594              1.981              5.268
 Vibration     2          0.595              1.978              4.847
 Vibration     3          0.599              1.965              3.992
 Vibration     4          0.601              1.960              3.769
 Vibration     5          0.602              1.955              3.622
 Vibration     6          0.607              1.939              3.223
 Vibration     7          0.630              1.865              2.316
 Vibration     8          0.639              1.836              2.109
 Vibration     9          0.648              1.808              1.943
 Vibration    10          0.668              1.746              1.662
 Vibration    11          0.672              1.735              1.620
 Vibration    12          0.681              1.709              1.527
 Vibration    13          0.686              1.692              1.473
 Vibration    14          0.695              1.665              1.392
 Vibration    15          0.712              1.617              1.265
 Vibration    16          0.730              1.567              1.147
 Vibration    17          0.743              1.530              1.072
 Vibration    18          0.777              1.440              0.913
 Vibration    19          0.788              1.413              0.870
 Vibration    20          0.791              1.405              0.859
 Vibration    21          0.880              1.195              0.598
 Vibration    22          0.883              1.187              0.591
 Vibration    23          0.956              1.037              0.454
 Vibration    24          0.970              1.009              0.432

 Optimization completed.
    -- Stationary point found.
 Normal termination of Gaussian 16 at Sun Feb 14 13:25:54 2021.
