 Gaussian 16, Revision A.03,
 Gaussian 16:  ES64L-G16RevA.03 25-Dec-2016

 ----------------------------------------------------------------------
 # wB97XD def2tzvp, opt=(ts, noeigen, calcfc, maxcycles=70, maxstep=1),
  freq=noraman, scrf=(iefpcm, solvent=water)
 ----------------------------------------------------------------------

 ------------------------
 0_iteration/TS-455-0.out
 ------------------------
 Symbolic Z-matrix:
 Charge =  0 Multiplicity = 1

 SCF Done:  E(RwB97XD) =  -613.535164553     A.U. after   14 cycles
 SCF Done:  E(RwB97XD) =  -613.535147608     A.U. after    9 cycles
 SCF Done:  E(RwB97XD) =  -613.535134378     A.U. after    9 cycles
 SCF Done:  E(RwB97XD) =  -613.535124890     A.U. after    9 cycles
 SCF Done:  E(RwB97XD) =  -613.535119237     A.U. after    9 cycles
 SCF Done:  E(RwB97XD) =  -613.535118100     A.U. after   10 cycles
 SCF Done:  E(RwB97XD) =  -613.535123395     A.U. after    9 cycles
 SCF Done:  E(RwB97XD) =  -613.535141684     A.U. after    9 cycles
 SCF Done:  E(RwB97XD) =  -613.535171147     A.U. after    9 cycles
 SCF Done:  E(RwB97XD) =  -613.535212010     A.U. after    9 cycles
 SCF Done:  E(RwB97XD) =  -613.537345366     A.U. after    9 cycles
 SCF Done:  E(RwB97XD) =  -613.537376336     A.U. after    9 cycles
 SCF Done:  E(RwB97XD) =  -613.537400456     A.U. after    9 cycles
 SCF Done:  E(RwB97XD) =  -613.537419471     A.U. after    9 cycles
 SCF Done:  E(RwB97XD) =  -613.537433969     A.U. after    9 cycles
 SCF Done:  E(RwB97XD) =  -613.537440889     A.U. after    9 cycles
 SCF Done:  E(RwB97XD) =  -613.537442003     A.U. after    9 cycles
 SCF Done:  E(RwB97XD) =  -613.537442511     A.U. after    8 cycles
 SCF Done:  E(RwB97XD) =  -613.537442672     A.U. after    7 cycles
 Optimization completed on the basis of negligible forces.
    -- Stationary point found.
 Normal termination of Gaussian 16 at Sat Feb 13 23:00:14 2021.

 ---------------------------------------------------------------------
 #N Geom=AllCheck Guess=TCheck SCRF=Check GenChk RwB97XD/def2TZVP Freq
 ---------------------------------------------------------------------

 Structure from the checkpoint file:  "/beegfs/scratch/user/q/tla25/Gau-2934.chk"
 ------------------------
 0_iteration/TS-455-0.out
 ------------------------
 Charge =  0 Multiplicity = 1

                         Standard orientation:
 ---------------------------------------------------------------------
 Center     Atomic      Atomic             Coordinates (Angstroms)
 Number     Number       Type             X           Y           Z
 ---------------------------------------------------------------------
      1          6           0        1.864597   -1.338287    0.201660
      2          6           0        0.456317   -1.390264   -0.003315
      3          8           0       -0.145437   -2.420553   -0.343449
      4          6           0        2.628003   -0.207820    0.534028
      5          6           0        3.296393    2.231833   -0.787432
      6          1           0        3.332242    2.771663   -1.733500
      7          1           0        2.558868    2.700770   -0.137704
      8          1           0        4.272940    2.286376   -0.311715
      9          7           0        2.928892    0.828379   -0.983726
     10          1           0        2.048422    0.743602   -1.479096
     11          1           0        3.625471    0.328047   -1.525345
     12          6           0        4.034519   -0.430889    1.028008
     13          1           0        3.991371   -0.813033    2.048654
     14          1           0        4.548086   -1.170616    0.412263
     15          1           0        4.621627    0.486707    1.043026
     16          1           0        2.135516    0.603983    1.068101
     17          1           0        2.389118   -2.256841   -0.031969
     18          7           0       -0.253618   -0.201542    0.192160
     19          6           0       -1.624899    0.033664    0.120437
     20          6           0       -2.534463   -0.816882   -0.514047
     21          6           0       -3.880308   -0.481307   -0.558855
     22          6           0       -4.352117    0.692554    0.008750
     23          6           0       -3.448655    1.542856    0.632692
     24          6           0       -2.105442    1.218753    0.690964
     25          1           0        0.264348    0.558026    0.597444
     26          1           0       -2.178768   -1.730957   -0.959949
     27          1           0       -4.569153   -1.155279   -1.054029
     28          1           0       -5.404173    0.942555   -0.034356
     29          1           0       -3.790742    2.466557    1.083089
     30          1           0       -1.412272    1.889739    1.186303
 ---------------------------------------------------------------------

 SCF Done:  E(RwB97XD) =  -613.537442672     A.U. after    1 cycles

 The electronic state is 1-A.
 Alpha  occ. eigenvalues --  -19.18917 -14.48933 -14.45316 -10.36970 -10.34039
 Alpha  occ. eigenvalues --  -10.33388 -10.32130 -10.28793 -10.28624 -10.28456
 Alpha  occ. eigenvalues --  -10.28114 -10.27906 -10.27758 -10.23669  -1.11640
 Alpha  occ. eigenvalues --   -1.04420  -1.02821  -0.95000  -0.89765  -0.84752
 Alpha  occ. eigenvalues --   -0.84471  -0.79823  -0.78917  -0.72148  -0.70702
 Alpha  occ. eigenvalues --   -0.68968  -0.64675  -0.63426  -0.62230  -0.59313
 Alpha  occ. eigenvalues --   -0.57626  -0.55559  -0.55089  -0.53310  -0.52118
 Alpha  occ. eigenvalues --   -0.51102  -0.50929  -0.50073  -0.49478  -0.48508
 Alpha  occ. eigenvalues --   -0.48275  -0.46082  -0.45989  -0.44388  -0.43843
 Alpha  occ. eigenvalues --   -0.42440  -0.42315  -0.38791  -0.33603  -0.32580
 Alpha  occ. eigenvalues --   -0.29824  -0.25934
 Alpha virt. eigenvalues --    0.05365   0.05676   0.08922   0.09549   0.11840
 Alpha virt. eigenvalues --    0.13754   0.13929   0.14994   0.16213   0.16845
 Alpha virt. eigenvalues --    0.17160   0.17844   0.18050   0.18304   0.19710

 Mulliken charges:
               1
     1  C   -0.431961
     2  C    0.383822
     3  O   -0.571960
     4  C   -0.074706
     5  C   -0.277885
     6  H    0.157999
     7  H    0.152523
     8  H    0.149935
     9  N   -0.281645
    10  H    0.277542
    11  H    0.281958
    12  C   -0.354632
    13  H    0.142278
    14  H    0.137282
    15  H    0.130909
    16  H    0.138827
    17  H    0.108818
    18  N   -0.267619
    19  C    0.285141
    20  C   -0.304039
    21  C   -0.100271
    22  C   -0.206629
    23  C   -0.101865
    24  C   -0.310803
    25  H    0.230574
    26  H    0.150041
    27  H    0.138895
    28  H    0.138206
    29  H    0.140854
    30  H    0.138411
 Sum of Mulliken charges =  -0.00000

 Dipole moment (field-independent basis, Debye):
    X=              8.7747    Y=             10.0117    Z=             -1.3092  Tot=             13.3770
 Quadrupole moment (field-independent basis, Debye-Ang):
   XX=            -58.1311   YY=            -94.1381   ZZ=            -82.7478
   XY=              8.3091   XZ=             -6.2790   YZ=             -0.0365

  Exact polarizability: 287.192   6.799 218.862   8.667  15.716 154.015
 Approx polarizability: 203.635   5.107 179.397   7.127  15.810 133.662

 ******    1 imaginary frequencies (negative Signs) ******

                      1                      2                      3
                      A                      A                      A
 Frequencies --   -361.9019                25.0179                30.0707
 Red. masses --      6.0097                 3.5048                 3.6318
 Frc consts  --      0.4637                 0.0013                 0.0019
 IR Inten    --   1000.4075                 4.2893                 2.3014

                      4                      5                      6
                      A                      A                      A
 Frequencies --     54.1096                81.5000                85.3137
 Red. masses --      1.8881                 3.6377                 5.4010
 Frc consts  --      0.0033                 0.0142                 0.0232
 IR Inten    --      0.9568                 8.9264                 4.5650

                      7                      8                      9
                      A                      A                      A
 Frequencies --    116.1814               173.9787               201.7620
 Red. masses --      4.5256                 1.2821                 4.1606
 Frc consts  --      0.0360                 0.0229                 0.0998
 IR Inten    --      8.3085                 1.8761                10.6413

                     10                     11                     12
                      A                      A                      A
 Frequencies --    216.6710               228.7063               246.2858
 Red. masses --      1.0896                 2.7912                 4.2939
 Frc consts  --      0.0301                 0.0860                 0.1535
 IR Inten    --      2.4364                 2.3798                 3.8923

                     13                     14                     15
                      A                      A                      A
 Frequencies --    318.6907               334.9534               355.5513
 Red. masses --      3.1115                 2.8726                 4.3926
 Frc consts  --      0.1862                 0.1899                 0.3272
 IR Inten    --     12.0040                13.7302                 0.8297

                     16                     17                     18
                      A                      A                      A
 Frequencies --    424.0685               452.1110               510.5376
 Red. masses --      2.9888                 2.8136                 4.1211
 Frc consts  --      0.3167                 0.3388                 0.6329
 IR Inten    --      0.1506                73.8551                20.0997

                     19                     20                     21
                      A                      A                      A
 Frequencies --    527.8370               547.7404               585.5939
 Red. masses --      2.8520                 1.2799                 4.4027
 Frc consts  --      0.4682                 0.2263                 0.8895
 IR Inten    --     29.2004               171.6175                50.4436

                     22                     23                     24
                      A                      A                      A
 Frequencies --    636.1213               663.3026               695.4110
 Red. masses --      6.3092                 1.2780                 1.3924
 Frc consts  --      1.5042                 0.3313                 0.3967
 IR Inten    --      4.2257                61.8884                53.0866

                     25                     26                     27
                      A                      A                      A
 Frequencies --    717.6635               721.6421               780.7004
 Red. masses --      2.0329                 3.0768                 1.9011
 Frc consts  --      0.6169                 0.9441                 0.6827
 IR Inten    --     44.4962                33.4205                50.9505

                     28                     29                     30
                      A                      A                      A
 Frequencies --    786.4850               858.9059               875.9912
 Red. masses --      5.9262                 1.2619                 5.3351
 Frc consts  --      2.1598                 0.5485                 2.4121
 IR Inten    --    121.0260                 0.5158                13.5881

                     31                     32                     33
                      A                      A                      A
 Frequencies --    926.7572               936.8367               995.8055
 Red. masses --      1.5098                 1.8685                 1.9640
 Frc consts  --      0.7640                 0.9662                 1.1475
 IR Inten    --     16.6514                26.5557                36.8101

                     34                     35                     36
                      A                      A                      A
 Frequencies --    998.2770              1008.8216              1012.1145
 Red. masses --      1.3479                 1.3156                 1.2824
 Frc consts  --      0.7914                 0.7889                 0.7740
 IR Inten    --      0.9631                 3.6038                 1.8034

                     37                     38                     39
                      A                      A                      A
 Frequencies --   1019.1404              1046.2342              1050.6738
 Red. masses --      5.3978                 1.8273                 1.3390
 Frc consts  --      3.3032                 1.1785                 0.8709
 IR Inten    --     15.3621                69.4109                59.6141

                     40                     41                     42
                      A                      A                      A
 Frequencies --   1063.0665              1085.0611              1115.7035
 Red. masses --      1.8496                 2.1834                 1.5151
 Frc consts  --      1.2315                 1.5146                 1.1112
 IR Inten    --     53.3467               140.1528                15.2049

                     43                     44                     45
                      A                      A                      A
 Frequencies --   1139.7217              1180.0678              1203.8144
 Red. masses --      2.3422                 1.1180                 1.2132
 Frc consts  --      1.7926                 0.9173                 1.0358
 IR Inten    --      9.6891                 6.1937               468.2443

                     46                     47                     48
                      A                      A                      A
 Frequencies --   1204.8332              1242.4231              1262.3708
 Red. masses --      1.1419                 1.4372                 2.0190
 Frc consts  --      0.9767                 1.3071                 1.8956
 IR Inten    --     24.6739                25.2189               405.4170

                     49                     50                     51
                      A                      A                      A
 Frequencies --   1270.9653              1296.6393              1324.0127
 Red. masses --      1.3950                 2.9355                 1.8509
 Frc consts  --      1.3277                 2.9079                 1.9117
 IR Inten    --    167.5231                39.5952                19.1113

                     52                     53                     54
                      A                      A                      A
 Frequencies --   1342.8698              1344.2603              1358.7729
 Red. masses --      1.9303                 1.6565                 1.8772
 Frc consts  --      2.0508                 1.7637                 2.0420
 IR Inten    --    342.8180               233.2728                11.0488

                     55                     56                     57
                      A                      A                      A
 Frequencies --   1416.3889              1461.5149              1469.1535
 Red. masses --      1.2469                 1.1958                 1.9943
 Frc consts  --      1.4739                 1.5049                 2.5361
 IR Inten    --      3.3125                26.8354               250.5358

                     58                     59                     60
                      A                      A                      A
 Frequencies --   1483.4101              1485.6583              1492.0131
 Red. masses --      1.2106                 1.0509                 1.0400
 Frc consts  --      1.5696                 1.3666                 1.3640
 IR Inten    --     74.1898                 4.2927                18.6215

                     61                     62                     63
                      A                      A                      A
 Frequencies --   1506.2128              1517.8026              1544.5035
 Red. masses --      1.1587                 1.6597                 2.5774
 Frc consts  --      1.5488                 2.2527                 3.6225
 IR Inten    --    136.1205               212.8179               307.4718

                     64                     65                     66
                      A                      A                      A
 Frequencies --   1554.3928              1645.5765              1649.1727
 Red. masses --      2.0765                 1.1338                 5.6218
 Frc consts  --      2.9560                 1.8089                 9.0087
 IR Inten    --    246.8808               136.9840               627.3605

                     67                     68                     69
                      A                      A                      A
 Frequencies --   1663.7431              1674.1716              3063.5279
 Red. masses --      3.5383                 6.0119                 1.0363
 Frc consts  --      5.7705                 9.9281                 5.7302
 IR Inten    --    419.5357               372.9942                23.2837

                     70                     71                     72
                      A                      A                      A
 Frequencies --   3072.9249              3104.2971              3138.5640
 Red. masses --      1.0337                 1.0887                 1.1018
 Frc consts  --      5.7509                 6.1811                 6.3949
 IR Inten    --     42.7640                27.7408                24.8922

                     73                     74                     75
                      A                      A                      A
 Frequencies --   3148.5793              3150.7688              3171.2897
 Red. masses --      1.1028                 1.1055                 1.1052
 Frc consts  --      6.4412                 6.4662                 6.5489
 IR Inten    --     43.2888                15.0543                16.0466

                     76                     77                     78
                      A                      A                      A
 Frequencies --   3181.6307              3190.1711              3192.9982
 Red. masses --      1.0883                 1.0879                 1.0880
 Frc consts  --      6.4905                 6.5232                 6.5355
 IR Inten    --     17.2130                20.5957                 4.6605

                     79                     80                     81
                      A                      A                      A
 Frequencies --   3203.3487              3219.4569              3265.2000
 Red. masses --      1.0927                 1.0978                 1.0928
 Frc consts  --      6.6065                 6.7040                 6.8644
 IR Inten    --     31.4886                24.0275                 4.3508

                     82                     83                     84
                      A                      A                      A
 Frequencies --   3518.4649              3598.7240              3658.6173
 Red. masses --      1.0515                 1.0966                 1.0756
 Frc consts  --      7.6691                 8.3677                 8.4829
 IR Inten    --     19.1109                47.1184                29.1918

 - Thermochemistry -
 -------------------
 Temperature   298.150 Kelvin.  Pressure   1.00000 Atm.
 Atom     1 has atomic number  6 and mass  12.00000

 Molecular mass:   192.12626 amu.
 Principal axes and moments of inertia in atomic units:
                           1         2         3
     Eigenvalues --  1409.288615559.384996418.99869
           X            0.99995   0.00941   0.00179
           Y           -0.00941   0.99996  -0.00117
           Z           -0.00181   0.00116   1.00000
 This molecule is an asymmetric top.
 Rotational symmetry number  1.
 Warning -- assumption of classical behavior for rotation
           may cause significant error
 Rotational temperatures (Kelvin)      0.06146     0.01558     0.01349
 Rotational constants (GHZ):           1.28060     0.32463     0.28116
    1 imaginary frequencies ignored.
 Zero-point vibrational energy     676634.3 (Joules/Mol)
                                  161.71948 (Kcal/Mol)
 Warning -- explicit consideration of  20 degrees of freedom as
           vibrations may cause significant error
 Vibrational temperatures:     36.00    43.26    77.85   117.26   122.75
          (Kelvin)            167.16   250.32   290.29   311.74   329.06
                              354.35   458.52   481.92   511.56   610.14
                              650.49   734.55   759.44   788.08   842.54
                              915.24   954.34  1000.54  1032.56  1038.28
                             1123.25  1131.58  1235.77  1260.36  1333.40
                             1347.90  1432.74  1436.30  1451.47  1456.21
                             1466.32  1505.30  1511.69  1529.52  1561.16
                             1605.25  1639.81  1697.85  1732.02  1733.49
                             1787.57  1816.27  1828.64  1865.57  1904.96
                             1932.09  1934.09  1954.97  2037.87  2102.79
                             2113.78  2134.30  2137.53  2146.67  2167.10
                             2183.78  2222.20  2236.42  2367.62  2372.79
                             2393.76  2408.76  4407.73  4421.25  4466.39
                             4515.69  4530.10  4533.25  4562.78  4577.66
                             4589.94  4594.01  4608.90  4632.08  4697.89
                             5062.29  5177.76  5263.93

 Zero-point correction=                           0.257716 (Hartree/Particle)
 Thermal correction to Energy=                    0.272063
 Thermal correction to Enthalpy=                  0.273007
 Thermal correction to Gibbs Free Energy=         0.214500
 Sum of electronic and zero-point Energies=           -613.279726
 Sum of electronic and thermal Energies=              -613.265380
 Sum of electronic and thermal Enthalpies=            -613.264436
 Sum of electronic and thermal Free Energies=         -613.322943

                     E (Thermal)             CV                S
                      KCal/Mol        Cal/Mol-Kelvin    Cal/Mol-Kelvin
 Total                  170.722             53.071            123.139
 Electronic               0.000              0.000              0.000
 Translational            0.889              2.981             41.664
 Rotational               0.889              2.981             32.286
 Vibrational            168.945             47.109             49.188
 Vibration     1          0.593              1.985              6.190
 Vibration     2          0.594              1.984              5.825
 Vibration     3          0.596              1.976              4.661
 Vibration     4          0.600              1.962              3.854
 Vibration     5          0.601              1.959              3.765
 Vibration     6          0.608              1.936              3.163
 Vibration     7          0.627              1.874              2.392
 Vibration     8          0.639              1.837              2.117
 Vibration     9          0.646              1.816              1.987
 Vibration    10          0.651              1.797              1.889
 Vibration    11          0.661              1.769              1.757
 Vibration    12          0.705              1.638              1.317
 Vibration    13          0.716              1.606              1.236
 Vibration    14          0.731              1.564              1.141
 Vibration    15          0.786              1.418              0.878
 Vibration    16          0.811              1.356              0.789
 Vibration    17          0.866              1.227              0.632
 Vibration    18          0.883              1.188              0.592
 Vibration    19          0.903              1.145              0.549
 Vibration    20          0.943              1.063              0.475

 Optimization completed.
    -- Stationary point found.
 Normal termination of Gaussian 16 at Sat Feb 13 23:43:17 2021.
