 Gaussian 16, Revision A.03,
 Gaussian 16:  ES64L-G16RevA.03 25-Dec-2016

 ----------------------------------------------------------------------
 # wB97XD def2tzvp, opt=(ts, noeigen, calcfc, maxcycles=70, maxstep=1),
  freq=noraman, scrf=(iefpcm, solvent=water)
 ----------------------------------------------------------------------

 ------------------------
 0_iteration/TS-454-0.out
 ------------------------
 Symbolic Z-matrix:
 Charge =  0 Multiplicity = 1

 SCF Done:  E(RwB97XD) =  -461.103816126     A.U. after   15 cycles
 SCF Done:  E(RwB97XD) =  -461.103793654     A.U. after   10 cycles
 SCF Done:  E(RwB97XD) =  -461.103776405     A.U. after   10 cycles
 SCF Done:  E(RwB97XD) =  -461.103764413     A.U. after   10 cycles
 SCF Done:  E(RwB97XD) =  -461.103758403     A.U. after   10 cycles
 SCF Done:  E(RwB97XD) =  -461.103761777     A.U. after   10 cycles
 SCF Done:  E(RwB97XD) =  -461.103775270     A.U. after   10 cycles
 SCF Done:  E(RwB97XD) =  -461.103793146     A.U. after   10 cycles
 SCF Done:  E(RwB97XD) =  -461.103815145     A.U. after   10 cycles
 SCF Done:  E(RwB97XD) =  -461.103841875     A.U. after   10 cycles
 SCF Done:  E(RwB97XD) =  -461.104978059     A.U. after   10 cycles
 SCF Done:  E(RwB97XD) =  -461.104977676     A.U. after   10 cycles
 SCF Done:  E(RwB97XD) =  -461.104983330     A.U. after    9 cycles
 SCF Done:  E(RwB97XD) =  -461.104983231     A.U. after    8 cycles
 SCF Done:  E(RwB97XD) =  -461.104980142     A.U. after    9 cycles
 SCF Done:  E(RwB97XD) =  -461.104983239     A.U. after   10 cycles
 SCF Done:  E(RwB97XD) =  -461.104983366     A.U. after    8 cycles
 SCF Done:  E(RwB97XD) =  -461.104983150     A.U. after    9 cycles
 SCF Done:  E(RwB97XD) =  -461.104983380     A.U. after    9 cycles
 Optimization completed.
    -- Stationary point found.
 Normal termination of Gaussian 16 at Sat Feb 13 09:07:25 2021.

 ---------------------------------------------------------------------
 #N Geom=AllCheck Guess=TCheck SCRF=Check GenChk RwB97XD/def2TZVP Freq
 ---------------------------------------------------------------------

 Structure from the checkpoint file:  "/beegfs/scratch/user/q/tla25/Gau-102308.chk"
 ------------------------
 0_iteration/TS-454-0.out
 ------------------------
 Charge =  0 Multiplicity = 1

                         Standard orientation:
 ---------------------------------------------------------------------
 Center     Atomic      Atomic             Coordinates (Angstroms)
 Number     Number       Type             X           Y           Z
 ---------------------------------------------------------------------
      1          6           0        0.003797    0.867185   -0.058297
      2          6           0       -0.920973   -0.198733   -0.292136
      3          8           0       -0.541829   -1.318929   -0.713981
      4          6           0        1.334998    0.696942   -0.446884
      5          6           0        3.370329   -1.262687    0.268391
      6          1           0        4.165449   -0.557632    0.503561
      7          1           0        3.567405   -2.201938    0.788170
      8          1           0        3.376099   -1.450054   -0.805834
      9          7           0        2.081961   -0.689020    0.637447
     10          1           0        1.314513   -1.339785    0.488043
     11          1           0        2.056538   -0.362680    1.595443
     12          6           0        2.310424    1.825357   -0.271903
     13          1           0        2.122208    2.581774   -1.036359
     14          1           0        2.194429    2.296984    0.705030
     15          1           0        3.342622    1.494728   -0.383854
     16          1           0        1.502387    0.094800   -1.336254
     17          1           0       -0.248450    1.692897    0.592226
     18          7           0       -2.256980    0.007511   -0.034908
     19          6           0       -3.162377   -1.113840    0.062412
     20          6           0       -2.756807    1.266988    0.464353
     21          1           0       -4.069166   -0.924907   -0.518045
     22          1           0       -2.671950   -2.001216   -0.325367
     23          1           0       -3.457698   -1.296307    1.102680
     24          1           0       -2.297985    2.102047   -0.063208
     25          1           0       -3.832649    1.311076    0.292558
     26          1           0       -2.580324    1.394930    1.539659
 ---------------------------------------------------------------------

 SCF Done:  E(RwB97XD) =  -461.104983380     A.U. after    1 cycles

 The electronic state is 1-A.
 Alpha  occ. eigenvalues --  -19.18338 -14.46612 -14.43994 -10.35667 -10.32465
 Alpha  occ. eigenvalues --  -10.31293 -10.30132 -10.29612 -10.27559 -10.23060
 Alpha  occ. eigenvalues --   -1.10703  -1.02433  -1.01392  -0.88742  -0.81862
 Alpha  occ. eigenvalues --   -0.79572  -0.78350  -0.75765  -0.67259  -0.62147
 Alpha  occ. eigenvalues --   -0.61033  -0.58445  -0.55764  -0.55329  -0.54660
 Alpha  occ. eigenvalues --   -0.53656  -0.50799  -0.49011  -0.48860  -0.47827
 Alpha  occ. eigenvalues --   -0.47410  -0.47061  -0.45736  -0.45012  -0.44049
 Alpha  occ. eigenvalues --   -0.42766  -0.40215  -0.32588  -0.30750  -0.25785
 Alpha virt. eigenvalues --    0.07817   0.10497   0.12111   0.14081   0.14704
 Alpha virt. eigenvalues --    0.15928   0.16313   0.16511   0.17619   0.18640
 Alpha virt. eigenvalues --    0.19236   0.19320   0.20452   0.20653   0.20885

 Mulliken charges:
               1
     1  C   -0.524199
     2  C    0.358873
     3  O   -0.626668
     4  C    0.028370
     5  C   -0.284201
     6  H    0.149565
     7  H    0.147653
     8  H    0.144417
     9  N   -0.321022
    10  H    0.268030
    11  H    0.264950
    12  C   -0.341236
    13  H    0.137293
    14  H    0.128076
    15  H    0.131805
    16  H    0.119675
    17  H    0.128579
    18  N   -0.124266
    19  C   -0.276490
    20  C   -0.296506
    21  H    0.126568
    22  H    0.139271
    23  H    0.117224
    24  H    0.138664
    25  H    0.137902
    26  H    0.127674
 Sum of Mulliken charges =  -0.00000

 Dipole moment (field-independent basis, Debye):
    X=              4.1684    Y=              1.3478    Z=              3.8450  Tot=              5.8289
 Quadrupole moment (field-independent basis, Debye-Ang):
   XX=            -43.8044   YY=            -65.0723   ZZ=            -63.2564
   XY=             -4.8411   XZ=              0.5483   YZ=             -2.7252

  Exact polarizability: 198.238  -5.972 144.941  -0.645   0.419 119.644
 Approx polarizability: 138.095  -4.987 118.192  -0.328   1.778 102.415

 ******    1 imaginary frequencies (negative Signs) ******

                      1                      2                      3
                      A                      A                      A
 Frequencies --   -390.4155                49.6240                67.6480
 Red. masses --      5.9329                 2.5118                 3.1304
 Frc consts  --      0.5328                 0.0036                 0.0084
 IR Inten    --    886.7455                 9.8040                 6.6912

                      4                      5                      6
                      A                      A                      A
 Frequencies --     84.9641               100.1591               122.6088
 Red. masses --      2.0567                 1.5195                 1.8876
 Frc consts  --      0.0087                 0.0090                 0.0167
 IR Inten    --      1.9286                 3.0238                37.9310

                      7                      8                      9
                      A                      A                      A
 Frequencies --    135.9316               165.7900               183.5270
 Red. masses --      1.2720                 1.5587                 1.5219
 Frc consts  --      0.0138                 0.0252                 0.0302
 IR Inten    --      4.0045                12.5888                 0.9487

                     10                     11                     12
                      A                      A                      A
 Frequencies --    202.0428               211.5238               216.2747
 Red. masses --      2.0843                 1.3889                 2.7767
 Frc consts  --      0.0501                 0.0366                 0.0765
 IR Inten    --      2.4447                 5.3882                 2.1539

                     13                     14                     15
                      A                      A                      A
 Frequencies --    270.4416               331.6676               383.7098
 Red. masses --      2.8575                 2.4060                 2.4362
 Frc consts  --      0.1231                 0.1559                 0.2113
 IR Inten    --     34.7434                13.5869                 0.1257

                     16                     17                     18
                      A                      A                      A
 Frequencies --    401.8452               467.4231               554.2720
 Red. masses --      4.5341                 2.7908                 3.3565
 Frc consts  --      0.4314                 0.3593                 0.6076
 IR Inten    --     15.5171                64.8352                 7.9786

                     19                     20                     21
                      A                      A                      A
 Frequencies --    627.7736               659.0416               677.9138
 Red. masses --      4.1520                 1.2502                 1.2686
 Frc consts  --      0.9641                 0.3199                 0.3435
 IR Inten    --     23.4214               124.3244                69.7785

                     22                     23                     24
                      A                      A                      A
 Frequencies --    787.6045               874.3336               934.5468
 Red. masses --     10.4560                 4.2288                 1.6339
 Frc consts  --      3.8215                 1.9047                 0.8408
 IR Inten    --    107.9079                 3.5099                44.1451

                     25                     26                     27
                      A                      A                      A
 Frequencies --    997.9104              1022.8148              1046.3921
 Red. masses --      1.1739                 1.7340                 1.1836
 Frc consts  --      0.6888                 1.0688                 0.7635
 IR Inten    --     47.8870                31.4676                64.3421

                     28                     29                     30
                      A                      A                      A
 Frequencies --   1052.6249              1080.0631              1081.1120
 Red. masses --      1.5194                 3.2650                 1.4766
 Frc consts  --      0.9919                 2.2440                 1.0169
 IR Inten    --    217.1869               141.0956                33.5435

                     31                     32                     33
                      A                      A                      A
 Frequencies --   1131.0884              1135.5126              1167.7767
 Red. masses --      1.2707                 1.8472                 1.5193
 Frc consts  --      0.9578                 1.4033                 1.2207
 IR Inten    --     21.0377               102.8870                93.4138

                     34                     35                     36
                      A                      A                      A
 Frequencies --   1191.0516              1201.5836              1211.1049
 Red. masses --      1.6518                 1.2928                 1.5281
 Frc consts  --      1.3806                 1.0997                 1.3205
 IR Inten    --     97.6766                86.4105               202.5115

                     37                     38                     39
                      A                      A                      A
 Frequencies --   1283.1174              1311.4289              1329.8818
 Red. masses --      1.3221                 4.8476                 1.7275
 Frc consts  --      1.2825                 4.9121                 1.8001
 IR Inten    --     63.4458                10.5933                31.0556

                     40                     41                     42
                      A                      A                      A
 Frequencies --   1349.2124              1409.5291              1421.7127
 Red. masses --      1.3197                 1.3359                 1.6232
 Frc consts  --      1.4154                 1.5638                 1.9331
 IR Inten    --     13.0248                21.9586               183.8074

                     43                     44                     45
                      A                      A                      A
 Frequencies --   1431.2557              1460.5846              1468.1918
 Red. masses --      1.3666                 1.1930                 1.2164
 Frc consts  --      1.6494                 1.4995                 1.5448
 IR Inten    --     50.5147                33.7505                38.0146

                     46                     47                     48
                      A                      A                      A
 Frequencies --   1480.2334              1483.6560              1487.2673
 Red. masses --      1.1161                 1.0688                 1.0671
 Frc consts  --      1.4408                 1.3862                 1.3907
 IR Inten    --    159.0296                15.8419                33.8011

                     49                     50                     51
                      A                      A                      A
 Frequencies --   1491.1359              1493.1431              1500.5906
 Red. masses --      1.0436                 1.0491                 1.0860
 Frc consts  --      1.3671                 1.3781                 1.4408
 IR Inten    --     10.7227                17.6746                81.1133

                     52                     53                     54
                      A                      A                      A
 Frequencies --   1506.8415              1524.9972              1532.8282
 Red. masses --      1.0609                 2.2498                 1.4384
 Frc consts  --      1.4193                 3.0828                 1.9911
 IR Inten    --     59.4767               418.9961               320.8745

                     55                     56                     57
                      A                      A                      A
 Frequencies --   1592.1148              1651.3015              3007.1522
 Red. masses --      5.0484                 1.0969                 1.0496
 Frc consts  --      7.5397                 1.7622                 5.5920
 IR Inten    --    584.7575                44.4265                78.2490

                     58                     59                     60
                      A                      A                      A
 Frequencies --   3012.8198              3058.1270              3059.4197
 Red. masses --      1.0498                 1.0348                 1.0364
 Frc consts  --      5.6144                 5.7017                 5.7155
 IR Inten    --    175.7439                65.1989                27.6666

                     61                     62                     63
                      A                      A                      A
 Frequencies --   3074.5129              3099.2161              3125.9093
 Red. masses --      1.0943                 1.0841                 1.0981
 Frc consts  --      6.0947                 6.1350                 6.3216
 IR Inten    --     79.8013                47.4442                 6.3064

                     64                     65                     66
                      A                      A                      A
 Frequencies --   3129.4036              3134.7610              3142.4719
 Red. masses --      1.1033                 1.0959                 1.1034
 Frc consts  --      6.3662                 6.3447                 6.4197
 IR Inten    --     40.3120                 9.3577                21.3573

                     67                     68                     69
                      A                      A                      A
 Frequencies --   3147.7251              3157.4981              3182.4444
 Red. masses --      1.1000                 1.1044                 1.0955
 Frc consts  --      6.4213                 6.4870                 6.5371
 IR Inten    --     65.1248                21.3292                 5.7475

                     70                     71                     72
                      A                      A                      A
 Frequencies --   3215.7521              3475.2046              3595.8988
 Red. masses --      1.0884                 1.0577                 1.0912
 Frc consts  --      6.6316                 7.5265                 8.3132
 IR Inten    --     14.9175                63.2782                55.5780

 - Thermochemistry -
 -------------------
 Temperature   298.150 Kelvin.  Pressure   1.00000 Atm.
 Atom     1 has atomic number  6 and mass  12.00000

 Molecular mass:   144.12626 amu.
 Principal axes and moments of inertia in atomic units:
                           1         2         3
     Eigenvalues --   778.907882668.450853205.04793
           X            0.99998  -0.00398  -0.00534
           Y            0.00396   0.99998  -0.00434
           Z            0.00536   0.00431   0.99998
 This molecule is an asymmetric top.
 Rotational symmetry number  1.
 Warning -- assumption of classical behavior for rotation
           may cause significant error
 Rotational temperatures (Kelvin)      0.11120     0.03246     0.02702
 Rotational constants (GHZ):           2.31701     0.67633     0.56309
    1 imaginary frequencies ignored.
 Zero-point vibrational energy     608044.1 (Joules/Mol)
                                  145.32604 (Kcal/Mol)
 Warning -- explicit consideration of  17 degrees of freedom as
           vibrations may cause significant error
 Vibrational temperatures:     71.40    97.33   122.24   144.11   176.41
          (Kelvin)            195.58   238.53   264.05   290.69   304.34
                              311.17   389.11   477.20   552.07   578.17
                              672.52   797.47   903.23   948.21   975.37
                             1133.19  1257.97  1344.60  1435.77  1471.60
                             1505.52  1514.49  1553.97  1555.48  1627.38
                             1633.75  1680.17  1713.66  1728.81  1742.51
                             1846.12  1886.85  1913.40  1941.22  2028.00
                             2045.53  2059.26  2101.46  2112.40  2129.73
                             2134.65  2139.85  2145.41  2148.30  2159.02
                             2168.01  2194.13  2205.40  2290.70  2375.85
                             4326.62  4334.78  4399.96  4401.82  4423.54
                             4459.08  4497.49  4502.51  4510.22  4521.32
                             4528.87  4542.94  4578.83  4626.75  5000.04
                             5173.70

 Zero-point correction=                           0.231592 (Hartree/Particle)
 Thermal correction to Energy=                    0.244675
 Thermal correction to Enthalpy=                  0.245619
 Thermal correction to Gibbs Free Energy=         0.191961
 Sum of electronic and zero-point Energies=           -460.873392
 Sum of electronic and thermal Energies=              -460.860309
 Sum of electronic and thermal Enthalpies=            -460.859364
 Sum of electronic and thermal Free Energies=         -460.913023

                     E (Thermal)             CV                S
                      KCal/Mol        Cal/Mol-Kelvin    Cal/Mol-Kelvin
 Total                  153.536             45.192            112.933
 Electronic               0.000              0.000              0.000
 Translational            0.889              2.981             40.808
 Rotational               0.889              2.981             30.278
 Vibrational            151.758             39.230             41.848
 Vibration     1          0.595              1.978              4.832
 Vibration     2          0.598              1.970              4.221
 Vibration     3          0.601              1.960              3.773
 Vibration     4          0.604              1.949              3.451
 Vibration     5          0.610              1.930              3.059
 Vibration     6          0.614              1.917              2.860
 Vibration     7          0.624              1.885              2.483
 Vibration     8          0.631              1.862              2.292
 Vibration     9          0.639              1.837              2.114
 Vibration    10          0.643              1.823              2.030
 Vibration    11          0.645              1.816              1.990
 Vibration    12          0.674              1.728              1.593
 Vibration    13          0.714              1.612              1.252
 Vibration    14          0.753              1.505              1.025
 Vibration    15          0.767              1.466              0.956
 Vibration    16          0.825              1.322              0.745
 Vibration    17          0.910              1.130              0.535

 Optimization completed.
    -- Stationary point found.
 Normal termination of Gaussian 16 at Sat Feb 13 09:28:00 2021.
