 Gaussian 16, Revision A.03,
 Gaussian 16:  ES64L-G16RevA.03 25-Dec-2016

 ----------------------------------------------------------------------
 # wB97XD def2tzvp, opt=(ts, noeigen, calcfc, maxcycles=70, maxstep=8),
  freq=noraman, scrf=(iefpcm, solvent=water)
 ----------------------------------------------------------------------

 ------------------------
 1_iteration/TS-465-1.out
 ------------------------
 Symbolic Z-matrix:
 Charge =  0 Multiplicity = 1

 SCF Done:  E(RwB97XD) =  -2900.72944538     A.U. after   14 cycles
 SCF Done:  E(RwB97XD) =  -2900.72944482     A.U. after   10 cycles
 SCF Done:  E(RwB97XD) =  -2900.72944500     A.U. after    8 cycles
 Optimization completed.
    -- Stationary point found.
 Normal termination of Gaussian 16 at Sat Feb 13 22:22:18 2021.

 ---------------------------------------------------------------------
 #N Geom=AllCheck Guess=TCheck SCRF=Check GenChk RwB97XD/def2TZVP Freq
 ---------------------------------------------------------------------

 Structure from the checkpoint file:  "/beegfs/scratch/user/q/tla25/Gau-24825.chk"
 ------------------------
 1_iteration/TS-465-1.out
 ------------------------
 Charge =  0 Multiplicity = 1

                         Standard orientation:
 ---------------------------------------------------------------------
 Center     Atomic      Atomic             Coordinates (Angstroms)
 Number     Number       Type             X           Y           Z
 ---------------------------------------------------------------------
      1          6           0       -0.102463    0.294458    0.566299
      2          6           0       -0.291029    1.669172    0.844666
      3          8           0       -1.240942    2.384871    0.539988
      4          6           0        1.051065   -0.375865    0.941744
      5          6           0        2.420555    1.082518   -1.117466
      6          1           0        3.065628    1.149211   -1.994163
      7          1           0        1.404050    1.352226   -1.404471
      8          1           0        2.766385    1.790400   -0.365255
      9          7           0        2.407229   -0.255121   -0.545475
     10          1           0        2.140695   -0.949718   -1.232814
     11          1           0        3.312368   -0.516099   -0.173876
     12          6           0        1.128141   -1.857276    1.148776
     13          1           0        0.532091   -2.113089    2.027755
     14          1           0        0.722629   -2.407916    0.301246
     15          1           0        2.152181   -2.179207    1.329099
     16          1           0        1.677223    0.207430    1.610222
     17         35           0       -1.442406   -0.588550   -0.466619
     18          1           0        0.550288    2.094834    1.428225
 ---------------------------------------------------------------------

 SCF Done:  E(RwB97XD) =  -2900.72944500     A.U. after    1 cycles

 The electronic state is 1-A.
 Alpha  occ. eigenvalues -- -483.12165 -62.67006 -56.46102 -56.45777 -56.45770
 Alpha  occ. eigenvalues --  -19.21488 -14.47278 -10.35340 -10.34911 -10.31381
 Alpha  occ. eigenvalues --  -10.30820 -10.28660  -8.81125  -6.63218  -6.62175
 Alpha  occ. eigenvalues --   -6.62151  -2.73620  -2.73312  -2.73294  -2.72449
 Alpha  occ. eigenvalues --   -2.72449  -1.11868  -1.02931  -0.93605  -0.86533
 Alpha  occ. eigenvalues --   -0.81254  -0.78103  -0.70475  -0.63838  -0.61638
 Alpha  occ. eigenvalues --   -0.57621  -0.56408  -0.54790  -0.53106  -0.49727
 Alpha  occ. eigenvalues --   -0.48668  -0.48542  -0.47615  -0.46869  -0.44224
 Alpha  occ. eigenvalues --   -0.41039  -0.38559  -0.36829  -0.33197  -0.28435
 Alpha virt. eigenvalues --    0.04099   0.07974   0.10563   0.12913   0.13592
 Alpha virt. eigenvalues --    0.14539   0.15759   0.17267   0.18554   0.19100
 Alpha virt. eigenvalues --    0.20129   0.20650   0.21979   0.22622   0.23685

 Mulliken charges:
               1
     1  C   -0.058572
     2  C    0.061993
     3  O   -0.488377
     4  C   -0.071359
     5  C   -0.302525
     6  H    0.154559
     7  H    0.158685
     8  H    0.154019
     9  N   -0.380320
    10  H    0.279555
    11  H    0.285002
    12  C   -0.336932
    13  H    0.150986
    14  H    0.141895
    15  H    0.143692
    16  H    0.178383
    17  Br  -0.154457
    18  H    0.083773
 Sum of Mulliken charges =   0.00000

 Dipole moment (field-independent basis, Debye):
    X=             11.1190    Y=             -4.9750    Z=             -0.6361  Tot=             12.1979
 Quadrupole moment (field-independent basis, Debye-Ang):
   XX=            -51.0192   YY=            -70.4139   ZZ=            -58.1468
   XY=              5.6840   XZ=             -0.2604   YZ=             -1.9634

  Exact polarizability: 157.129 -15.501 138.433   1.711   6.394 111.136
 Approx polarizability: 124.091 -12.070 112.191   4.059   4.568  94.852

 ******    1 imaginary frequencies (negative Signs) ******

                      1                      2                      3
                      A                      A                      A
 Frequencies --   -321.7260                43.4971                82.8395
 Red. masses --      5.4019                 2.6112                 3.0962
 Frc consts  --      0.3294                 0.0029                 0.0125
 IR Inten    --    758.9996                 0.2245                 2.4044

                      4                      5                      6
                      A                      A                      A
 Frequencies --    103.6105               159.9212               177.1620
 Red. masses --      3.0119                 1.2518                 3.1153
 Frc consts  --      0.0190                 0.0189                 0.0576
 IR Inten    --     11.4796                 3.5224                 4.4324

                      7                      8                      9
                      A                      A                      A
 Frequencies --    190.3274               222.8518               229.9249
 Red. masses --      8.3576                 1.7571                 1.6215
 Frc consts  --      0.1784                 0.0514                 0.0505
 IR Inten    --      8.5100                 0.9901                 3.1001

                     10                     11                     12
                      A                      A                      A
 Frequencies --    310.0705               362.1431               462.5205
 Red. masses --      3.0231                 2.3409                 2.9262
 Frc consts  --      0.1712                 0.1809                 0.3688
 IR Inten    --     10.4225                 7.4802                19.4649

                     13                     14                     15
                      A                      A                      A
 Frequencies --    478.7285               523.5510               614.9949
 Red. masses --      3.3149                 4.1284                 2.1826
 Frc consts  --      0.4476                 0.6667                 0.4864
 IR Inten    --     89.5304                38.8605                54.9912

                     16                     17                     18
                      A                      A                      A
 Frequencies --    683.0115               955.6672               980.6677
 Red. masses --      2.6710                 1.3681                 1.1744
 Frc consts  --      0.7341                 0.7362                 0.6655
 IR Inten    --     37.9503                54.6819               122.1139

                     19                     20                     21
                      A                      A                      A
 Frequencies --   1001.2910              1017.1522              1042.5421
 Red. masses --      1.1186                 1.6073                 1.3612
 Frc consts  --      0.6608                 0.9798                 0.8717
 IR Inten    --      1.2829                 2.5103                16.4801

                     22                     23                     24
                      A                      A                      A
 Frequencies --   1087.3042              1110.8065              1138.2893
 Red. masses --      3.4642                 2.2351                 1.4605
 Frc consts  --      2.4130                 1.6249                 1.1149
 IR Inten    --     38.4032                66.9658                37.3124

                     25                     26                     27
                      A                      A                      A
 Frequencies --   1205.0574              1244.0523              1285.6731
 Red. masses --      1.4129                 2.3612                 1.9183
 Frc consts  --      1.2089                 2.1531                 1.8683
 IR Inten    --     16.3795               197.0735                34.3248

                     28                     29                     30
                      A                      A                      A
 Frequencies --   1348.0123              1411.5503              1428.0902
 Red. masses --      1.3310                 1.2494                 1.2889
 Frc consts  --      1.4250                 1.4667                 1.5487
 IR Inten    --      1.1719                52.5325                76.6838

                     31                     32                     33
                      A                      A                      A
 Frequencies --   1455.9027              1478.6792              1483.3566
 Red. masses --      1.1982                 1.1253                 1.0588
 Frc consts  --      1.4963                 1.4497                 1.3726
 IR Inten    --     34.3217                50.1611                 7.7233

                     34                     35                     36
                      A                      A                      A
 Frequencies --   1492.4095              1502.8202              1532.0029
 Red. masses --      1.0399                 1.0372                 2.7854
 Frc consts  --      1.3646                 1.3801                 3.8518
 IR Inten    --     15.6760                21.4383               519.6973

                     37                     38                     39
                      A                      A                      A
 Frequencies --   1648.9792              1683.5226              2910.9437
 Red. masses --      1.0895                 8.7852                 1.0810
 Frc consts  --      1.7455                14.6703                 5.3968
 IR Inten    --     58.0180              1033.8836               149.2384

                     40                     41                     42
                      A                      A                      A
 Frequencies --   3062.5624              3064.8800              3136.5875
 Red. masses --      1.0331                 1.0381                 1.0988
 Frc consts  --      5.7089                 5.7454                 6.3689
 IR Inten    --     33.6811                10.8668                12.9159

                     43                     44                     45
                      A                      A                      A
 Frequencies --   3138.7047              3153.5585              3156.9890
 Red. masses --      1.1045                 1.1051                 1.0994
 Frc consts  --      6.4108                 6.4754                 6.4558
 IR Inten    --     22.1887                18.4684                 7.7540

                     46                     47                     48
                      A                      A                      A
 Frequencies --   3172.7319              3532.0930              3615.5501
 Red. masses --      1.0935                 1.0503                 1.0962
 Frc consts  --      6.4854                 7.7199                 8.4428
 IR Inten    --     24.1727                41.2921                37.4152

 - Thermochemistry -
 -------------------
 Temperature   298.150 Kelvin.  Pressure   1.00000 Atm.
 Atom     1 has atomic number  6 and mass  12.00000

 Molecular mass:   178.99458 amu.
 Principal axes and moments of inertia in atomic units:
                           1         2         3
     Eigenvalues --  1197.978361805.674942310.57191
           X            0.99871  -0.04147  -0.02944
           Y            0.03925   0.99660  -0.07244
           Z            0.03235   0.07119   0.99694
 This molecule is an asymmetric top.
 Rotational symmetry number  1.
 Warning -- assumption of classical behavior for rotation
           may cause significant error
 Rotational temperatures (Kelvin)      0.07230     0.04797     0.03749
 Rotational constants (GHZ):           1.50649     0.99948     0.78108
    1 imaginary frequencies ignored.
 Zero-point vibrational energy     389525.5 (Joules/Mol)
                                   93.09884 (Kcal/Mol)
 Warning -- explicit consideration of  14 degrees of freedom as
           vibrations may cause significant error
 Vibrational temperatures:     62.58   119.19   149.07   230.09   254.90
          (Kelvin)            273.84   320.63   330.81   446.12   521.04
                              665.46   688.78   753.27   884.84   982.70
                             1374.99  1410.96  1440.63  1463.46  1499.99
                             1564.39  1598.20  1637.74  1733.81  1789.91
                             1849.80  1939.49  2030.91  2054.70  2094.72
                             2127.49  2134.22  2147.24  2162.22  2204.21
                             2372.51  2422.21  4188.20  4406.34  4409.68
                             4512.85  4515.90  4537.27  4542.20  4564.85
                             5081.89  5201.97

 Zero-point correction=                           0.148362 (Hartree/Particle)
 Thermal correction to Energy=                    0.158467
 Thermal correction to Enthalpy=                  0.159411
 Thermal correction to Gibbs Free Energy=         0.111474
 Sum of electronic and zero-point Energies=          -2900.581083
 Sum of electronic and thermal Energies=             -2900.570978
 Sum of electronic and thermal Enthalpies=           -2900.570034
 Sum of electronic and thermal Free Energies=        -2900.617971

                     E (Thermal)             CV                S
                      KCal/Mol        Cal/Mol-Kelvin    Cal/Mol-Kelvin
 Total                   99.439             34.074            100.891
 Electronic               0.000              0.000              0.000
 Translational            0.889              2.981             41.453
 Rotational               0.889              2.981             29.992
 Vibrational             97.662             28.113             29.445
 Vibration     1          0.595              1.980              5.093
 Vibration     2          0.600              1.961              3.822
 Vibration     3          0.605              1.946              3.385
 Vibration     4          0.622              1.891              2.551
 Vibration     5          0.628              1.870              2.358
 Vibration     6          0.634              1.853              2.225
 Vibration     7          0.649              1.806              1.936
 Vibration     8          0.652              1.795              1.880
 Vibration     9          0.699              1.655              1.362
 Vibration    10          0.736              1.550              1.113
 Vibration    11          0.820              1.333              0.759
 Vibration    12          0.835              1.297              0.714
 Vibration    13          0.879              1.198              0.602
 Vibration    14          0.974              1.000              0.425

 Optimization completed.
    -- Stationary point found.
 Normal termination of Gaussian 16 at Sat Feb 13 22:29:48 2021.
