 Gaussian 16, Revision A.03,
 Gaussian 16:  ES64L-G16RevA.03 25-Dec-2016

 ----------------------------------------------------------------------
 # wB97XD def2tzvp, opt=(ts, noeigen, calcfc, maxcycles=70, maxstep=3),
  freq=noraman, scrf=(iefpcm, solvent=water)
 ----------------------------------------------------------------------

 ------------------------
 0_iteration/TS-429-0.out
 ------------------------
 Symbolic Z-matrix:
 Charge =  0 Multiplicity = 1

 SCF Done:  E(RwB97XD) =  -3226.46451800     A.U. after   15 cycles
 Optimization completed.
    -- Stationary point found.
 Normal termination of Gaussian 16 at Mon Apr 12 20:17:04 2021.

 ---------------------------------------------------------------------
 #N Geom=AllCheck Guess=TCheck SCRF=Check GenChk RwB97XD/def2TZVP Freq
 ---------------------------------------------------------------------

 Structure from the checkpoint file:  "/beegfs/scratch/user/q/tla25/Gau-39169.chk"
 ------------------------
 0_iteration/TS-429-0.out
 ------------------------
 Charge =  0 Multiplicity = 1

                         Standard orientation:
 ---------------------------------------------------------------------
 Center     Atomic      Atomic             Coordinates (Angstroms)
 Number     Number       Type             X           Y           Z
 ---------------------------------------------------------------------
      1          6           0        0.763411   -0.049109   -0.189110
      2          6           0        0.902010    1.215091    0.482590
      3          8           0        0.077909    1.572691    1.353090
      4          6           0       -0.373598   -0.865300   -0.001010
      5          6           0        0.789903   -1.794509    2.400390
      6          1           0        0.907303   -1.627409    3.471590
      7          1           0        0.775594   -2.865109    2.205790
      8          1           0        1.637902   -1.346008    1.881690
      9          7           0       -0.430998   -1.183900    1.894790
     10          1           0       -1.256897   -1.660201    2.232390
     11          1           0       -0.479899   -0.194700    2.142890
     12          6           0       -0.346007   -2.275400   -0.544410
     13          1           0       -0.366407   -2.238400   -1.635010
     14          1           0        0.553594   -2.807109   -0.241310
     15          1           0       -1.219006   -2.833001   -0.211110
     16          6           0       -1.740499   -0.226701   -0.179210
     17          6           0       -2.899598   -0.809092    0.331090
     18          6           0       -4.147999   -0.258884    0.084390
     19          6           0       -4.266590    0.881116   -0.695810
     20          6           0       -3.124491    1.455507   -1.232910
     21          6           0       -1.878590    0.903509   -0.980510
     22          1           0       -2.851097   -1.714992    0.921690
     23          1           0       -5.030098   -0.729485    0.499790
     24          1           0       -5.240690    1.311015   -0.891410
     25          1           0       -3.200881    2.337707   -1.856310
     26          1           0       -0.994290    1.350700   -1.413410
     27         35           0        2.321902   -0.766017   -1.060810
     28          7           0        1.952019    2.023293    0.191090
     29          6           0        2.155018    3.283183    0.862890
     30          1           0        2.574909    1.764183   -0.551010
     31          1           0        2.194418    3.148083    1.944990
     32          1           0        3.102017    3.703784    0.530590
     33          1           0        1.358727    3.997792    0.640290
 ---------------------------------------------------------------------

 SCF Done:  E(RwB97XD) =  -3226.46451800     A.U. after    1 cycles

 The electronic state is 1-A.
 Alpha  occ. eigenvalues -- -483.12013 -62.66837 -56.45935 -56.45614 -56.45602
 Alpha  occ. eigenvalues --  -19.19910 -14.47257 -14.44221 -10.37456 -10.35884
 Alpha  occ. eigenvalues --  -10.31213 -10.30541 -10.30511 -10.29365 -10.29354
 Alpha  occ. eigenvalues --  -10.29117 -10.29014 -10.28942 -10.28837 -10.28325
 Alpha  occ. eigenvalues --   -8.80945  -6.63028  -6.62007  -6.61968  -2.73428
 Alpha  occ. eigenvalues --   -2.73136  -2.73104  -2.72278  -2.72276  -1.12419
 Alpha  occ. eigenvalues --   -1.03244  -1.00931  -0.97213  -0.92911  -0.87992
 Alpha  occ. eigenvalues --   -0.85273  -0.83331  -0.81163  -0.78512  -0.77564
 Alpha  occ. eigenvalues --   -0.71344  -0.70343  -0.67634  -0.64860  -0.62929
 Alpha  occ. eigenvalues --   -0.61754  -0.58136  -0.56993  -0.55383  -0.55119
 Alpha  occ. eigenvalues --   -0.53889  -0.53615  -0.53128  -0.51444  -0.51012
 Alpha  occ. eigenvalues --   -0.49685  -0.49330  -0.47700  -0.47398  -0.46574
 Alpha  occ. eigenvalues --   -0.46518  -0.46096  -0.45694  -0.42800  -0.42386
 Alpha  occ. eigenvalues --   -0.40878  -0.39131  -0.37414  -0.34663  -0.33844
 Alpha  occ. eigenvalues --   -0.32952  -0.32375  -0.25997
 Alpha virt. eigenvalues --    0.02931   0.05322   0.07271   0.09924   0.10324
 Alpha virt. eigenvalues --    0.12525   0.13626   0.13942   0.15060   0.15622
 Alpha virt. eigenvalues --    0.16102   0.16438   0.16786   0.17739   0.18627

 Mulliken charges:
               1
     1  C   -0.412181
     2  C    0.407298
     3  O   -0.593974
     4  C    0.296152
     5  C   -0.310158
     6  H    0.153437
     7  H    0.157232
     8  H    0.152534
     9  N   -0.308708
    10  H    0.263416
    11  H    0.276371
    12  C   -0.376766
    13  H    0.155453
    14  H    0.147275
    15  H    0.146337
    16  C    0.189332
    17  C   -0.277384
    18  C   -0.174274
    19  C   -0.141589
    20  C   -0.147501
    21  C   -0.226521
    22  H    0.152755
    23  H    0.142294
    24  H    0.143816
    25  H    0.141170
    26  H    0.159345
    27  Br  -0.180036
    28  N   -0.324028
    29  C   -0.247247
    30  H    0.249578
    31  H    0.124829
    32  H    0.138897
    33  H    0.122845
 Sum of Mulliken charges =  -0.00000

 Dipole moment (field-independent basis, Debye):
    X=             -1.3640    Y=             -3.5578    Z=              2.2541  Tot=              4.4271
 Quadrupole moment (field-independent basis, Debye-Ang):
   XX=            -99.8990   YY=            -99.3576   ZZ=           -104.9078
   XY=              9.2814   XZ=              0.0274   YZ=            -14.2261

  Exact polarizability: 291.067   6.002 255.192 -16.565 -22.001 217.284
 Approx polarizability: 225.766   2.672 205.711 -16.831 -17.713 186.017

 ******    1 imaginary frequencies (negative Signs) ******

                      1                      2                      3
                      A                      A                      A
 Frequencies --   -382.7344                40.7980                52.4747
 Red. masses --      5.2366                 2.7422                 3.7629
 Frc consts  --      0.4520                 0.0027                 0.0061
 IR Inten    --    603.9114                13.2173                 0.9504

                      4                      5                      6
                      A                      A                      A
 Frequencies --     62.9465                72.4826                84.8653
 Red. masses --      5.5437                 2.0746                 3.0672
 Frc consts  --      0.0129                 0.0064                 0.0130
 IR Inten    --      6.2429                 1.0091                 0.9675

                      7                      8                      9
                      A                      A                      A
 Frequencies --    107.6462               127.3811               142.0001
 Red. masses --      2.9816                 1.8267                 4.3298
 Frc consts  --      0.0204                 0.0175                 0.0514
 IR Inten    --      5.2571                 1.2236                24.6357

                     10                     11                     12
                      A                      A                      A
 Frequencies --    154.1884               179.2025               198.3147
 Red. masses --      3.0664                 2.1544                 5.0619
 Frc consts  --      0.0430                 0.0408                 0.1173
 IR Inten    --     30.5591                10.1615                 0.8008

                     13                     14                     15
                      A                      A                      A
 Frequencies --    212.2689               262.0092               274.7530
 Red. masses --      1.5349                 3.4492                 2.2735
 Frc consts  --      0.0407                 0.1395                 0.1011
 IR Inten    --      7.6180                 9.4911                 5.5447

                     16                     17                     18
                      A                      A                      A
 Frequencies --    292.8466               298.9799               310.4621
 Red. masses --      2.0380                 3.8774                 2.1509
 Frc consts  --      0.1030                 0.2042                 0.1221
 IR Inten    --      3.9838                14.6530                 3.9715

                     19                     20                     21
                      A                      A                      A
 Frequencies --    332.9622               355.7000               377.0931
 Red. masses --      2.9898                 2.0234                 1.6063
 Frc consts  --      0.1953                 0.1508                 0.1346
 IR Inten    --     39.7230                31.8097                46.7832

                     22                     23                     24
                      A                      A                      A
 Frequencies --    412.3217               426.1327               435.9167
 Red. masses --      6.9182                 2.9705                 3.7930
 Frc consts  --      0.6930                 0.3178                 0.4247
 IR Inten    --     22.2926                 3.2111                23.9862

                     25                     26                     27
                      A                      A                      A
 Frequencies --    561.0669               565.0201               620.4361
 Red. masses --      3.1534                 4.1267                 3.6459
 Frc consts  --      0.5849                 0.7762                 0.8269
 IR Inten    --     95.8423                61.4116                13.8453

                     28                     29                     30
                      A                      A                      A
 Frequencies --    639.3194               709.2435               725.7141
 Red. masses --      6.3808                 1.6092                 1.6469
 Frc consts  --      1.5366                 0.4769                 0.5110
 IR Inten    --      1.4963                91.3711                86.3785

                     31                     32                     33
                      A                      A                      A
 Frequencies --    762.3160               781.8881               796.0451
 Red. masses --      3.9704                 8.0931                 2.1358
 Frc consts  --      1.3594                 2.9151                 0.7974
 IR Inten    --      1.3447                49.5289                46.7554

                     34                     35                     36
                      A                      A                      A
 Frequencies --    816.4596               876.2341               958.4524
 Red. masses --      3.3999                 1.2464                 1.4394
 Frc consts  --      1.3353                 0.5638                 0.7791
 IR Inten    --     31.3664                 0.2888                14.7867

                     37                     38                     39
                      A                      A                      A
 Frequencies --    976.2600              1001.3337              1018.4523
 Red. masses --      3.2161                 1.1932                 1.3969
 Frc consts  --      1.8060                 0.7049                 0.8537
 IR Inten    --     11.6279                29.6485                16.0889

                     40                     41                     42
                      A                      A                      A
 Frequencies --   1024.8066              1027.2304              1031.3827
 Red. masses --      2.4950                 3.0877                 1.3547
 Frc consts  --      1.5438                 1.9196                 0.8490
 IR Inten    --     32.8632                39.0965                 5.1912

                     43                     44                     45
                      A                      A                      A
 Frequencies --   1056.5150              1061.5192              1075.6646
 Red. masses --      1.6496                 2.4282                 1.2306
 Frc consts  --      1.0849                 1.6121                 0.8389
 IR Inten    --    113.1315                12.8218                56.2223

                     46                     47                     48
                      A                      A                      A
 Frequencies --   1090.3154              1118.7134              1126.1178
 Red. masses --      3.1851                 1.6068                 2.3061
 Frc consts  --      2.2309                 1.1848                 1.7231
 IR Inten    --      7.6104                 9.3556                20.7429

                     49                     50                     51
                      A                      A                      A
 Frequencies --   1156.1343              1167.0672              1184.1941
 Red. masses --      1.2901                 2.4473                 1.1254
 Frc consts  --      1.0160                 1.9639                 0.9298
 IR Inten    --      1.7767                27.7026                 0.0212

                     52                     53                     54
                      A                      A                      A
 Frequencies --   1187.0882              1211.7299              1225.4866
 Red. masses --      2.1836                 1.1624                 1.3427
 Frc consts  --      1.8130                 1.0055                 1.1881
 IR Inten    --     23.3678                13.8195                46.5638

                     55                     56                     57
                      A                      A                      A
 Frequencies --   1261.7888              1314.2013              1322.6807
 Red. masses --      3.7276                 2.6440                 3.5945
 Frc consts  --      3.4966                 2.6905                 3.7051
 IR Inten    --     38.2760               241.9221               125.6451

                     58                     59                     60
                      A                      A                      A
 Frequencies --   1351.3459              1365.6907              1394.2832
 Red. masses --      1.5132                 1.3374                 3.2243
 Frc consts  --      1.6281                 1.4696                 3.6930
 IR Inten    --     22.5222                 8.1091               452.8535

                     61                     62                     63
                      A                      A                      A
 Frequencies --   1420.2245              1453.2699              1455.5607
 Red. masses --      1.2913                 1.2470                 1.2011
 Frc consts  --      1.5346                 1.5518                 1.4993
 IR Inten    --     58.3446                36.9763                 8.3705

                     64                     65                     66
                      A                      A                      A
 Frequencies --   1475.8473              1483.2702              1490.3052
 Red. masses --      1.0572                 1.2017                 1.0684
 Frc consts  --      1.3568                 1.5577                 1.3981
 IR Inten    --     21.3130                 7.5391                19.2621

                     67                     68                     69
                      A                      A                      A
 Frequencies --   1493.2266              1499.1062              1508.0041
 Red. masses --      1.7472                 1.1115                 1.0726
 Frc consts  --      2.2953                 1.4718                 1.4371
 IR Inten    --     61.6407                10.9721                16.5296

                     70                     71                     72
                      A                      A                      A
 Frequencies --   1508.3910              1541.1341              1556.5260
 Red. masses --      1.0403                 2.2330                 2.1533
 Frc consts  --      1.3946                 3.1248                 3.0737
 IR Inten    --      3.0472                20.6341               806.0972

                     73                     74                     75
                      A                      A                      A
 Frequencies --   1598.3840              1651.0801              1653.5094
 Red. masses --      4.0162                 2.4337                 1.6789
 Frc consts  --      6.0455                 3.9088                 2.7045
 IR Inten    --    443.5406                 6.9458                 5.1781

                     76                     77                     78
                      A                      A                      A
 Frequencies --   1673.4647              3045.6808              3063.7446
 Red. masses --      5.9614                 1.0376                 1.0334
 Frc consts  --      9.8362                 5.6710                 5.7151
 IR Inten    --      4.3972                90.7476                49.9250

                     79                     80                     81
                      A                      A                      A
 Frequencies --   3071.4452              3103.8929              3136.2566
 Red. masses --      1.0375                 1.1018                 1.1039
 Frc consts  --      5.7667                 6.2541                 6.3975
 IR Inten    --     11.8837                45.9372                14.0907

                     82                     83                     84
                      A                      A                      A
 Frequencies --   3146.2055              3155.7936              3161.1817
 Red. masses --      1.0993                 1.1016                 1.1051
 Frc consts  --      6.4115                 6.4640                 6.5066
 IR Inten    --     14.7825                26.3943                22.6317

                     85                     86                     87
                      A                      A                      A
 Frequencies --   3168.0585              3194.2247              3200.4500
 Red. masses --      1.1038                 1.0857                 1.0885
 Frc consts  --      6.5269                 6.5264                 6.5689
 IR Inten    --     23.1855                 3.2515                 3.3878

                     88                     89                     90
                      A                      A                      A
 Frequencies --   3209.7881              3219.5434              3225.4915
 Red. masses --      1.0925                 1.0950                 1.0967
 Frc consts  --      6.6317                 6.6873                 6.7226
 IR Inten    --     30.1771                27.3999                11.9139

                     91                     92                     93
                      A                      A                      A
 Frequencies --   3422.2356              3600.1756              3683.8266
 Red. masses --      1.0637                 1.0845                 1.0779
 Frc consts  --      7.3399                 8.2817                 8.6185
 IR Inten    --    120.0549                64.9665                80.7800

 - Thermochemistry -
 -------------------
 Temperature   298.150 Kelvin.  Pressure   1.00000 Atm.
 Atom     1 has atomic number  6 and mass  12.00000

 Molecular mass:   284.05242 amu.
 Principal axes and moments of inertia in atomic units:
                           1         2         3
     Eigenvalues --  3206.384626150.494776983.68070
           X            0.99841   0.04634   0.03225
           Y           -0.04360   0.99578  -0.08081
           Z           -0.03586   0.07928   0.99621
 This molecule is an asymmetric top.
 Rotational symmetry number  1.
 Warning -- assumption of classical behavior for rotation
           may cause significant error
 Rotational temperatures (Kelvin)      0.02701     0.01408     0.01240
 Rotational constants (GHZ):           0.56286     0.29343     0.25842
    1 imaginary frequencies ignored.
 Zero-point vibrational energy     724011.3 (Joules/Mol)
                                  173.04286 (Kcal/Mol)
 Warning -- explicit consideration of  26 degrees of freedom as
           vibrations may cause significant error
 Vibrational temperatures:     58.70    75.50    90.57   104.29   122.10
          (Kelvin)            154.88   183.27   204.31   221.84   257.83
                              285.33   305.41   376.97   395.31   421.34
                              430.17   446.69   479.06   511.77   542.55
                              593.24   613.11   627.19   807.25   812.94
                              892.67   919.84  1020.44  1044.14  1096.80
                             1124.96  1145.33  1174.70  1260.71  1379.00
                             1404.62  1440.70  1465.33  1474.47  1477.96
                             1483.93  1520.09  1527.29  1547.64  1568.72
                             1609.58  1620.23  1663.42  1679.15  1703.79
                             1707.96  1743.41  1763.20  1815.43  1890.84
                             1903.04  1944.29  1964.92  2006.06  2043.39
                             2090.93  2094.23  2123.42  2134.10  2144.22
                             2148.42  2156.88  2169.68  2170.24  2217.35
                             2239.49  2299.72  2375.54  2379.03  2407.74
                             4382.06  4408.05  4419.12  4465.81  4512.37
                             4526.69  4540.48  4548.24  4558.13  4595.78
                             4604.73  4618.17  4632.20  4640.76  4923.83
                             5179.85  5300.20

 Zero-point correction=                           0.275761 (Hartree/Particle)
 Thermal correction to Energy=                    0.293040
 Thermal correction to Enthalpy=                  0.293984
 Thermal correction to Gibbs Free Energy=         0.229815
 Sum of electronic and zero-point Energies=          -3226.188757
 Sum of electronic and thermal Energies=             -3226.171478
 Sum of electronic and thermal Enthalpies=           -3226.170534
 Sum of electronic and thermal Free Energies=        -3226.234703

                     E (Thermal)             CV                S
                      KCal/Mol        Cal/Mol-Kelvin    Cal/Mol-Kelvin
 Total                  183.885             62.958            135.055
 Electronic               0.000              0.000              0.000
 Translational            0.889              2.981             42.830
 Rotational               0.889              2.981             33.287
 Vibrational            182.108             56.996             58.938
 Vibration     1          0.594              1.981              5.220
 Vibration     2          0.596              1.977              4.722
 Vibration     3          0.597              1.972              4.363
 Vibration     4          0.599              1.967              4.085
 Vibration     5          0.601              1.960              3.775
 Vibration     6          0.606              1.943              3.311
 Vibration     7          0.611              1.926              2.985
 Vibration     8          0.615              1.911              2.777
 Vibration     9          0.620              1.898              2.620
 Vibration    10          0.629              1.868              2.337
 Vibration    11          0.637              1.842              2.149
 Vibration    12          0.643              1.822              2.024
 Vibration    13          0.669              1.742              1.648
 Vibration    14          0.677              1.720              1.566
 Vibration    15          0.688              1.687              1.457
 Vibration    16          0.692              1.676              1.423
 Vibration    17          0.699              1.654              1.360
 Vibration    18          0.715              1.610              1.246
 Vibration    19          0.731              1.564              1.141
 Vibration    20          0.748              1.519              1.051
 Vibration    21          0.776              1.443              0.918
 Vibration    22          0.788              1.413              0.871
 Vibration    23          0.796              1.392              0.840
 Vibration    24          0.917              1.116              0.522
 Vibration    25          0.921              1.107              0.514
 Vibration    26          0.980              0.989              0.416

 Optimization completed.
    -- Stationary point found.
 Normal termination of Gaussian 16 at Mon Apr 12 20:55:25 2021.
