 Gaussian 16, Revision A.03,
 Gaussian 16:  ES64L-G16RevA.03 25-Dec-2016

 ----------------------------------------------------------------------
 # wB97XD def2tzvp, opt=(ts, noeigen, calcfc, maxcycles=70, maxstep=5),
  freq=noraman, scrf=(iefpcm, solvent=water)
 ----------------------------------------------------------------------

 ------------------------
 2_iteration/TS-446-2.out
 ------------------------
 Symbolic Z-matrix:
 Charge =  0 Multiplicity = 1

 SCF Done:  E(RwB97XD) =  -692.148562494     A.U. after   14 cycles
 Optimization completed.
    -- Stationary point found.
 Normal termination of Gaussian 16 at Sun Feb 14 15:10:40 2021.

 ---------------------------------------------------------------------
 #N Geom=AllCheck Guess=TCheck SCRF=Check GenChk RwB97XD/def2TZVP Freq
 ---------------------------------------------------------------------

 Structure from the checkpoint file:  "/beegfs/scratch/user/q/tla25/Gau-35526.chk"
 ------------------------
 2_iteration/TS-446-2.out
 ------------------------
 Charge =  0 Multiplicity = 1

                         Standard orientation:
 ---------------------------------------------------------------------
 Center     Atomic      Atomic             Coordinates (Angstroms)
 Number     Number       Type             X           Y           Z
 ---------------------------------------------------------------------
      1          6           0       -0.124900   -0.062481    0.167180
      2          6           0       -0.905251   -1.158740   -0.373920
      3          8           0       -0.485861   -1.921620   -1.260380
      4          6           0       -0.782849    1.128390    0.574330
      5          6           0       -2.337508    2.977611   -0.781860
      6          1           0       -2.470777    3.609401   -1.659070
      7          1           0       -3.153398    2.259321   -0.728240
      8          1           0       -2.351257    3.599331    0.111200
      9          7           0       -1.068898    2.246110   -0.838290
     10          1           0       -1.039719    1.620830   -1.636000
     11          1           0       -0.286348    2.885970   -0.924460
     12          6           0       -0.180128    2.057789    1.601460
     13          1           0       -0.257629    1.572620    2.576230
     14          1           0        0.871322    2.265709    1.415910
     15          1           0       -0.719458    3.003540    1.662730
     16          1           0       -1.842059    0.990301    0.757370
     17          6           0        1.339280   -0.149952    0.051150
     18          6           0        2.011209   -1.334992    0.393870
     19          6           0        3.387589   -1.446493    0.316180
     20          6           0        4.162290   -0.367874   -0.098370
     21          6           0        3.526131    0.813147   -0.444960
     22          6           0        2.142271    0.913218   -0.381930
     23          1           0        1.428879   -2.183362    0.732440
     24          1           0        3.864239   -2.379643    0.593360
     25          1           0        5.240480   -0.450854   -0.152020
     26          1           0        4.106251    1.664177   -0.782040
     27          1           0        1.685221    1.843348   -0.694670
     28          7           0       -2.206051   -1.338129    0.083680
     29          6           0       -2.572041   -1.192179    1.478260
     30          6           0       -3.061591   -2.239479   -0.654140
     31          1           0       -1.725630   -0.826899    2.054710
     32          1           0       -3.413480   -0.504148    1.608800
     33          1           0       -2.867661   -2.163929    1.889140
     34          1           0       -2.877731   -2.141969   -1.721100
     35          1           0       -2.903142   -3.288559   -0.373620
     36          1           0       -4.103581   -1.985888   -0.448870
 ---------------------------------------------------------------------

 SCF Done:  E(RwB97XD) =  -692.148562494     A.U. after    1 cycles

 The electronic state is 1-A.
 Alpha  occ. eigenvalues --  -19.18600 -14.49535 -14.43753 -10.35913 -10.33488
 Alpha  occ. eigenvalues --  -10.32317 -10.30201 -10.29611 -10.28897 -10.28039
 Alpha  occ. eigenvalues --  -10.27925 -10.27770 -10.27556 -10.27519 -10.27238
 Alpha  occ. eigenvalues --  -10.24136  -1.11154  -1.04997  -1.01253  -0.95438
 Alpha  occ. eigenvalues --   -0.90043  -0.84480  -0.83778  -0.81278  -0.79895
 Alpha  occ. eigenvalues --   -0.79432  -0.75399  -0.70442  -0.69139  -0.66386
 Alpha  occ. eigenvalues --   -0.63806  -0.62460  -0.59244  -0.59175  -0.56234
 Alpha  occ. eigenvalues --   -0.55659  -0.55236  -0.54038  -0.53213  -0.52382
 Alpha  occ. eigenvalues --   -0.50710  -0.49937  -0.49541  -0.49491  -0.48606
 Alpha  occ. eigenvalues --   -0.47939  -0.46964  -0.46392  -0.45314  -0.45227
 Alpha  occ. eigenvalues --   -0.44734  -0.44019  -0.42565  -0.41418  -0.40603
 Alpha  occ. eigenvalues --   -0.34003  -0.33100  -0.32175  -0.30370  -0.24080
 Alpha virt. eigenvalues --    0.06040   0.06373   0.08204   0.09519   0.11727
 Alpha virt. eigenvalues --    0.13296   0.13388   0.14504   0.15344   0.15996
 Alpha virt. eigenvalues --    0.16588   0.16905   0.17574   0.17923   0.18693

 Mulliken charges:
               1
     1  C   -0.176590
     2  C    0.225003
     3  O   -0.545097
     4  C   -0.156132
     5  C   -0.296138
     6  H    0.161689
     7  H    0.160450
     8  H    0.153364
     9  N   -0.259034
    10  H    0.285921
    11  H    0.283082
    12  C   -0.327708
    13  H    0.140033
    14  H    0.139289
    15  H    0.128675
    16  H    0.166875
    17  C    0.237287
    18  C   -0.286019
    19  C   -0.139843
    20  C   -0.180243
    21  C   -0.152078
    22  C   -0.278435
    23  H    0.127660
    24  H    0.131683
    25  H    0.134451
    26  H    0.131689
    27  H    0.128066
    28  N   -0.135394
    29  C   -0.313962
    30  C   -0.295451
    31  H    0.157226
    32  H    0.139409
    33  H    0.129532
    34  H    0.131354
    35  H    0.118306
    36  H    0.131078
 Sum of Mulliken charges =  -0.00000

 Dipole moment (field-independent basis, Debye):
    X=             -6.1444    Y=             10.1632    Z=              1.4053  Tot=             11.9591
 Quadrupole moment (field-independent basis, Debye-Ang):
   XX=            -88.4849   YY=            -84.3489   ZZ=            -99.9583
   XY=             -5.9230   XZ=              0.2124   YZ=            -14.1440

  Exact polarizability: 302.559  -7.483 266.161  -7.104  -8.983 187.337
 Approx polarizability: 221.850  -5.269 210.717  -6.533  -6.863 161.258

 ******    1 imaginary frequencies (negative Signs) ******

                      1                      2                      3
                      A                      A                      A
 Frequencies --   -353.6998                37.9195                56.6529
 Red. masses --      5.8089                 3.6534                 2.8321
 Frc consts  --      0.4282                 0.0031                 0.0054
 IR Inten    --    894.8938                 0.6316                 0.8232

                      4                      5                      6
                      A                      A                      A
 Frequencies --     66.8172                83.1038                84.3073
 Red. masses --      3.6672                 3.6142                 2.4240
 Frc consts  --      0.0096                 0.0147                 0.0102
 IR Inten    --      2.4699                12.5392                 3.8128

                      7                      8                      9
                      A                      A                      A
 Frequencies --     94.1744               116.2997               143.3496
 Red. masses --      2.8381                 3.5043                 2.2760
 Frc consts  --      0.0148                 0.0279                 0.0276
 IR Inten    --     10.4152                 2.8320                 7.6287

                     10                     11                     12
                      A                      A                      A
 Frequencies --    176.5678               189.7252               197.5056
 Red. masses --      1.2532                 1.3394                 1.3222
 Frc consts  --      0.0230                 0.0284                 0.0304
 IR Inten    --      4.9831                 2.7356                 0.7870

                     13                     14                     15
                      A                      A                      A
 Frequencies --    218.4978               236.8875               239.7269
 Red. masses --      1.6248                 2.1955                 3.0920
 Frc consts  --      0.0457                 0.0726                 0.1047
 IR Inten    --      6.1848                16.0188                 2.5023

                     16                     17                     18
                      A                      A                      A
 Frequencies --    266.8640               284.1198               306.5220
 Red. masses --      2.3754                 2.3659                 3.0565
 Frc consts  --      0.0997                 0.1125                 0.1692
 IR Inten    --     11.2023                 7.5732                64.9692

                     19                     20                     21
                      A                      A                      A
 Frequencies --    353.3052               392.5113               420.0672
 Red. masses --      2.8056                 3.2048                 2.9916
 Frc consts  --      0.2063                 0.2909                 0.3110
 IR Inten    --     21.3881                34.9696                 5.3814

                     22                     23                     24
                      A                      A                      A
 Frequencies --    434.0204               452.3530               506.5647
 Red. masses --      2.9866                 3.0015                 3.9462
 Frc consts  --      0.3315                 0.3619                 0.5966
 IR Inten    --      2.6177                12.2312                29.5793

                     25                     26                     27
                      A                      A                      A
 Frequencies --    570.4829               592.0909               638.2679
 Red. masses --      4.4346                 3.8601                 5.9617
 Frc consts  --      0.8503                 0.7973                 1.4309
 IR Inten    --     63.8264                44.7023                 0.4081

                     28                     29                     30
                      A                      A                      A
 Frequencies --    669.4592               711.0237               722.4329
 Red. masses --      5.4719                 1.3086                 3.9862
 Frc consts  --      1.4449                 0.3898                 1.2258
 IR Inten    --     33.6169                25.7692                14.9694

                     31                     32                     33
                      A                      A                      A
 Frequencies --    727.9254               787.5885               801.1898
 Red. masses --      1.6310                 2.4971                 6.4068
 Frc consts  --      0.5092                 0.9126                 2.4230
 IR Inten    --    113.7925                38.2361                64.7443

                     34                     35                     36
                      A                      A                      A
 Frequencies --    867.0834               881.2709               932.1289
 Red. masses --      1.4269                 2.6201                 1.5063
 Frc consts  --      0.6321                 1.1989                 0.7711
 IR Inten    --      0.8173                19.4054                18.9048

                     37                     38                     39
                      A                      A                      A
 Frequencies --    964.7800              1000.4050              1010.3529
 Red. masses --      1.8174                 1.3597                 1.2912
 Frc consts  --      0.9967                 0.8018                 0.7766
 IR Inten    --     31.8362                 0.9712                 1.9777

                     40                     41                     42
                      A                      A                      A
 Frequencies --   1010.9845              1019.5695              1025.3882
 Red. masses --      1.2086                 3.5234                 2.3019
 Frc consts  --      0.7278                 2.1580                 1.4260
 IR Inten    --     15.8789                35.1257                68.3907

                     43                     44                     45
                      A                      A                      A
 Frequencies --   1048.2270              1064.5232              1068.5976
 Red. masses --      1.7414                 2.1421                 1.5065
 Frc consts  --      1.1274                 1.4302                 1.0135
 IR Inten    --     19.5510                 4.9217               197.8739

                     46                     47                     48
                      A                      A                      A
 Frequencies --   1086.2495              1089.5135              1115.5192
 Red. masses --      1.4213                 2.0678                 1.6383
 Frc consts  --      0.9881                 1.4462                 1.2012
 IR Inten    --     24.5104                67.9720                17.4123

                     49                     50                     51
                      A                      A                      A
 Frequencies --   1130.9403              1135.5370              1168.3320
 Red. masses --      2.3033                 1.2434                 1.4020
 Frc consts  --      1.7357                 0.9446                 1.1275
 IR Inten    --     78.5043                 2.3590                17.8775

                     52                     53                     54
                      A                      A                      A
 Frequencies --   1178.6919              1185.7843              1215.1890
 Red. masses --      1.1331                 2.2878                 1.1360
 Frc consts  --      0.9275                 1.8953                 0.9883
 IR Inten    --      3.1090               105.5861                 3.8273

                     55                     56                     57
                      A                      A                      A
 Frequencies --   1238.2507              1254.7859              1272.9777
 Red. masses --      1.5986                 1.6826                 1.4396
 Frc consts  --      1.4441                 1.5609                 1.3745
 IR Inten    --    253.3111                99.5447                65.8717

                     58                     59                     60
                      A                      A                      A
 Frequencies --   1304.8665              1317.4588              1346.9671
 Red. masses --      4.5768                 3.5532                 1.3061
 Frc consts  --      4.5914                 3.6337                 1.3961
 IR Inten    --     56.4986                31.2823                 2.1310

                     61                     62                     63
                      A                      A                      A
 Frequencies --   1363.5860              1380.1863              1399.2420
 Red. masses --      1.4777                 2.5951                 2.3442
 Frc consts  --      1.6189                 2.9126                 2.7041
 IR Inten    --     19.6578               129.9390               520.4215

                     64                     65                     66
                      A                      A                      A
 Frequencies --   1414.4536              1435.4996              1444.2499
 Red. masses --      1.4136                 1.8654                 1.1598
 Frc consts  --      1.6663                 2.2648                 1.4254
 IR Inten    --    139.5545               256.6495                 4.7299

                     67                     68                     69
                      A                      A                      A
 Frequencies --   1468.0744              1471.1444              1483.8863
 Red. masses --      1.2068                 1.2148                 1.1037
 Frc consts  --      1.5325                 1.5491                 1.4319
 IR Inten    --     14.3758                79.1014                11.6945

                     70                     71                     72
                      A                      A                      A
 Frequencies --   1486.8083              1489.9667              1493.8531
 Red. masses --      1.3031                 1.3334                 1.0788
 Frc consts  --      1.6972                 1.7441                 1.4184
 IR Inten    --      1.7962                 5.8501                16.9519

                     73                     74                     75
                      A                      A                      A
 Frequencies --   1496.9671              1498.0290              1504.7623
 Red. masses --      1.2565                 1.0487                 1.0696
 Frc consts  --      1.6590                 1.3866                 1.4269
 IR Inten    --     60.0521                22.8435                38.2625

                     76                     77                     78
                      A                      A                      A
 Frequencies --   1508.8051              1526.2795              1539.5932
 Red. masses --      1.0410                 1.1915                 2.2777
 Frc consts  --      1.3962                 1.6354                 3.1810
 IR Inten    --     14.0895               172.1289               105.7201

                     79                     80                     81
                      A                      A                      A
 Frequencies --   1606.1194              1634.0862              1649.5993
 Red. masses --      8.5720                 5.2494                 1.0907
 Frc consts  --     13.0284                 8.2587                 1.7486
 IR Inten    --    730.3215                20.4153                50.4756

                     82                     83                     84
                      A                      A                      A
 Frequencies --   1666.1952              3005.0103              3015.5573
 Red. masses --      5.8508                 1.0510                 1.0405
 Frc consts  --      9.5700                 5.5917                 5.5749
 IR Inten    --    166.4859               122.5392               150.4250

                     85                     86                     87
                      A                      A                      A
 Frequencies --   3062.9896              3065.2398              3076.3423
 Red. masses --      1.1019                 1.0384                 1.0327
 Frc consts  --      6.0911                 5.7486                 5.7582
 IR Inten    --     81.0725                24.3239                39.6788

                     88                     89                     90
                      A                      A                      A
 Frequencies --   3088.2383              3130.1774              3157.0259
 Red. masses --      1.0880                 1.1012                 1.0974
 Frc consts  --      6.1135                 6.3570                 6.4442
 IR Inten    --     49.3652                33.5524                 4.6752

                     91                     92                     93
                      A                      A                      A
 Frequencies --   3159.1133              3159.2438              3162.8130
 Red. masses --      1.0992                 1.1057                 1.0988
 Frc consts  --      6.4631                 6.5019                 6.4759
 IR Inten    --     23.1907                15.0401                20.9861

                     94                     95                     96
                      A                      A                      A
 Frequencies --   3170.2014              3181.8451              3185.7260
 Red. masses --      1.1062                 1.0851                 1.0885
 Frc consts  --      6.5505                 6.4729                 6.5087
 IR Inten    --     12.8576                16.4156                32.4006

                     97                     98                     99
                      A                      A                      A
 Frequencies --   3188.0413              3201.3687              3208.1143
 Red. masses --      1.0878                 1.0923                 1.0924
 Frc consts  --      6.5141                 6.5960                 6.6242
 IR Inten    --      4.3248                36.9673                74.2552

                    100                    101                    102
                      A                      A                      A
 Frequencies --   3216.9403              3514.3828              3596.0724
 Red. masses --      1.0972                 1.0510                 1.0966
 Frc consts  --      6.6897                 7.6482                 8.3550
 IR Inten    --     15.5639                21.3175                43.0852

 - Thermochemistry -
 -------------------
 Temperature   298.150 Kelvin.  Pressure   1.00000 Atm.
 Atom     1 has atomic number  6 and mass  12.00000

 Molecular mass:   220.15756 amu.
 Principal axes and moments of inertia in atomic units:
                           1         2         3
     Eigenvalues --  2648.346724586.112376143.66477
           X            0.99999  -0.00280  -0.00260
           Y            0.00276   0.99991  -0.01288
           Z            0.00263   0.01287   0.99991
 This molecule is an asymmetric top.
 Rotational symmetry number  1.
 Warning -- assumption of classical behavior for rotation
           may cause significant error
 Rotational temperatures (Kelvin)      0.03270     0.01889     0.01410
 Rotational constants (GHZ):           0.68146     0.39352     0.29376
    1 imaginary frequencies ignored.
 Zero-point vibrational energy     825534.1 (Joules/Mol)
                                  197.30739 (Kcal/Mol)
 Warning -- explicit consideration of  25 degrees of freedom as
           vibrations may cause significant error
 Vibrational temperatures:     54.56    81.51    96.14   119.57   121.30
          (Kelvin)            135.50   167.33   206.25   254.04   272.97
                              284.17   314.37   340.83   344.91   383.96
                              408.79   441.02   508.33   564.74   604.38
                              624.46   650.84   728.83   820.80   851.89
                              918.33   963.20  1023.00  1039.42  1047.32
                             1133.16  1152.73  1247.54  1267.95  1341.13
                             1388.10  1439.36  1453.67  1454.58  1466.93
                             1475.30  1508.16  1531.61  1537.47  1562.87
                             1567.57  1604.98  1627.17  1633.78  1680.97
                             1695.87  1706.08  1748.39  1781.57  1805.36
                             1831.53  1877.41  1895.53  1937.99  1961.90
                             1985.78  2013.20  2035.08  2065.36  2077.95
                             2112.23  2116.65  2134.98  2139.19  2143.73
                             2149.32  2153.80  2155.33  2165.02  2170.83
                             2195.98  2215.13  2310.85  2351.09  2373.41
                             2397.28  4323.54  4338.71  4406.96  4410.20
                             4426.17  4443.29  4503.63  4542.26  4545.26
                             4545.45  4550.58  4561.21  4577.97  4583.55
                             4586.88  4606.06  4615.76  4628.46  5056.41
                             5173.95

 Zero-point correction=                           0.314429 (Hartree/Particle)
 Thermal correction to Energy=                    0.331627
 Thermal correction to Enthalpy=                  0.332571
 Thermal correction to Gibbs Free Energy=         0.269240
 Sum of electronic and zero-point Energies=           -691.834133
 Sum of electronic and thermal Energies=              -691.816935
 Sum of electronic and thermal Enthalpies=            -691.815991
 Sum of electronic and thermal Free Energies=         -691.879322

                     E (Thermal)             CV                S
                      KCal/Mol        Cal/Mol-Kelvin    Cal/Mol-Kelvin
 Total                  208.099             63.361            133.292
 Electronic               0.000              0.000              0.000
 Translational            0.889              2.981             42.070
 Rotational               0.889              2.981             32.678
 Vibrational            206.322             57.399             58.543
 Vibration     1          0.594              1.982              5.365
 Vibration     2          0.596              1.975              4.571
 Vibration     3          0.598              1.970              4.245
 Vibration     4          0.600              1.961              3.816
 Vibration     5          0.601              1.960              3.788
 Vibration     6          0.603              1.953              3.571
 Vibration     7          0.608              1.936              3.161
 Vibration     8          0.616              1.910              2.759
 Vibration     9          0.628              1.871              2.364
 Vibration    10          0.633              1.854              2.231
 Vibration    11          0.637              1.843              2.156
 Vibration    12          0.646              1.813              1.972
 Vibration    13          0.656              1.784              1.826
 Vibration    14          0.657              1.780              1.805
 Vibration    15          0.672              1.734              1.616
 Vibration    16          0.683              1.703              1.509
 Vibration    17          0.697              1.661              1.381
 Vibration    18          0.730              1.568              1.151
 Vibration    19          0.760              1.486              0.991
 Vibration    20          0.783              1.427              0.892
 Vibration    21          0.795              1.396              0.846
 Vibration    22          0.811              1.356              0.789
 Vibration    23          0.862              1.235              0.642
 Vibration    24          0.927              1.095              0.503
 Vibration    25          0.950              1.049              0.463

 Optimization completed.
    -- Stationary point found.
 Normal termination of Gaussian 16 at Sun Feb 14 16:37:37 2021.
