 Gaussian 16, Revision C.01,
 Gaussian 16:  ES64L-G16RevC.01  3-Jul-2019

 ----------------------------------------------------------------------
 # opt=(calcfc,ts,noeigen,maxcycles=100,maxstep=10) freq=noraman wb97xd
  scrf=(iefpcm,solvent=water) def2tzvp
 ----------------------------------------------------------------------

 --------
 TS-4.out
 --------
 Symbolic Z-matrix:
 Charge =  0 Multiplicity = 1

 SCF Done:  E(RwB97XD) =  -1095.49812878     A.U. after   15 cycles
 SCF Done:  E(RwB97XD) =  -1095.49814143     A.U. after   11 cycles
 SCF Done:  E(RwB97XD) =  -1095.49814185     A.U. after    8 cycles
 Optimization completed.
    -- Stationary point found.
 Normal termination of Gaussian 16 at Mon Jun  6 20:41:11 2022.

 ---------------------------------------------------------------------
 #N Geom=AllCheck Guess=TCheck SCRF=Check GenChk RwB97XD/def2TZVP Freq
 ---------------------------------------------------------------------

 Structure from the checkpoint file:  "/local/jobs/107534/Gau-2518293.chk"
 --------
 TS-4.out
 --------
 Charge =  0 Multiplicity = 1

                         Standard orientation:
 ---------------------------------------------------------------------
 Center     Atomic      Atomic             Coordinates (Angstroms)
 Number     Number       Type             X           Y           Z
 ---------------------------------------------------------------------
      1          6           0        0.403095    0.930422    0.066044
      2          6           0        0.011873    2.272554    0.325896
      3          8           0       -1.028066    2.635510    0.888778
      4          6           0       -0.557133   -0.111725    0.299940
      5          6           0       -1.655249   -0.776089    3.056426
      6          1           0       -1.440280   -0.528422    4.096756
      7          1           0       -2.720901   -0.655536    2.884357
      8          1           0       -1.372076   -1.812844    2.875070
      9          7           0       -0.903539    0.101209    2.157583
     10          1           0       -1.296888    1.040919    2.092442
     11          1           0        0.049236    0.217432    2.480251
     12          6           0       -0.027486   -1.525147    0.216609
     13          6           0        0.942322   -1.985065    1.105411
     14          6           0        1.474397   -3.257140    0.987125
     15          6           0        1.056277   -4.095723   -0.036844
     16          6           0        0.099218   -3.648617   -0.932865
     17          6           0       -0.442486   -2.378084   -0.801274
     18          1           0        1.314027   -1.342138    1.891814
     19          1           0        2.223654   -3.591246    1.693388
     20          1           0        1.475469   -5.089008   -0.134399
     21          1           0       -0.232000   -4.288786   -1.740632
     22          1           0       -1.183420   -2.044511   -1.514829
     23          6           0       -1.953214    0.026033   -0.275231
     24          6           0       -2.994315   -0.802586    0.139206
     25          6           0       -4.248824   -0.724652   -0.443125
     26          6           0       -4.483060    0.172992   -1.474547
     27          6           0       -3.445891    0.975892   -1.923604
     28          6           0       -2.194138    0.896774   -1.332589
     29          1           0       -2.821529   -1.545995    0.903988
     30          1           0       -5.040489   -1.377684   -0.098204
     31          1           0       -5.460958    0.233232   -1.935231
     32          1           0       -3.606987    1.664982   -2.743129
     33          1           0       -1.385727    1.511680   -1.703383
     34          6           0        1.811347    0.626898   -0.297834
     35          6           0        2.875742    0.986939    0.531848
     36          6           0        4.186516    0.682416    0.199855
     37          6           0        4.468902   -0.001905   -0.975314
     38          6           0        3.426464   -0.362811   -1.816924
     39          6           0        2.118439   -0.042272   -1.483941
     40          1           0        2.665400    1.507276    1.459020
     41          1           0        4.990877    0.970173    0.866207
     42          1           0        5.491382   -0.248483   -1.232858
     43          1           0        3.632186   -0.889696   -2.740953
     44          1           0        1.312505   -0.322567   -2.151603
     45          8           0        0.908669    3.203939   -0.091684
     46          6           0        0.624495    4.551395    0.247631
     47          1           0        0.543436    4.678148    1.328230
     48          1           0        1.460970    5.135457   -0.129637
     49          1           0       -0.301677    4.890564   -0.217888
 ---------------------------------------------------------------------

 SCF Done:  E(RwB97XD) =  -1095.49814185     A.U. after    1 cycles

 The electronic state is 1-A.
 Alpha  occ. eigenvalues --  -19.27496 -19.20690 -14.48172 -10.38780 -10.36445
 Alpha  occ. eigenvalues --  -10.32292 -10.31764 -10.30745 -10.30296 -10.29517
 Alpha  occ. eigenvalues --  -10.29324 -10.29305 -10.29249 -10.29224 -10.29191
 Alpha  occ. eigenvalues --  -10.29146 -10.29097 -10.29026 -10.28951 -10.28887
 Alpha  occ. eigenvalues --  -10.28308 -10.28291 -10.28171 -10.27859 -10.27826
 Alpha  occ. eigenvalues --  -10.25621  -1.18764  -1.09120  -1.03830  -0.98108
 Alpha  occ. eigenvalues --   -0.96572  -0.95843  -0.91576  -0.87027  -0.85662
 Alpha  occ. eigenvalues --   -0.85310  -0.84966  -0.84196  -0.82459  -0.80992
 Alpha  occ. eigenvalues --   -0.78262  -0.74566  -0.71313  -0.70738  -0.70050
 Alpha  occ. eigenvalues --   -0.69381  -0.68575  -0.66928  -0.64153  -0.63499
 Alpha  occ. eigenvalues --   -0.61314  -0.60734  -0.60037  -0.57508  -0.56979
 Alpha  occ. eigenvalues --   -0.56562  -0.55984  -0.55463  -0.54765  -0.54522
 Alpha  occ. eigenvalues --   -0.53982  -0.53398  -0.52865  -0.52134  -0.51351
 Alpha  occ. eigenvalues --   -0.51293  -0.50442  -0.50042  -0.49513  -0.48722
 Alpha  occ. eigenvalues --   -0.48036  -0.47230  -0.46857  -0.46354  -0.45530
 Alpha  occ. eigenvalues --   -0.44759  -0.43885  -0.43590  -0.43016  -0.42426
 Alpha  occ. eigenvalues --   -0.41936  -0.41420  -0.41337  -0.37645  -0.36015
 Alpha  occ. eigenvalues --   -0.34631  -0.34088  -0.33357  -0.32996  -0.32747
 Alpha  occ. eigenvalues --   -0.32103  -0.25943
 Alpha virt. eigenvalues --    0.01529   0.04196   0.04432   0.05629   0.06114
 Alpha virt. eigenvalues --    0.06683   0.09141   0.10153   0.12461   0.12836
 Alpha virt. eigenvalues --    0.13137   0.13978   0.14541   0.15110   0.15633

 Mulliken charges:
               1
     1  C   -0.348007
     2  C    0.398376
     3  O   -0.557715
     4  C    0.518074
     5  C   -0.322378
     6  H    0.159305
     7  H    0.166323
     8  H    0.161691
     9  N   -0.311430
    10  H    0.284155
    11  H    0.268086
    12  C    0.152333
    13  C   -0.364306
    14  C   -0.132876
    15  C   -0.145167
    16  C   -0.140730
    17  C   -0.252867
    18  H    0.149269
    19  H    0.142941
    20  H    0.144254
    21  H    0.142209
    22  H    0.163130
    23  C    0.072024
    24  C   -0.285843
    25  C   -0.139616
    26  C   -0.141065
    27  C   -0.153749
    28  C   -0.192686
    29  H    0.196440
    30  H    0.140383
    31  H    0.143292
    32  H    0.140281
    33  H    0.160572
    34  C    0.237504
    35  C   -0.313923
    36  C   -0.142257
    37  C   -0.144347
    38  C   -0.165672
    39  C   -0.238019
    40  H    0.133300
    41  H    0.134509
    42  H    0.138141
    43  H    0.133418
    44  H    0.143992
    45  O   -0.309892
    46  C   -0.200571
    47  H    0.121320
    48  H    0.134877
    49  H    0.122917
 Sum of Mulliken charges =  -0.00000

 Dipole moment (field-independent basis, Debye):
    X=             -1.4933    Y=             -4.2628    Z=              4.0708  Tot=              6.0805
 Quadrupole moment (field-independent basis, Debye-Ang):
   XX=           -145.6918   YY=           -148.1949   ZZ=           -133.9115
   XY=              3.7981   XZ=              4.6500   YZ=             -1.3549

  Exact polarizability:     434.311      -6.250     395.946      15.298       1.833     358.682
 Approx polarizability:     337.624      -5.227     309.888      14.581       4.150     307.615

 ******    1 imaginary frequencies (negative Signs) ******

                      1                      2                      3
                      A                      A                      A
 Frequencies --   -348.3076                26.6745                33.0597
 Red. masses --      6.2995                 4.8774                 4.0595
 Frc consts  --      0.4503                 0.0020                 0.0026
 IR Inten    --    594.5993                 0.3290                 0.7266

                      4                      5                      6
                      A                      A                      A
 Frequencies --     52.4429                58.7669                60.6711
 Red. masses --      4.1642                 4.0655                 4.0028
 Frc consts  --      0.0067                 0.0083                 0.0087
 IR Inten    --      1.7648                 0.5944                 1.7741

                      7                      8                      9
                      A                      A                      A
 Frequencies --     69.8087                79.6742                88.3168
 Red. masses --      3.9103                 4.0398                 3.7629
 Frc consts  --      0.0112                 0.0151                 0.0173
 IR Inten    --      1.7312                 1.1701                 1.1450

                     10                     11                     12
                      A                      A                      A
 Frequencies --     93.3565               117.0201               145.6745
 Red. masses --      3.3399                 2.8836                 3.4501
 Frc consts  --      0.0172                 0.0233                 0.0431
 IR Inten    --      2.9839                 1.6474                 6.2914

                     13                     14                     15
                      A                      A                      A
 Frequencies --    157.9817               171.4696               180.9002
 Red. masses --      5.6174                 2.0069                 1.8239
 Frc consts  --      0.0826                 0.0348                 0.0352
 IR Inten    --     11.7214                 1.0825                 3.2436

                     16                     17                     18
                      A                      A                      A
 Frequencies --    205.8928               237.1109               257.8656
 Red. masses --      1.8794                 3.1865                 2.8029
 Frc consts  --      0.0469                 0.1056                 0.1098
 IR Inten    --      5.0392                 1.4650                 4.1008

                     19                     20                     21
                      A                      A                      A
 Frequencies --    261.5839               275.4661               282.5717
 Red. masses --      4.4481                 4.9008                 3.0751
 Frc consts  --      0.1793                 0.2191                 0.1447
 IR Inten    --      0.2565                 3.3916                 2.6362

                     22                     23                     24
                      A                      A                      A
 Frequencies --    293.2438               320.7260               330.7400
 Red. masses --      3.0333                 4.7791                 4.1435
 Frc consts  --      0.1537                 0.2896                 0.2671
 IR Inten    --      8.0077                 6.0284                16.3133

                     25                     26                     27
                      A                      A                      A
 Frequencies --    344.7627               415.8923               420.9046
 Red. masses --      3.3515                 6.1630                 2.9087
 Frc consts  --      0.2347                 0.6281                 0.3036
 IR Inten    --     48.9044                47.9827                 0.9039

                     28                     29                     30
                      A                      A                      A
 Frequencies --    426.2388               428.4763               435.4017
 Red. masses --      4.0167                 3.5548                 2.9411
 Frc consts  --      0.4300                 0.3845                 0.3285
 IR Inten    --      7.3646                 9.8990                 0.1800

                     31                     32                     33
                      A                      A                      A
 Frequencies --    510.7792               517.6542               544.3267
 Red. masses --      4.9225                 3.5571                 3.4401
 Frc consts  --      0.7567                 0.5616                 0.6005
 IR Inten    --      5.7029                20.7621                34.4970

                     34                     35                     36
                      A                      A                      A
 Frequencies --    603.7089               624.8639               638.0726
 Red. masses --      4.2983                 4.6187                 6.2882
 Frc consts  --      0.9230                 1.0625                 1.5084
 IR Inten    --    132.0190                52.9832                 0.6900

                     37                     38                     39
                      A                      A                      A
 Frequencies --    639.3775               642.8532               663.4537
 Red. masses --      6.3390                 5.3169                 5.5463
 Frc consts  --      1.5268                 1.2946                 1.4384
 IR Inten    --      7.6041                17.8159                43.0961

                     40                     41                     42
                      A                      A                      A
 Frequencies --    692.2889               714.1301               727.0216
 Red. masses --      5.3832                 1.6260                 1.6099
 Frc consts  --      1.5201                 0.4886                 0.5013
 IR Inten    --     48.6089                80.1670                74.3918

                     43                     44                     45
                      A                      A                      A
 Frequencies --    728.9983               730.8497               745.6437
 Red. masses --      1.5598                 1.4773                 3.3507
 Frc consts  --      0.4884                 0.4649                 1.0976
 IR Inten    --     91.0224                76.1894                10.7836

                     46                     47                     48
                      A                      A                      A
 Frequencies --    791.8446               795.4637               802.5165
 Red. masses --      2.3459                 3.3604                 2.7947
 Frc consts  --      0.8666                 1.2528                 1.0605
 IR Inten    --     62.7836                29.2238                13.3724

                     49                     50                     51
                      A                      A                      A
 Frequencies --    809.1302               860.7411               874.6846
 Red. masses --      3.8763                 3.8803                 1.2725
 Frc consts  --      1.4952                 1.6938                 0.5736
 IR Inten    --    116.8216                17.5817                 1.8845

                     52                     53                     54
                      A                      A                      A
 Frequencies --    875.4620               881.9681               923.9812
 Red. masses --      1.2537                 1.2482                 3.6564
 Frc consts  --      0.5661                 0.5720                 1.8392
 IR Inten    --      3.1207                 1.4224                44.0973

                     55                     56                     57
                      A                      A                      A
 Frequencies --    953.2815               960.8469               970.7670
 Red. masses --      1.5373                 1.4753                 1.4836
 Frc consts  --      0.8231                 0.8025                 0.8238
 IR Inten    --      9.4250                 4.9908                 3.7200

                     58                     59                     60
                      A                      A                      A
 Frequencies --   1009.2669              1013.5768              1016.5210
 Red. masses --      1.3754                 1.3832                 4.0461
 Frc consts  --      0.8255                 0.8372                 2.4633
 IR Inten    --      0.7664                 0.8606                17.7521

                     61                     62                     63
                      A                      A                      A
 Frequencies --   1021.0598              1021.5081              1025.8261
 Red. masses --      1.4937                 1.3237                 6.1210
 Frc consts  --      0.9175                 0.8138                 3.7951
 IR Inten    --      1.7273                 1.0550                 1.5531

                     64                     65                     66
                      A                      A                      A
 Frequencies --   1027.3599              1028.9692              1031.8011
 Red. masses --      5.5468                 3.6325                 1.3235
 Frc consts  --      3.4494                 2.2660                 0.8302
 IR Inten    --      3.6698                 0.5615                 0.1303

                     67                     68                     69
                      A                      A                      A
 Frequencies --   1033.3440              1046.0260              1057.8567
 Red. masses --      1.3928                 2.0165                 2.4519
 Frc consts  --      0.8762                 1.3000                 1.6166
 IR Inten    --      0.4055                40.6703                48.2230

                     70                     71                     72
                      A                      A                      A
 Frequencies --   1064.7893              1065.5861              1075.9524
 Red. masses --      2.0464                 2.1500                 1.7440
 Frc consts  --      1.3670                 1.4384                 1.1895
 IR Inten    --     24.9384                14.7038                 5.3659

                     73                     74                     75
                      A                      A                      A
 Frequencies --   1095.3546              1109.1034              1110.5312
 Red. masses --      3.0295                 1.5792                 1.4749
 Frc consts  --      2.1415                 1.1446                 1.0717
 IR Inten    --    104.5336                13.0283               228.3667

                     76                     77                     78
                      A                      A                      A
 Frequencies --   1119.7454              1130.4246              1174.8944
 Red. masses --      1.5926                 1.6244                 3.0551
 Frc consts  --      1.1765                 1.2230                 2.4847
 IR Inten    --     13.8655                19.3004                75.9770

                     79                     80                     81
                      A                      A                      A
 Frequencies --   1179.1721              1180.2348              1183.2818
 Red. masses --      1.1406                 1.3418                 1.1256
 Frc consts  --      0.9344                 1.1012                 0.9285
 IR Inten    --      0.7122                10.1440                 0.0280

                     82                     83                     84
                      A                      A                      A
 Frequencies --   1187.7084              1207.2077              1211.3714
 Red. masses --      1.1285                 1.1272                 1.1928
 Frc consts  --      0.9379                 0.9678                 1.0313
 IR Inten    --      0.8281                 0.8309                55.1213

                     85                     86                     87
                      A                      A                      A
 Frequencies --   1215.4115              1226.0829              1231.7582
 Red. masses --      1.5103                 1.1782                 1.6202
 Frc consts  --      1.3145                 1.0435                 1.4483
 IR Inten    --    103.7374                14.2769               158.6184

                     88                     89                     90
                      A                      A                      A
 Frequencies --   1265.3647              1285.7767              1304.4820
 Red. masses --      3.0685                 3.2022                 4.2952
 Frc consts  --      2.8948                 3.1191                 4.3064
 IR Inten    --     79.9553               328.3489                62.8156

                     91                     92                     93
                      A                      A                      A
 Frequencies --   1321.8765              1327.6273              1340.6496
 Red. masses --      4.3083                 4.7696                 1.4199
 Frc consts  --      4.4355                 4.9532                 1.5036
 IR Inten    --      4.0950               163.1339                54.5125

                     94                     95                     96
                      A                      A                      A
 Frequencies --   1349.9078              1359.3268              1365.4187
 Red. masses --      2.6461                 1.4514                 2.0707
 Frc consts  --      2.8410                 1.5801                 2.2746
 IR Inten    --    334.2159                 4.9215               305.3742

                     97                     98                     99
                      A                      A                      A
 Frequencies --   1371.3857              1382.2410              1458.0893
 Red. masses --      1.7947                 2.6772                 1.1824
 Frc consts  --      1.9887                 3.0137                 1.4812
 IR Inten    --     82.9233               143.8770                 4.7108

                    100                    101                    102
                      A                      A                      A
 Frequencies --   1478.1144              1481.9980              1487.5917
 Red. masses --      1.1814                 1.0983                 2.1330
 Frc consts  --      1.5207                 1.4213                 2.7810
 IR Inten    --     77.3010                26.2753                15.9045

                    103                    104                    105
                      A                      A                      A
 Frequencies --   1490.3194              1494.7776              1497.9759
 Red. masses --      2.2126                 2.2614                 1.0830
 Frc consts  --      2.8954                 2.9771                 1.4319
 IR Inten    --     47.2552                32.5944                 3.0424

                    106                    107                    108
                      A                      A                      A
 Frequencies --   1502.5949              1506.0772              1542.0734
 Red. masses --      1.0401                 1.0418                 2.3734
 Frc consts  --      1.3835                 1.3923                 3.3253
 IR Inten    --     18.0326                13.2209                64.8958

                    109                    110                    111
                      A                      A                      A
 Frequencies --   1542.6843              1548.6886              1631.8148
 Red. masses --      2.3024                 2.2267                 5.1129
 Frc consts  --      3.2284                 3.1465                 8.0215
 IR Inten    --      3.8707                15.4652               741.5104

                    112                    113                    114
                      A                      A                      A
 Frequencies --   1642.6528              1651.4885              1654.5362
 Red. masses --      5.3333                 5.5279                 4.5412
 Frc consts  --      8.4789                 8.8831                 7.3244
 IR Inten    --     77.8123                 7.4585                23.1804

                    115                    116                    117
                      A                      A                      A
 Frequencies --   1668.3279              1671.2955              1674.9247
 Red. masses --      1.6086                 3.9300                 5.7274
 Frc consts  --      2.6379                 6.4678                 9.4667
 IR Inten    --    153.6394                70.4349                 1.2975

                    118                    119                    120
                      A                      A                      A
 Frequencies --   1678.4826              3055.2346              3066.7848
 Red. masses --      4.5582                 1.0310                 1.0354
 Frc consts  --      7.5663                 5.6703                 5.7377
 IR Inten    --     22.0963                82.4911                48.7078

                    121                    122                    123
                      A                      A                      A
 Frequencies --   3127.7026              3138.3897              3161.8392
 Red. masses --      1.1063                 1.1047                 1.1049
 Frc consts  --      6.3765                 6.4108                 6.5078
 IR Inten    --     45.1472                16.9475                31.6542

                    124                    125                    126
                      A                      A                      A
 Frequencies --   3181.2038              3184.3395              3188.7497
 Red. masses --      1.1034                 1.0856                 1.0876
 Frc consts  --      6.5790                 6.4858                 6.5155
 IR Inten    --     15.1981                10.7140                 0.3446

                    127                    128                    129
                      A                      A                      A
 Frequencies --   3195.6343              3197.9459              3198.9537
 Red. masses --      1.0861                 1.0859                 1.0915
 Frc consts  --      6.5347                 6.5432                 6.5807
 IR Inten    --      0.1184                 1.0878                19.3149

                    130                    131                    132
                      A                      A                      A
 Frequencies --   3204.7224              3204.7814              3206.0553
 Red. masses --      1.0949                 1.0901                 1.0890
 Frc consts  --      6.6256                 6.5964                 6.5951
 IR Inten    --     55.5001                14.6114                 4.8137

                    133                    134                    135
                      A                      A                      A
 Frequencies --   3216.0557              3216.3671              3216.5396
 Red. masses --      1.0929                 1.0940                 1.0981
 Frc consts  --      6.6598                 6.6683                 6.6938
 IR Inten    --     24.9091                34.7172                18.7746

                    136                    137                    138
                      A                      A                      A
 Frequencies --   3223.8706              3224.2483              3228.7783
 Red. masses --      1.0945                 1.0956                 1.0970
 Frc consts  --      6.7022                 6.7103                 6.7381
 IR Inten    --     40.8279                 8.6418                 5.2833

                    139                    140                    141
                      A                      A                      A
 Frequencies --   3238.0310              3441.5343              3579.3503
 Red. masses --      1.0927                 1.0642                 1.0843
 Frc consts  --      6.7499                 7.4263                 8.1846
 IR Inten    --      7.4582               134.0250                39.6878

 - Thermochemistry -
 -------------------
 Temperature   298.150 Kelvin.  Pressure   1.00000 Atm.
 Atom     1 has atomic number  6 and mass  12.00000

 Molecular mass:   345.17288 amu.
 Principal axes and moments of inertia in atomic units:
                           1         2         3
     Eigenvalues --  6981.650748642.98621**********
           X            0.99996   0.00895  -0.00144
           Y           -0.00896   0.99996  -0.00194
           Z            0.00142   0.00196   1.00000
 This molecule is an asymmetric top.
 Rotational symmetry number  1.
 Warning -- assumption of classical behavior for rotation
           may cause significant error
 Rotational temperatures (Kelvin)      0.01241     0.01002     0.00721
 Rotational constants (GHZ):           0.25850     0.20881     0.15023
    1 imaginary frequencies ignored.
 Zero-point vibrational energy    1073497.7 (Joules/Mol)
                                  256.57212 (Kcal/Mol)
 Warning -- explicit consideration of  33 degrees of freedom as
           vibrations may cause significant error
 Vibrational temperatures:     38.38    47.57    75.45    84.55    87.29
          (Kelvin)            100.44   114.63   127.07   134.32   168.37
                              209.59   227.30   246.71   260.28   296.23
                              341.15   371.01   376.36   396.33   406.56
                              421.91   461.45   475.86   496.04   598.38
                              605.59   613.26   616.48   626.45   734.90
                              744.79   783.16   868.60   899.04   918.04
                              919.92   924.92   954.56   996.05  1027.47
                             1046.02  1048.87  1051.53  1072.81  1139.29
                             1144.49  1154.64  1164.16  1238.41  1258.48
                             1259.59  1268.96  1329.40  1371.56  1382.44
                             1396.72  1452.11  1458.31  1462.55  1469.08
                             1469.72  1475.93  1478.14  1480.46  1484.53
                             1486.75  1505.00  1522.02  1531.99  1533.14
                             1548.06  1575.97  1595.75  1597.81  1611.06
                             1626.43  1690.41  1696.57  1698.09  1702.48
                             1708.85  1736.90  1742.89  1748.71  1764.06
                             1772.23  1820.58  1849.95  1876.86  1901.89
                             1910.16  1928.90  1942.22  1955.77  1964.53
                             1973.12  1988.74  2097.87  2126.68  2132.26
                             2140.31  2144.24  2150.65  2155.25  2161.90
                             2166.91  2218.70  2219.58  2228.22  2347.82
                             2363.41  2376.12  2380.51  2400.35  2404.62
                             2409.84  2414.96  4395.80  4412.42  4500.07
                             4515.44  4549.18  4577.04  4581.55  4587.90
                             4597.80  4601.13  4602.58  4610.88  4610.97
                             4612.80  4627.19  4627.63  4627.88  4638.43
                             4638.97  4645.49  4658.80  4951.60  5149.89

 Zero-point correction=                           0.408874 (Hartree/Particle)
 Thermal correction to Energy=                    0.431854
 Thermal correction to Enthalpy=                  0.432798
 Thermal correction to Gibbs Free Energy=         0.355703
 Sum of electronic and zero-point Energies=          -1095.089268
 Sum of electronic and thermal Energies=             -1095.066288
 Sum of electronic and thermal Enthalpies=           -1095.065344
 Sum of electronic and thermal Free Energies=        -1095.142439

                     E (Thermal)             CV                S
                      KCal/Mol        Cal/Mol-Kelvin    Cal/Mol-Kelvin
 Total                  270.993             89.044            162.260
 Electronic               0.000              0.000              0.000
 Translational            0.889              2.981             43.411
 Rotational               0.889              2.981             34.938
 Vibrational            269.215             83.082             83.912
 Vibration     1          0.593              1.984              6.063
 Vibration     2          0.594              1.983              5.637
 Vibration     3          0.596              1.977              4.723
 Vibration     4          0.596              1.974              4.498
 Vibration     5          0.597              1.973              4.435
 Vibration     6          0.598              1.969              4.159
 Vibration     7          0.600              1.963              3.899
 Vibration     8          0.601              1.957              3.697
 Vibration     9          0.602              1.954              3.588
 Vibration    10          0.608              1.935              3.149
 Vibration    11          0.617              1.907              2.728
 Vibration    12          0.621              1.894              2.574
 Vibration    13          0.626              1.878              2.419
 Vibration    14          0.630              1.866              2.319
 Vibration    15          0.640              1.831              2.080
 Vibration    16          0.656              1.784              1.824
 Vibration    17          0.667              1.749              1.676
 Vibration    18          0.669              1.743              1.651
 Vibration    19          0.677              1.719              1.562
 Vibration    20          0.682              1.706              1.518
 Vibration    21          0.688              1.686              1.455
 Vibration    22          0.706              1.634              1.306
 Vibration    23          0.713              1.614              1.256
 Vibration    24          0.723              1.586              1.190
 Vibration    25          0.779              1.436              0.906
 Vibration    26          0.783              1.425              0.889
 Vibration    27          0.788              1.413              0.871
 Vibration    28          0.790              1.408              0.864
 Vibration    29          0.796              1.393              0.841
 Vibration    30          0.866              1.226              0.632
 Vibration    31          0.873              1.211              0.615
 Vibration    32          0.899              1.152              0.556
 Vibration    33          0.962              1.024              0.443

 Optimization completed.
    -- Stationary point found.
 Normal termination of Gaussian 16 at Tue Jun  7 00:32:42 2022.
