 Gaussian 16, Revision A.03,
 Gaussian 16:  ES64L-G16RevA.03 25-Dec-2016

 ----------------------------------------------------------------------
 # wB97XD def2tzvp, opt=(ts, noeigen, calcfc, maxcycles=70, maxstep=5),
  freq=noraman, scrf=(iefpcm, solvent=water)
 ----------------------------------------------------------------------

 ------------------------
 2_iteration/TS-494-2.out
 ------------------------
 Symbolic Z-matrix:
 Charge =  0 Multiplicity = 1

 SCF Done:  E(RwB97XD) =  -500.420753076     A.U. after   14 cycles
 SCF Done:  E(RwB97XD) =  -500.420753084     A.U. after    5 cycles
 Optimization completed.
    -- Stationary point found.
 Normal termination of Gaussian 16 at Sun Feb 14 07:14:27 2021.

 ---------------------------------------------------------------------
 #N Geom=AllCheck Guess=TCheck SCRF=Check GenChk RwB97XD/def2TZVP Freq
 ---------------------------------------------------------------------

 Structure from the checkpoint file:  "/beegfs/scratch/user/q/tla25/Gau-80918.chk"
 ------------------------
 2_iteration/TS-494-2.out
 ------------------------
 Charge =  0 Multiplicity = 1

                         Standard orientation:
 ---------------------------------------------------------------------
 Center     Atomic      Atomic             Coordinates (Angstroms)
 Number     Number       Type             X           Y           Z
 ---------------------------------------------------------------------
      1          6           0        0.142155    0.824675   -0.082576
      2          6           0        1.063352   -0.225091    0.214271
      3          8           0        0.699408   -1.357954    0.620667
      4          6           0       -1.229063    0.738638    0.239532
      5          6           0       -3.166466   -1.375995   -0.666251
      6          1           0       -3.291517   -2.210862   -1.358825
      7          1           0       -3.310767   -1.742498    0.348100
      8          1           0       -3.927744   -0.626634   -0.880516
      9          7           0       -1.841223   -0.774786   -0.777519
     10          1           0       -1.098102   -1.399127   -0.462849
     11          1           0       -1.633258   -0.489186   -1.726287
     12          6           0       -2.101719    1.842361   -0.307445
     13          1           0       -1.963875    2.738687    0.301223
     14          1           0       -1.838913    2.086748   -1.336876
     15          1           0       -3.157961    1.574963   -0.263119
     16          6           0       -1.664651    0.276615    1.611735
     17          1           0       -1.467003    1.089656    2.314167
     18          1           0       -2.734637    0.067502    1.646754
     19          1           0       -1.107607   -0.600024    1.930832
     20          1           0        0.427791    1.574844   -0.807593
     21          7           0        2.407817    0.005463    0.009994
     22          6           0        2.907441    1.276006   -0.458141
     23          6           0        3.327969   -1.103570   -0.089578
     24          1           0        2.398997    2.097791    0.043873
     25          1           0        3.971227    1.342973   -0.226723
     26          1           0        2.789103    1.404007   -1.541900
     27          1           0        2.843398   -2.002455    0.278408
     28          1           0        3.641995   -1.268121   -1.127764
     29          1           0        4.223345   -0.911208    0.507148
 ---------------------------------------------------------------------

 SCF Done:  E(RwB97XD) =  -500.420753084     A.U. after    1 cycles

 The electronic state is 1-A.
 Alpha  occ. eigenvalues --  -19.18279 -14.46435 -14.43857 -10.35666 -10.33795
 Alpha  occ. eigenvalues --  -10.31180 -10.30026 -10.29540 -10.27452 -10.26705
 Alpha  occ. eigenvalues --  -10.22842  -1.10629  -1.02345  -1.01257  -0.90723
 Alpha  occ. eigenvalues --   -0.82001  -0.79563  -0.79041  -0.78300  -0.75001
 Alpha  occ. eigenvalues --   -0.65005  -0.61797  -0.60239  -0.57764  -0.55936
 Alpha  occ. eigenvalues --   -0.55398  -0.54543  -0.54493  -0.51925  -0.50293
 Alpha  occ. eigenvalues --   -0.49318  -0.47743  -0.47312  -0.47043  -0.46748
 Alpha  occ. eigenvalues --   -0.46087  -0.44702  -0.44219  -0.43265  -0.42604
 Alpha  occ. eigenvalues --   -0.39301  -0.32312  -0.30596  -0.25598
 Alpha virt. eigenvalues --    0.07405   0.10096   0.12279   0.13909   0.14605
 Alpha virt. eigenvalues --    0.15239   0.16283   0.16524   0.17698   0.18149
 Alpha virt. eigenvalues --    0.18621   0.19015   0.19760   0.20182   0.20737

 Mulliken charges:
               1
     1  C   -0.582126
     2  C    0.371148
     3  O   -0.632386
     4  C    0.233740
     5  C   -0.291747
     6  H    0.148329
     7  H    0.154414
     8  H    0.145221
     9  N   -0.327551
    10  H    0.264957
    11  H    0.264019
    12  C   -0.368184
    13  H    0.140283
    14  H    0.135449
    15  H    0.133228
    16  C   -0.412216
    17  H    0.131555
    18  H    0.128836
    19  H    0.148611
    20  H    0.128630
    21  N   -0.123517
    22  C   -0.299580
    23  C   -0.275381
    24  H    0.140683
    25  H    0.136233
    26  H    0.126447
    27  H    0.139701
    28  H    0.115290
    29  H    0.125917
 Sum of Mulliken charges =  -0.00000

 Dipole moment (field-independent basis, Debye):
    X=             -4.0379    Y=              1.2759    Z=             -3.7548  Tot=              5.6597
 Quadrupole moment (field-independent basis, Debye-Ang):
   XX=            -53.4098   YY=            -71.6189   ZZ=            -68.7708
   XY=              5.1961   XZ=              0.8907   YZ=              3.0292

  Exact polarizability: 213.997   5.758 160.745   1.324   0.921 139.360
 Approx polarizability: 150.845   4.718 132.304   1.038  -0.712 116.645

 ******    1 imaginary frequencies (negative Signs) ******

                      1                      2                      3
                      A                      A                      A
 Frequencies --   -389.7536                47.8704                73.3142
 Red. masses --      5.4149                 2.6722                 2.9846
 Frc consts  --      0.4846                 0.0036                 0.0095
 IR Inten    --    790.2077                10.0543                 3.7877

                      4                      5                      6
                      A                      A                      A
 Frequencies --     87.2043               105.7570               120.3193
 Red. masses --      1.9782                 1.5942                 1.8435
 Frc consts  --      0.0089                 0.0105                 0.0157
 IR Inten    --      2.7969                 8.0896                24.3125

                      7                      8                      9
                      A                      A                      A
 Frequencies --    161.7507               170.1065               199.9993
 Red. masses --      1.6122                 1.1513                 1.7581
 Frc consts  --      0.0249                 0.0196                 0.0414
 IR Inten    --      8.1172                 4.5741                 2.4201

                     10                     11                     12
                      A                      A                      A
 Frequencies --    205.7549               213.1346               229.3919
 Red. masses --      2.1070                 2.4538                 1.2889
 Frc consts  --      0.0526                 0.0657                 0.0400
 IR Inten    --     12.8910                 0.5485                 0.4750

                     13                     14                     15
                      A                      A                      A
 Frequencies --    267.2121               275.0105               297.8591
 Red. masses --      1.4941                 2.3818                 1.8674
 Frc consts  --      0.0629                 0.1061                 0.0976
 IR Inten    --     28.1624                14.4814                 1.8983

                     16                     17                     18
                      A                      A                      A
 Frequencies --    343.7723               383.8427               409.2238
 Red. masses --      2.4658                 3.0922                 3.4546
 Frc consts  --      0.1717                 0.2684                 0.3409
 IR Inten    --      8.3312                27.5069                 0.5026

                     19                     20                     21
                      A                      A                      A
 Frequencies --    439.1727               468.3866               536.7654
 Red. masses --      2.6213                 2.6228                 3.3294
 Frc consts  --      0.2979                 0.3390                 0.5652
 IR Inten    --      9.1159                66.3637                 6.7216

                     22                     23                     24
                      A                      A                      A
 Frequencies --    632.3004               654.5554               696.1064
 Red. masses --      3.2357                 1.3327                 1.2599
 Frc consts  --      0.7622                 0.3364                 0.3597
 IR Inten    --     50.2319               131.0929                30.2186

                     25                     26                     27
                      A                      A                      A
 Frequencies --    784.4766               842.3151               890.2714
 Red. masses --      9.8751                 3.5857                 4.5524
 Frc consts  --      3.5805                 1.4989                 2.1258
 IR Inten    --    136.0183                36.7906                 8.3330

                     28                     29                     30
                      A                      A                      A
 Frequencies --    951.7676              1002.1498              1017.8674
 Red. masses --      1.3706                 1.6599                 1.3125
 Frc consts  --      0.7315                 0.9822                 0.8012
 IR Inten    --      0.1306                42.7446                48.2261

                     31                     32                     33
                      A                      A                      A
 Frequencies --   1040.4569              1056.5601              1065.1724
 Red. masses --      1.3074                 1.8588                 1.5679
 Frc consts  --      0.8339                 1.2225                 1.0481
 IR Inten    --     20.4976                 4.3308               453.4769

                     34                     35                     36
                      A                      A                      A
 Frequencies --   1074.8487              1082.7657              1119.1429
 Red. masses --      1.3881                 1.4308                 2.0777
 Frc consts  --      0.9448                 0.9884                 1.5332
 IR Inten    --     20.4924                19.0278                21.1903

                     37                     38                     39
                      A                      A                      A
 Frequencies --   1131.5904              1157.9402              1183.9441
 Red. masses --      1.2373                 1.5785                 1.4919
 Frc consts  --      0.9335                 1.2470                 1.2321
 IR Inten    --      7.1758               253.0730                58.6117

                     40                     41                     42
                      A                      A                      A
 Frequencies --   1210.5220              1254.6727              1310.4056
 Red. masses --      1.3917                 2.8754                 5.6218
 Frc consts  --      1.2015                 2.6669                 5.6877
 IR Inten    --     48.4542                34.8755                13.3118

                     43                     44                     45
                      A                      A                      A
 Frequencies --   1340.6563              1348.8144              1402.9666
 Red. masses --      1.8391                 1.3464                 1.6228
 Frc consts  --      1.9476                 1.4433                 1.8820
 IR Inten    --    199.4535                33.1863               156.5241

                     46                     47                     48
                      A                      A                      A
 Frequencies --   1409.5538              1420.7988              1426.1055
 Red. masses --      1.4571                 1.4366                 1.3220
 Frc consts  --      1.7057                 1.7086                 1.5841
 IR Inten    --      2.6348                26.0728                13.4360

                     49                     50                     51
                      A                      A                      A
 Frequencies --   1450.2621              1462.5133              1472.4301
 Red. masses --      1.3267                 1.2318                 1.2419
 Frc consts  --      1.6441                 1.5523                 1.5863
 IR Inten    --    274.5032                11.6001               308.6005

                     52                     53                     54
                      A                      A                      A
 Frequencies --   1480.5854              1481.3186              1488.0483
 Red. masses --      1.0690                 1.0916                 1.0886
 Frc consts  --      1.3807                 1.4113                 1.4201
 IR Inten    --     57.1263                65.4418                54.8813

                     55                     56                     57
                      A                      A                      A
 Frequencies --   1492.7661              1494.2258              1498.7460
 Red. masses --      1.0556                 1.0533                 1.0610
 Frc consts  --      1.3859                 1.3856                 1.4042
 IR Inten    --     29.7553                17.2118                24.7219

                     58                     59                     60
                      A                      A                      A
 Frequencies --   1502.2091              1508.4001              1519.8950
 Red. masses --      1.0673                 1.0415                 1.5057
 Frc consts  --      1.4190                 1.3962                 2.0494
 IR Inten    --      6.3168                 6.6178               227.7072

                     61                     62                     63
                      A                      A                      A
 Frequencies --   1532.1084              1583.6522              1656.4000
 Red. masses --      1.3837                 5.4771                 1.0869
 Frc consts  --      1.9137                 8.0932                 1.7569
 IR Inten    --    307.2374               561.3939                40.5333

                     64                     65                     66
                      A                      A                      A
 Frequencies --   3001.6826              3008.6271              3055.3093
 Red. masses --      1.0511                 1.0506                 1.0363
 Frc consts  --      5.5800                 5.6029                 5.6994
 IR Inten    --     86.0411               178.2348                19.0003

                     67                     68                     69
                      A                      A                      A
 Frequencies --   3058.1685              3059.9513              3073.6695
 Red. masses --      1.0373                 1.0383                 1.0927
 Frc consts  --      5.7156                 5.7277                 6.0822
 IR Inten    --     49.3338                68.2331                83.1551

                     70                     71                     72
                      A                      A                      A
 Frequencies --   3094.8622              3122.2665              3127.8709
 Red. masses --      1.0833                 1.1002                 1.1004
 Frc consts  --      6.1134                 6.3192                 6.3430
 IR Inten    --     49.6597                25.0046                43.4679

                     73                     74                     75
                      A                      A                      A
 Frequencies --   3132.4530              3141.5555              3141.7186
 Red. masses --      1.1008                 1.1037                 1.1031
 Frc consts  --      6.3641                 6.4180                 6.4150
 IR Inten    --     21.2446                19.6389                43.1330

                     76                     77                     78
                      A                      A                      A
 Frequencies --   3162.8720              3174.5953              3181.4338
 Red. masses --      1.1045                 1.1014                 1.0956
 Frc consts  --      6.5103                 6.5398                 6.5333
 IR Inten    --     22.9323                 5.4225                 5.8165

                     79                     80                     81
                      A                      A                      A
 Frequencies --   3200.5858              3436.0067              3586.0956
 Red. masses --      1.0877                 1.0629                 1.0865
 Frc consts  --      6.5646                 7.3938                 8.2326
 IR Inten    --     15.3172               114.6157                46.8807

 - Thermochemistry -
 -------------------
 Temperature   298.150 Kelvin.  Pressure   1.00000 Atm.
 Atom     1 has atomic number  6 and mass  12.00000

 Molecular mass:   158.14191 amu.
 Principal axes and moments of inertia in atomic units:
                           1         2         3
     Eigenvalues --   986.411912959.791803369.82090
           X            0.99997   0.00581  -0.00560
           Y           -0.00580   0.99998   0.00204
           Z            0.00561  -0.00201   0.99998
 This molecule is an asymmetric top.
 Rotational symmetry number  1.
 Warning -- assumption of classical behavior for rotation
           may cause significant error
 Rotational temperatures (Kelvin)      0.08781     0.02926     0.02570
 Rotational constants (GHZ):           1.82960     0.60975     0.53556
    1 imaginary frequencies ignored.
 Zero-point vibrational energy     681439.9 (Joules/Mol)
                                  162.86805 (Kcal/Mol)
 Warning -- explicit consideration of  20 degrees of freedom as
           vibrations may cause significant error
 Vibrational temperatures:     68.87   105.48   125.47   152.16   173.11
          (Kelvin)            232.72   244.75   287.75   296.04   306.65
                              330.04   384.46   395.68   428.55   494.61
                              552.26   588.78   631.87   673.90   772.29
                              909.74   941.76  1001.54  1128.69  1211.90
                             1280.90  1369.38  1441.87  1464.48  1496.99
                             1520.15  1532.55  1546.47  1557.86  1610.20
                             1628.11  1666.02  1703.43  1741.67  1805.19
                             1885.38  1928.91  1940.64  2018.56  2028.03
                             2044.21  2051.85  2086.60  2104.23  2118.50
                             2130.23  2131.29  2140.97  2147.76  2149.86
                             2156.36  2161.34  2170.25  2186.79  2204.36
                             2278.52  2383.19  4318.75  4328.74  4395.91
                             4400.02  4402.59  4422.32  4452.82  4492.25
                             4500.31  4506.90  4520.00  4520.23  4550.67
                             4567.53  4577.37  4604.93  4943.65  5159.59

 Zero-point correction=                           0.259547 (Hartree/Particle)
 Thermal correction to Energy=                    0.273736
 Thermal correction to Enthalpy=                  0.274680
 Thermal correction to Gibbs Free Energy=         0.219225
 Sum of electronic and zero-point Energies=           -500.161206
 Sum of electronic and thermal Energies=              -500.147017
 Sum of electronic and thermal Enthalpies=            -500.146073
 Sum of electronic and thermal Free Energies=         -500.201528

                     E (Thermal)             CV                S
                      KCal/Mol        Cal/Mol-Kelvin    Cal/Mol-Kelvin
 Total                  171.772             50.814            116.715
 Electronic               0.000              0.000              0.000
 Translational            0.889              2.981             41.084
 Rotational               0.889              2.981             30.665
 Vibrational            169.994             44.853             44.965
 Vibration     1          0.595              1.978              4.903
 Vibration     2          0.599              1.967              4.062
 Vibration     3          0.601              1.958              3.722
 Vibration     4          0.605              1.945              3.345
 Vibration     5          0.609              1.932              3.095
 Vibration     6          0.622              1.889              2.529
 Vibration     7          0.625              1.879              2.434
 Vibration     8          0.638              1.840              2.133
 Vibration     9          0.640              1.832              2.081
 Vibration    10          0.644              1.821              2.017
 Vibration    11          0.652              1.796              1.884
 Vibration    12          0.672              1.733              1.614
 Vibration    13          0.677              1.720              1.565
 Vibration    14          0.691              1.678              1.429
 Vibration    15          0.723              1.588              1.195
 Vibration    16          0.753              1.505              1.024
 Vibration    17          0.774              1.450              0.929
 Vibration    18          0.799              1.385              0.829
 Vibration    19          0.826              1.320              0.742
 Vibration    20          0.892              1.169              0.572

 Optimization completed.
    -- Stationary point found.
 Normal termination of Gaussian 16 at Sun Feb 14 07:46:05 2021.
