 Gaussian 16, Revision A.03,
 Gaussian 16:  ES64L-G16RevA.03 25-Dec-2016

 ----------------------------------------------------------------------
 # wB97XD def2tzvp, opt=(ts, noeigen, calcfc, maxcycles=70, maxstep=5),
  freq=noraman, scrf=(iefpcm, solvent=water)
 ----------------------------------------------------------------------

 ------------------------
 2_iteration/TS-435-2.out
 ------------------------
 Symbolic Z-matrix:
 Charge =  0 Multiplicity = 1

 SCF Done:  E(RwB97XD) =  -1073.15350912     A.U. after   14 cycles
 SCF Done:  E(RwB97XD) =  -1073.15358681     A.U. after   10 cycles
 SCF Done:  E(RwB97XD) =  -1073.15359642     A.U. after   10 cycles
 SCF Done:  E(RwB97XD) =  -1073.15359650     A.U. after    7 cycles
 Optimization completed.
    -- Stationary point found.
 Normal termination of Gaussian 16 at Sun Feb 14 10:41:29 2021.

 ---------------------------------------------------------------------
 #N Geom=AllCheck Guess=TCheck SCRF=Check GenChk RwB97XD/def2TZVP Freq
 ---------------------------------------------------------------------

 Structure from the checkpoint file:  "/beegfs/scratch/user/q/tla25/Gau-65798.chk"
 ------------------------
 2_iteration/TS-435-2.out
 ------------------------
 Charge =  0 Multiplicity = 1

                         Standard orientation:
 ---------------------------------------------------------------------
 Center     Atomic      Atomic             Coordinates (Angstroms)
 Number     Number       Type             X           Y           Z
 ---------------------------------------------------------------------
      1          6           0       -1.216123   -0.354364   -0.318474
      2          6           0       -1.313215   -1.244029    0.798843
      3          8           0       -0.539683   -1.151294    1.774288
      4          6           0       -0.192045    0.610642   -0.423070
      5          6           0       -1.709095    2.255824    1.324594
      6          1           0       -1.930134    2.515394    2.360479
      7          1           0       -1.786521    3.149640    0.708793
      8          1           0       -2.441304    1.521991    0.985381
      9          7           0       -0.380487    1.676982    1.188106
     10          1           0        0.346167    2.362466    1.346295
     11          1           0       -0.250664    0.892043    1.826186
     12          6           0       -0.320607    1.662964   -1.498459
     13          1           0       -0.181147    1.193168   -2.473861
     14          1           0       -1.302347    2.131782   -1.488061
     15          1           0        0.444130    2.428119   -1.381752
     16          6           0        1.242958    0.158040   -0.239683
     17          6           0        2.268144    1.057969    0.046780
     18          6           0        3.587889    0.640942    0.123994
     19          6           0        3.914242   -0.687538   -0.102147
     20          6           0        2.907772   -1.588555   -0.415436
     21          6           0        1.589352   -1.167564   -0.487330
     22          1           0        2.055355    2.107790    0.202585
     23          1           0        4.362531    1.361006    0.355356
     24          1           0        4.944586   -1.014749   -0.044714
     25          1           0        3.147935   -2.626530   -0.608906
     26          1           0        0.812038   -1.874425   -0.743373
     27         17           0       -2.613112   -0.256564   -1.400735
     28          7           0       -2.270784   -2.218376    0.798858
     29          1           0       -2.463052   -2.654795    1.683157
     30          1           0       -3.013943   -2.197193    0.124210
 ---------------------------------------------------------------------

 SCF Done:  E(RwB97XD) =  -1073.15359650     A.U. after    1 cycles

 The electronic state is 1-A.
 Alpha  occ. eigenvalues -- -101.68686 -19.20026 -14.47262 -14.43547 -10.37842
 Alpha  occ. eigenvalues --  -10.35966 -10.31268 -10.30580 -10.29945 -10.29408
 Alpha  occ. eigenvalues --  -10.29152 -10.29060 -10.28985 -10.28910 -10.28386
 Alpha  occ. eigenvalues --   -9.57215  -7.31824  -7.31029  -7.30990  -1.12397
 Alpha  occ. eigenvalues --   -1.03204  -0.99478  -0.97415  -0.95285  -0.89859
 Alpha  occ. eigenvalues --   -0.85344  -0.83620  -0.79903  -0.78384  -0.72562
 Alpha  occ. eigenvalues --   -0.70539  -0.68743  -0.64144  -0.62746  -0.62171
 Alpha  occ. eigenvalues --   -0.59251  -0.57362  -0.56590  -0.55546  -0.54268
 Alpha  occ. eigenvalues --   -0.53431  -0.52311  -0.51382  -0.50255  -0.49396
 Alpha  occ. eigenvalues --   -0.48658  -0.47664  -0.47128  -0.46848  -0.46454
 Alpha  occ. eigenvalues --   -0.42917  -0.42795  -0.42006  -0.40797  -0.39846
 Alpha  occ. eigenvalues --   -0.35234  -0.34684  -0.33770  -0.32426  -0.26457
 Alpha virt. eigenvalues --    0.02708   0.05308   0.07640   0.10444   0.12097
 Alpha virt. eigenvalues --    0.12989   0.13802   0.14420   0.15445   0.15882
 Alpha virt. eigenvalues --    0.16423   0.17127   0.18038   0.18515   0.19434

 Mulliken charges:
               1
     1  C   -0.321745
     2  C    0.326506
     3  O   -0.575467
     4  C    0.287536
     5  C   -0.309814
     6  H    0.153131
     7  H    0.157391
     8  H    0.154457
     9  N   -0.320242
    10  H    0.264251
    11  H    0.276552
    12  C   -0.373254
    13  H    0.155041
    14  H    0.145353
    15  H    0.145448
    16  C    0.186765
    17  C   -0.273618
    18  C   -0.173803
    19  C   -0.142656
    20  C   -0.141016
    21  C   -0.228228
    22  H    0.153982
    23  H    0.142679
    24  H    0.144192
    25  H    0.141806
    26  H    0.161117
    27  Cl  -0.187288
    28  N   -0.474630
    29  H    0.265551
    30  H    0.260001
 Sum of Mulliken charges =  -0.00000

 Dipole moment (field-independent basis, Debye):
    X=              0.2994    Y=              5.3532    Z=              0.7461  Tot=              5.4132
 Quadrupole moment (field-independent basis, Debye-Ang):
   XX=            -86.8372   YY=            -81.6902   ZZ=           -101.7464
   XY=              2.9088   XZ=             -5.1445   YZ=              6.8204

  Exact polarizability: 256.362  11.961 239.763  12.961   7.216 179.944
 Approx polarizability: 199.894   8.947 197.539  13.649   7.446 156.719

 ******    1 imaginary frequencies (negative Signs) ******

                      1                      2                      3
                      A                      A                      A
 Frequencies --   -386.1337                55.7474                75.1865
 Red. masses --      5.0071                 3.8973                 5.5361
 Frc consts  --      0.4399                 0.0071                 0.0184
 IR Inten    --    695.6350                 1.0747                 0.2629

                      4                      5                      6
                      A                      A                      A
 Frequencies --     79.1076                91.9426               114.6472
 Red. masses --      3.9009                 3.8813                 3.4190
 Frc consts  --      0.0144                 0.0193                 0.0265
 IR Inten    --      7.5459                 2.1374                 2.9106

                      7                      8                      9
                      A                      A                      A
 Frequencies --    144.5953               169.6483               213.0357
 Red. masses --      4.8857                 2.1157                 1.8023
 Frc consts  --      0.0602                 0.0359                 0.0482
 IR Inten    --     24.7240                33.4036                 0.8793

                     10                     11                     12
                      A                      A                      A
 Frequencies --    214.3271               251.7409               273.5842
 Red. masses --      2.3185                 4.9329                 1.8619
 Frc consts  --      0.0628                 0.1842                 0.0821
 IR Inten    --     15.5275                 3.8864                14.8149

                     13                     14                     15
                      A                      A                      A
 Frequencies --    281.2283               301.4960               321.6358
 Red. masses --      2.7310                 1.9329                 1.6610
 Frc consts  --      0.1273                 0.1035                 0.1012
 IR Inten    --      0.6355                83.5512               223.9868

                     16                     17                     18
                      A                      A                      A
 Frequencies --    328.5358               336.3232               370.5876
 Red. masses --      2.8902                 2.6514                 3.8016
 Frc consts  --      0.1838                 0.1767                 0.3076
 IR Inten    --     48.1025                23.2602                 7.7570

                     19                     20                     21
                      A                      A                      A
 Frequencies --    421.1921               427.6730               463.2195
 Red. masses --      4.0458                 3.1434                 3.4043
 Frc consts  --      0.4229                 0.3387                 0.4304
 IR Inten    --      5.7878                 0.5335                19.1539

                     22                     23                     24
                      A                      A                      A
 Frequencies --    512.7289               555.2592               564.5685
 Red. masses --      1.3029                 3.5709                 3.1056
 Frc consts  --      0.2018                 0.6487                 0.5832
 IR Inten    --      9.5463                42.8814               100.0452

                     25                     26                     27
                      A                      A                      A
 Frequencies --    615.5887               638.8506               679.7264
 Red. masses --      3.6283                 6.3504                 3.4953
 Frc consts  --      0.8101                 1.5270                 0.9515
 IR Inten    --     12.2016                 1.2777                34.2224

                     28                     29                     30
                      A                      A                      A
 Frequencies --    704.0867               727.1617               783.6612
 Red. masses --      1.6063                 1.6369                 7.7424
 Frc consts  --      0.4692                 0.5100                 2.8014
 IR Inten    --     83.4330                72.3442                54.7635

                     31                     32                     33
                      A                      A                      A
 Frequencies --    795.3374               830.8306               877.9291
 Red. masses --      2.0679                 3.5921                 1.2440
 Frc consts  --      0.7707                 1.4609                 0.5649
 IR Inten    --     43.2579                35.3486                 0.4705

                     34                     35                     36
                      A                      A                      A
 Frequencies --    960.4050               999.9206              1012.1830
 Red. masses --      1.3965                 1.1657                 2.2846
 Frc consts  --      0.7589                 0.6867                 1.3791
 IR Inten    --     17.0098                35.3766                36.1824

                     37                     38                     39
                      A                      A                      A
 Frequencies --   1019.7719              1026.5241              1031.0858
 Red. masses --      1.4485                 4.0021                 1.3668
 Frc consts  --      0.8875                 2.4847                 0.8561
 IR Inten    --     12.4900                 4.1280                 8.0565

                     40                     41                     42
                      A                      A                      A
 Frequencies --   1041.0998              1059.0398              1066.6065
 Red. masses --      2.0960                 1.9267                 1.6141
 Frc consts  --      1.3385                 1.2732                 1.0819
 IR Inten    --    130.3500                22.9374                 4.2198

                     43                     44                     45
                      A                      A                      A
 Frequencies --   1082.4401              1088.6009              1100.5997
 Red. masses --      1.7848                 3.0940                 1.7750
 Frc consts  --      1.2321                 2.1602                 1.2668
 IR Inten    --     78.3732                26.1740                29.2181

                     46                     47                     48
                      A                      A                      A
 Frequencies --   1123.6577              1130.4083              1184.4368
 Red. masses --      1.6492                 2.4494                 1.1254
 Frc consts  --      1.2269                 1.8441                 0.9302
 IR Inten    --     13.7136                13.5774                 0.0510

                     49                     50                     51
                      A                      A                      A
 Frequencies --   1212.7594              1223.1076              1267.8601
 Red. masses --      1.1734                 1.3225                 4.2552
 Frc consts  --      1.0169                 1.1657                 4.0301
 IR Inten    --     14.0856                38.2593                29.4582

                     52                     53                     54
                      A                      A                      A
 Frequencies --   1320.9510              1350.6545              1363.6250
 Red. masses --      4.2995                 1.4562                 1.3802
 Frc consts  --      4.4202                 1.5651                 1.5121
 IR Inten    --      3.5246                10.6717                 4.0674

                     55                     56                     57
                      A                      A                      A
 Frequencies --   1391.5116              1409.1674              1421.9294
 Red. masses --      3.2983                 2.9657                 1.4885
 Frc consts  --      3.7628                 3.4698                 1.7731
 IR Inten    --     15.7555               853.6258               305.7728

                     58                     59                     60
                      A                      A                      A
 Frequencies --   1462.7655              1481.7295              1488.0840
 Red. masses --      1.1968                 1.1494                 1.1221
 Frc consts  --      1.5088                 1.4868                 1.4640
 IR Inten    --     15.9742                 8.1383                44.4115

                     61                     62                     63
                      A                      A                      A
 Frequencies --   1493.1624              1499.1385              1512.0027
 Red. masses --      1.6665                 1.1632                 1.0310
 Frc consts  --      2.1891                 1.5402                 1.3887
 IR Inten    --     45.2908                11.5736                 8.9778

                     64                     65                     66
                      A                      A                      A
 Frequencies --   1542.4844              1594.1711              1627.9009
 Red. masses --      2.2456                 2.4737                 1.4650
 Frc consts  --      3.1480                 3.7039                 2.2875
 IR Inten    --     21.0911               365.0760               479.1040

                     67                     68                     69
                      A                      A                      A
 Frequencies --   1651.7828              1656.4649              1674.2121
 Red. masses --      3.9626                 1.4600                 5.9477
 Frc consts  --      6.3700                 2.3602                 9.8225
 IR Inten    --      0.9388                20.3236                 2.6732

                     70                     71                     72
                      A                      A                      A
 Frequencies --   3063.5799              3071.2687              3135.3509
 Red. masses --      1.0335                 1.0378                 1.1039
 Frc consts  --      5.7151                 5.7676                 6.3935
 IR Inten    --     49.3952                12.1216                13.9107

                     73                     74                     75
                      A                      A                      A
 Frequencies --   3145.6072              3161.9288              3169.4567
 Red. masses --      1.0989                 1.1050                 1.1039
 Frc consts  --      6.4066                 6.5090                 6.5337
 IR Inten    --     14.6838                21.7455                20.4994

                     76                     77                     78
                      A                      A                      A
 Frequencies --   3194.9654              3201.2967              3210.6045
 Red. masses --      1.0857                 1.0885                 1.0925
 Frc consts  --      6.5295                 6.5725                 6.6351
 IR Inten    --      2.8841                 3.4404                30.2316

                     79                     80                     81
                      A                      A                      A
 Frequencies --   3220.3032              3226.1940              3437.6403
 Red. masses --      1.0951                 1.0967                 1.0626
 Frc consts  --      6.6912                 6.7251                 7.3985
 IR Inten    --     27.2194                10.8007                92.9951

                     82                     83                     84
                      A                      A                      A
 Frequencies --   3599.4889              3623.3524              3744.7158
 Red. masses --      1.0859                 1.0458                 1.1034
 Frc consts  --      8.2891                 8.0891                 9.1162
 IR Inten    --     66.1455                73.0800                80.0131

 - Thermochemistry -
 -------------------
 Temperature   298.150 Kelvin.  Pressure   1.00000 Atm.
 Atom     1 has atomic number  6 and mass  12.00000

 Molecular mass:   226.08729 amu.
 Principal axes and moments of inertia in atomic units:
                           1         2         3
     Eigenvalues --  2238.653204539.923195073.46123
           X            0.99976  -0.01065  -0.01927
           Y            0.01118   0.99956   0.02764
           Z            0.01897  -0.02785   0.99943
 This molecule is an asymmetric top.
 Rotational symmetry number  1.
 Warning -- assumption of classical behavior for rotation
           may cause significant error
 Rotational temperatures (Kelvin)      0.03869     0.01908     0.01707
 Rotational constants (GHZ):           0.80617     0.39753     0.35572
    1 imaginary frequencies ignored.
 Zero-point vibrational energy     651959.9 (Joules/Mol)
                                  155.82215 (Kcal/Mol)
 Warning -- explicit consideration of  24 degrees of freedom as
           vibrations may cause significant error
 Vibrational temperatures:     80.21   108.18   113.82   132.28   164.95
          (Kelvin)            208.04   244.09   306.51   308.37   362.20
                              393.63   404.62   433.79   462.76   472.69
                              483.89   533.19   606.00   615.33   666.47
                              737.70   798.89   812.29   885.69   919.16
                              977.97  1013.02  1046.22  1127.51  1144.31
                             1195.38  1263.14  1381.81  1438.66  1456.31
                             1467.22  1476.94  1483.50  1497.91  1523.72
                             1534.61  1557.39  1566.25  1583.52  1616.69
                             1626.41  1704.14  1744.89  1759.78  1824.17
                             1900.55  1943.29  1961.95  2002.07  2027.48
                             2045.84  2104.59  2131.88  2141.02  2148.33
                             2156.93  2175.43  2219.29  2293.66  2342.19
                             2376.55  2383.28  2408.82  4407.81  4418.87
                             4511.07  4525.83  4549.31  4560.14  4596.84
                             4605.95  4619.34  4633.30  4641.77  4946.00
                             5178.86  5213.20  5387.81

 Zero-point correction=                           0.248318 (Hartree/Particle)
 Thermal correction to Energy=                    0.263539
 Thermal correction to Enthalpy=                  0.264483
 Thermal correction to Gibbs Free Energy=         0.206402
 Sum of electronic and zero-point Energies=          -1072.905278
 Sum of electronic and thermal Energies=             -1072.890058
 Sum of electronic and thermal Enthalpies=           -1072.889114
 Sum of electronic and thermal Free Energies=        -1072.947195

                     E (Thermal)             CV                S
                      KCal/Mol        Cal/Mol-Kelvin    Cal/Mol-Kelvin
 Total                  165.373             57.718            122.242
 Electronic               0.000              0.000              0.000
 Translational            0.889              2.981             42.150
 Rotational               0.889              2.981             32.311
 Vibrational            163.596             51.757             47.781
 Vibration     1          0.596              1.975              4.602
 Vibration     2          0.599              1.966              4.013
 Vibration     3          0.600              1.963              3.913
 Vibration     4          0.602              1.955              3.618
 Vibration     5          0.608              1.937              3.189
 Vibration     6          0.616              1.909              2.742
 Vibration     7          0.625              1.880              2.439
 Vibration     8          0.644              1.821              2.018
 Vibration     9          0.644              1.819              2.007
 Vibration    10          0.664              1.760              1.718
 Vibration    11          0.676              1.722              1.573
 Vibration    12          0.681              1.708              1.526
 Vibration    13          0.693              1.671              1.409
 Vibration    14          0.707              1.632              1.302
 Vibration    15          0.712              1.618              1.267
 Vibration    16          0.717              1.603              1.230
 Vibration    17          0.743              1.533              1.077
 Vibration    18          0.784              1.424              0.888
 Vibration    19          0.789              1.410              0.866
 Vibration    20          0.821              1.332              0.757
 Vibration    21          0.868              1.222              0.627
 Vibration    22          0.911              1.128              0.533
 Vibration    23          0.920              1.108              0.515
 Vibration    24          0.975              0.999              0.424

 Optimization completed.
    -- Stationary point found.
 Normal termination of Gaussian 16 at Sun Feb 14 11:47:41 2021.
