 Gaussian 16, Revision A.03,
 Gaussian 16:  ES64L-G16RevA.03 25-Dec-2016

 ----------------------------------------------------------------------
 # wB97XD def2tzvp, opt=(ts, noeigen, calcfc, maxcycles=70, maxstep=8),
  freq=noraman, scrf=(iefpcm, solvent=water)
 ----------------------------------------------------------------------

 ------------------------
 0_iteration/TS-400-0.out
 ------------------------
 Symbolic Z-matrix:
 Charge =  0 Multiplicity = 1

 SCF Done:  E(RwB97XD) =  -1438.03727147     A.U. after   16 cycles
 SCF Done:  E(RwB97XD) =  -1438.03619014     A.U. after   13 cycles
 SCF Done:  E(RwB97XD) =  -1438.03544327     A.U. after   14 cycles
 SCF Done:  E(RwB97XD) =  -1438.03548845     A.U. after   14 cycles
 SCF Done:  E(RwB97XD) =  -1438.03886589     A.U. after   14 cycles
 SCF Done:  E(RwB97XD) =  -1438.04047216     A.U. after   13 cycles
 SCF Done:  E(RwB97XD) =  -1438.04254351     A.U. after   13 cycles
 SCF Done:  E(RwB97XD) =  -1438.04459818     A.U. after   13 cycles
 SCF Done:  E(RwB97XD) =  -1438.04643645     A.U. after   13 cycles
 SCF Done:  E(RwB97XD) =  -1438.04815159     A.U. after   13 cycles
 SCF Done:  E(RwB97XD) =  -1438.05593134     A.U. after   13 cycles
 SCF Done:  E(RwB97XD) =  -1438.05642379     A.U. after   13 cycles
 SCF Done:  E(RwB97XD) =  -1438.05638149     A.U. after   13 cycles
 SCF Done:  E(RwB97XD) =  -1438.05651040     A.U. after   12 cycles
 SCF Done:  E(RwB97XD) =  -1438.05650501     A.U. after   12 cycles
 SCF Done:  E(RwB97XD) =  -1438.05652681     A.U. after   12 cycles
 SCF Done:  E(RwB97XD) =  -1438.05651352     A.U. after   11 cycles
 SCF Done:  E(RwB97XD) =  -1438.05652713     A.U. after   11 cycles
 SCF Done:  E(RwB97XD) =  -1438.05652718     A.U. after    9 cycles
 Optimization completed.
    -- Stationary point found.
 Normal termination of Gaussian 16 at Fri Feb 12 18:55:19 2021.

 ---------------------------------------------------------------------
 #N Geom=AllCheck Guess=TCheck SCRF=Check GenChk RwB97XD/def2TZVP Freq
 ---------------------------------------------------------------------

 Structure from the checkpoint file:  "/beegfs/scratch/user/q/tla25/Gau-51198.chk"
 ------------------------
 0_iteration/TS-400-0.out
 ------------------------
 Charge =  0 Multiplicity = 1

                         Standard orientation:
 ---------------------------------------------------------------------
 Center     Atomic      Atomic             Coordinates (Angstroms)
 Number     Number       Type             X           Y           Z
 ---------------------------------------------------------------------
      1          6           0       -1.290624   -0.626699   -0.223451
      2          6           0       -0.157705   -1.386657    0.227445
      3          8           0       -0.241611   -2.555567    0.593511
      4          6           0       -1.354296    0.584522   -0.884094
      5          6           0       -2.133226    1.815342    1.598670
      6          1           0       -1.989397    2.567879    2.374321
      7          1           0       -3.195526    1.711938    1.388292
      8          1           0       -1.759065    0.856335    1.961402
      9          7           0       -1.430965    2.158248    0.370133
     10          1           0       -1.869382    2.927829   -0.121555
     11          1           0       -0.464356    2.409572    0.542167
     12          1           0       -2.310917    0.850218   -1.307248
     13         17           0       -0.059217    1.175168   -1.900664
     14         17           0       -2.860905   -1.371618    0.059434
     15          6           0        1.187033   -0.719532    0.276494
     16          6           0        2.233538   -1.224539   -0.486862
     17          6           0        3.487533   -0.639176   -0.421328
     18          6           0        3.711033    0.438063    0.426612
     19          6           0        2.677339    0.923757    1.213637
     20          6           0        1.417537    0.348811    1.134226
     21          1           0        2.058050   -2.066550   -1.144829
     22          1           0        4.294326   -1.024785   -1.031610
     23          1           0        4.692236    0.892330    0.479146
     24          1           0        2.850257    1.750380    1.890831
     25          1           0        0.616526    0.717955    1.762891
 ---------------------------------------------------------------------

 SCF Done:  E(RwB97XD) =  -1438.05652718     A.U. after    1 cycles

 The electronic state is 1-A.
 Alpha  occ. eigenvalues -- -101.71119-101.69234 -19.22615 -14.48165 -10.40148
 Alpha  occ. eigenvalues --  -10.37553 -10.32852 -10.31811 -10.30412 -10.29827
 Alpha  occ. eigenvalues --  -10.29598 -10.29542 -10.29475 -10.29416  -9.59689
 Alpha  occ. eigenvalues --   -9.57759  -7.34357  -7.33469  -7.33416  -7.32403
 Alpha  occ. eigenvalues --   -7.31538  -7.31529  -1.13630  -1.03984  -0.99242
 Alpha  occ. eigenvalues --   -0.97157  -0.95407  -0.87416  -0.85736  -0.83156
 Alpha  occ. eigenvalues --   -0.78972  -0.75978  -0.71250  -0.70356  -0.64060
 Alpha  occ. eigenvalues --   -0.63585  -0.60063  -0.57837  -0.57391  -0.56809
 Alpha  occ. eigenvalues --   -0.55573  -0.54323  -0.53537  -0.51576  -0.51468
 Alpha  occ. eigenvalues --   -0.49597  -0.48504  -0.48090  -0.47268  -0.45978
 Alpha  occ. eigenvalues --   -0.44690  -0.43344  -0.42142  -0.41038  -0.39969
 Alpha  occ. eigenvalues --   -0.38462  -0.34967  -0.34292  -0.32963  -0.29174
 Alpha virt. eigenvalues --    0.01009   0.04651   0.04865   0.07408   0.09794
 Alpha virt. eigenvalues --    0.12487   0.13325   0.14023   0.14717   0.15638
 Alpha virt. eigenvalues --    0.16377   0.17249   0.18269   0.18358   0.19311

 Mulliken charges:
               1
     1  C   -0.147294
     2  C    0.202255
     3  O   -0.448146
     4  C    0.033718
     5  C   -0.294565
     6  H    0.159718
     7  H    0.161963
     8  H    0.151778
     9  N   -0.378763
    10  H    0.289856
    11  H    0.279104
    12  H    0.200832
    13  Cl  -0.071892
    14  Cl  -0.159201
    15  C    0.147107
    16  C   -0.210772
    17  C   -0.139071
    18  C   -0.143609
    19  C   -0.142013
    20  C   -0.255154
    21  H    0.144552
    22  H    0.146533
    23  H    0.147251
    24  H    0.144454
    25  H    0.181360
 Sum of Mulliken charges =  -0.00000

 Dipole moment (field-independent basis, Debye):
    X=             -0.2019    Y=             11.2217    Z=              0.3813  Tot=             11.2300
 Quadrupole moment (field-independent basis, Debye-Ang):
   XX=            -85.6716   YY=            -97.2482   ZZ=            -94.2279
   XY=            -12.6198   XZ=             -1.9596   YZ=             10.5125

  Exact polarizability: 241.247   4.247 239.055 -15.165  11.883 174.701
 Approx polarizability: 190.904   6.146 199.748 -12.513   8.613 153.258

 ******    1 imaginary frequencies (negative Signs) ******

                      1                      2                      3
                      A                      A                      A
 Frequencies --   -345.3643                40.1459                50.8613
 Red. masses --      5.9983                 6.3306                 4.9869
 Frc consts  --      0.4215                 0.0060                 0.0076
 IR Inten    --    857.1742                 4.0829                 4.1274

                      4                      5                      6
                      A                      A                      A
 Frequencies --     67.8104                77.0563               107.1453
 Red. masses --      3.1473                 6.1621                 4.4818
 Frc consts  --      0.0085                 0.0216                 0.0303
 IR Inten    --      0.8693                 3.4199                 5.1342

                      7                      8                      9
                      A                      A                      A
 Frequencies --    137.8580               172.7243               184.6571
 Red. masses --      3.2694                 6.3702                 3.2334
 Frc consts  --      0.0366                 0.1120                 0.0650
 IR Inten    --     12.5519                 4.0280                 1.7873

                     10                     11                     12
                      A                      A                      A
 Frequencies --    201.7019               218.6079               254.7125
 Red. masses --      1.3515                 7.1810                 5.2699
 Frc consts  --      0.0324                 0.2022                 0.2014
 IR Inten    --      2.1404                 7.5960                 6.9732

                     13                     14                     15
                      A                      A                      A
 Frequencies --    280.1986               288.7202               366.3551
 Red. masses --      6.0368                 4.8640                 8.6934
 Frc consts  --      0.2792                 0.2389                 0.6875
 IR Inten    --     25.1998                12.5141                 7.1053

                     16                     17                     18
                      A                      A                      A
 Frequencies --    380.7975               418.7528               454.5771
 Red. masses --      7.7927                 2.9089                 3.6477
 Frc consts  --      0.6658                 0.3005                 0.4441
 IR Inten    --     26.4726                 0.9372               100.2558

                     19                     20                     21
                      A                      A                      A
 Frequencies --    544.8188               591.4933               634.8226
 Red. masses --      3.4641                 2.1651                 6.4249
 Frc consts  --      0.6058                 0.4463                 1.5255
 IR Inten    --      9.8646                11.4444                 0.5167

                     22                     23                     24
                      A                      A                      A
 Frequencies --    660.7926               726.2019               737.9895
 Red. masses --      3.7735                 2.1523                 2.2014
 Frc consts  --      0.9708                 0.6687                 0.7064
 IR Inten    --     94.9664                50.9973                53.5862

                     25                     26                     27
                      A                      A                      A
 Frequencies --    768.7579               790.2563               819.7257
 Red. masses --      5.2830                 6.3800                 3.9993
 Frc consts  --      1.8395                 2.3475                 1.5833
 IR Inten    --     40.4316               110.8665               156.9760

                     28                     29                     30
                      A                      A                      A
 Frequencies --    864.5136               881.5401               963.0870
 Red. masses --      4.6520                 1.2495                 1.4644
 Frc consts  --      2.0485                 0.5721                 0.8003
 IR Inten    --     46.2711                 1.2438                15.0085

                     31                     32                     33
                      A                      A                      A
 Frequencies --    997.1987              1004.6424              1013.2644
 Red. masses --      1.1076                 1.1078                 1.3980
 Frc consts  --      0.6489                 0.6588                 0.8457
 IR Inten    --     72.3678                45.6454                 0.6357

                     34                     35                     36
                      A                      A                      A
 Frequencies --   1026.6109              1033.1999              1057.6870
 Red. masses --      4.9193                 1.3321                 2.3766
 Frc consts  --      3.0547                 0.8379                 1.5665
 IR Inten    --      1.5687                 0.4279                11.3403

                     37                     38                     39
                      A                      A                      A
 Frequencies --   1077.3396              1110.6774              1112.8484
 Red. masses --      3.1032                 1.6036                 1.3583
 Frc consts  --      2.1221                 1.1656                 0.9911
 IR Inten    --     90.6354                54.7860                45.0017

                     40                     41                     42
                      A                      A                      A
 Frequencies --   1128.6966              1184.5497              1203.1624
 Red. masses --      2.1498                 1.1385                 1.3696
 Frc consts  --      1.6136                 0.9412                 1.1682
 IR Inten    --      4.0305                 0.3472                12.3982

                     43                     44                     45
                      A                      A                      A
 Frequencies --   1205.9753              1267.1030              1322.7162
 Red. masses --      1.1475                 1.9232                 4.0311
 Frc consts  --      0.9833                 1.8193                 4.1554
 IR Inten    --      3.1256                41.4575                11.5280

                     46                     47                     48
                      A                      A                      A
 Frequencies --   1339.1389              1356.9280              1382.1589
 Red. masses --      1.3394                 1.5168                 2.4121
 Frc consts  --      1.4152                 1.6454                 2.7149
 IR Inten    --      6.0862                 7.8726               243.9746

                     49                     50                     51
                      A                      A                      A
 Frequencies --   1435.2409              1469.6466              1490.3018
 Red. masses --      3.3961                 1.4284                 2.2129
 Frc consts  --      4.1218                 1.8177                 2.8958
 IR Inten    --    902.9878               147.8503                29.0609

                     52                     53                     54
                      A                      A                      A
 Frequencies --   1492.7089              1505.2777              1541.4199
 Red. masses --      1.0458                 1.0339                 2.3387
 Frc consts  --      1.3729                 1.3803                 3.2739
 IR Inten    --      9.4772                16.6182                 6.6064

                     55                     56                     57
                      A                      A                      A
 Frequencies --   1647.8838              1650.1408              1668.9227
 Red. masses --      1.1158                 5.3768                11.8225
 Frc consts  --      1.7853                 8.6261                19.4014
 IR Inten    --     46.5940                71.4956               662.3905

                     58                     59                     60
                      A                      A                      A
 Frequencies --   1674.9485              3059.8164              3131.5469
 Red. masses --      5.9029                 1.0344                 1.1042
 Frc consts  --      9.7570                 5.7062                 6.3797
 IR Inten    --      1.4508                30.0389                18.3609

                     61                     62                     63
                      A                      A                      A
 Frequencies --   3164.3365              3195.2599              3199.5584
 Red. masses --      1.1046                 1.0860                 1.0880
 Frc consts  --      6.5164                 6.5327                 6.5622
 IR Inten    --     14.5732                 2.8388                 0.6996

                     64                     65                     66
                      A                      A                      A
 Frequencies --   3207.4873              3215.1186              3224.3456
 Red. masses --      1.0915                 1.0954                 1.0989
 Frc consts  --      6.6163                 6.6712                 6.7314
 IR Inten    --      9.1341                34.7268                15.3898

                     67                     68                     69
                      A                      A                      A
 Frequencies --   3237.5961              3527.0294              3611.7688
 Red. masses --      1.0919                 1.0508                 1.0961
 Frc consts  --      6.7432                 7.7015                 8.4242
 IR Inten    --      2.0587                46.8624                54.5591

 - Thermochemistry -
 -------------------
 Temperature   298.150 Kelvin.  Pressure   1.00000 Atm.
 Atom     1 has atomic number  6 and mass  12.00000

 Molecular mass:   231.02177 amu.
 Principal axes and moments of inertia in atomic units:
                           1         2         3
     Eigenvalues --  2396.519154387.535735093.66393
           X            0.99913  -0.03955  -0.01296
           Y            0.04071   0.99337   0.10751
           Z            0.00862  -0.10794   0.99412
 This molecule is an asymmetric top.
 Rotational symmetry number  1.
 Warning -- assumption of classical behavior for rotation
           may cause significant error
 Rotational temperatures (Kelvin)      0.03614     0.01974     0.01700
 Rotational constants (GHZ):           0.75307     0.41133     0.35431
    1 imaginary frequencies ignored.
 Zero-point vibrational energy     507581.1 (Joules/Mol)
                                  121.31480 (Kcal/Mol)
 Warning -- explicit consideration of  19 degrees of freedom as
           vibrations may cause significant error
 Vibrational temperatures:     57.76    73.18    97.56   110.87   154.16
          (Kelvin)            198.35   248.51   265.68   290.20   314.53
                              366.47   403.14   415.40   527.10   547.88
                              602.49   654.04   783.87   851.03   913.37
                              950.73  1044.84  1061.80  1106.07  1137.00
                             1179.40  1243.84  1268.34  1385.67  1434.75
                             1445.46  1457.86  1477.06  1486.54  1521.78
                             1550.05  1598.02  1601.14  1623.94  1704.30
                             1731.08  1735.13  1823.08  1903.09  1926.72
                             1952.32  1988.62  2064.99  2114.49  2144.21
                             2147.68  2165.76  2217.76  2370.94  2374.18
                             2401.21  2409.88  4402.39  4505.60  4552.77
                             4597.27  4603.45  4614.86  4625.84  4639.11
                             4658.18  5074.61  5196.53

 Zero-point correction=                           0.193327 (Hartree/Particle)
 Thermal correction to Energy=                    0.207351
 Thermal correction to Enthalpy=                  0.208296
 Thermal correction to Gibbs Free Energy=         0.150947
 Sum of electronic and zero-point Energies=          -1437.863200
 Sum of electronic and thermal Energies=             -1437.849176
 Sum of electronic and thermal Enthalpies=           -1437.848232
 Sum of electronic and thermal Free Energies=        -1437.905580

                     E (Thermal)             CV                S
                      KCal/Mol        Cal/Mol-Kelvin    Cal/Mol-Kelvin
 Total                  130.115             50.329            120.700
 Electronic               0.000              0.000              0.000
 Translational            0.889              2.981             42.214
 Rotational               0.889              2.981             32.349
 Vibrational            128.338             44.367             46.137
 Vibration     1          0.594              1.981              5.252
 Vibration     2          0.595              1.977              4.784
 Vibration     3          0.598              1.970              4.216
 Vibration     4          0.599              1.964              3.964
 Vibration     5          0.606              1.944              3.320
 Vibration     6          0.614              1.916              2.833
 Vibration     7          0.626              1.876              2.406
 Vibration     8          0.631              1.861              2.281
 Vibration     9          0.639              1.837              2.118
 Vibration    10          0.646              1.813              1.971
 Vibration    11          0.665              1.755              1.698
 Vibration    12          0.680              1.710              1.532
 Vibration    13          0.685              1.695              1.481
 Vibration    14          0.739              1.541              1.095
 Vibration    15          0.751              1.511              1.036
 Vibration    16          0.782              1.429              0.896
 Vibration    17          0.813              1.351              0.782
 Vibration    18          0.900              1.151              0.555
 Vibration    19          0.949              1.050              0.465

 Optimization completed.
    -- Stationary point found.
 Normal termination of Gaussian 16 at Fri Feb 12 19:38:41 2021.
