 Gaussian 16, Revision A.03,
 Gaussian 16:  ES64L-G16RevA.03 25-Dec-2016

 ----------------------------------------------------------------------
 # wB97XD def2tzvp, opt=(ts, noeigen, calcfc, maxcycles=70, maxstep=5),
  freq=noraman, scrf=(iefpcm, solvent=water)
 ----------------------------------------------------------------------

 ------------------------
 2_iteration/TS-436-2.out
 ------------------------
 Symbolic Z-matrix:
 Charge =  0 Multiplicity = 1

 SCF Done:  E(RwB97XD) =  -1132.32468055     A.U. after   15 cycles
 SCF Done:  E(RwB97XD) =  -1132.32469235     A.U. after   10 cycles
 SCF Done:  E(RwB97XD) =  -1132.32469255     A.U. after    7 cycles
 Optimization completed.
    -- Stationary point found.
 Normal termination of Gaussian 16 at Sun Feb 14 11:18:10 2021.

 ---------------------------------------------------------------------
 #N Geom=AllCheck Guess=TCheck SCRF=Check GenChk RwB97XD/def2TZVP Freq
 ---------------------------------------------------------------------

 Structure from the checkpoint file:  "/beegfs/scratch/user/q/tla25/Gau-92881.chk"
 ------------------------
 2_iteration/TS-436-2.out
 ------------------------
 Charge =  0 Multiplicity = 1

                         Standard orientation:
 ---------------------------------------------------------------------
 Center     Atomic      Atomic             Coordinates (Angstroms)
 Number     Number       Type             X           Y           Z
 ---------------------------------------------------------------------
      1          6           0        1.032203   -0.179208   -0.519072
      2          6           0        1.361476    0.935655    0.302352
      3          8           0        0.697207    1.291048    1.276140
      4          6           0       -0.155494   -0.914308   -0.318717
      5          6           0        1.255211   -2.283922    1.742858
      6          1           0        1.488049   -2.345295    2.806240
      7          1           0        1.199444   -3.289564    1.331211
      8          1           0        2.052825   -1.735637    1.240992
      9          7           0       -0.003787   -1.589293    1.509738
     10          1           0       -0.792548   -2.137443    1.827183
     11          1           0       -0.017306   -0.687382    1.978777
     12          6           0       -0.326755   -2.204238   -1.083788
     13          1           0       -0.465388   -1.971664   -2.141345
     14          1           0        0.546619   -2.846456   -0.992890
     15          1           0       -1.208683   -2.740836   -0.739685
     16          6           0       -1.458078   -0.151928   -0.190968
     17          6           0       -2.585493   -0.706370    0.412267
     18          6           0       -3.793445   -0.026835    0.435216
     19          6           0       -3.905354    1.218552   -0.163781
     20          6           0       -2.799421    1.769704   -0.792795
     21          6           0       -1.592481    1.089003   -0.808725
     22          1           0       -2.545427   -1.687631    0.866326
     23          1           0       -4.650533   -0.478736    0.918040
     24          1           0       -4.848705    1.749384   -0.149232
     25          1           0       -2.874249    2.734554   -1.278421
     26          1           0       -0.739057    1.520761   -1.313401
     27         17           0        2.285811   -0.819773   -1.577927
     28          8           0        2.494193    1.583720   -0.039354
     29          6           0        2.884239    2.653641    0.811462
     30          1           0        2.135361    3.446004    0.813259
     31          1           0        3.036830    2.305526    1.833437
     32          1           0        3.819639    3.028982    0.403969
 ---------------------------------------------------------------------

 SCF Done:  E(RwB97XD) =  -1132.32469255     A.U. after    1 cycles

 The electronic state is 1-A.
 Alpha  occ. eigenvalues -- -101.68391 -19.28334 -19.21497 -14.47684 -10.39913
 Alpha  occ. eigenvalues --  -10.36243 -10.32671 -10.31401 -10.30761 -10.30397
 Alpha  occ. eigenvalues --  -10.29533 -10.29240 -10.29149 -10.29094 -10.29038
 Alpha  occ. eigenvalues --  -10.28505  -9.56914  -7.31546  -7.30704  -7.30691
 Alpha  occ. eigenvalues --   -1.19771  -1.10049  -1.03505  -0.97722  -0.95854
 Alpha  occ. eigenvalues --   -0.90022  -0.85469  -0.83736  -0.83432  -0.78792
 Alpha  occ. eigenvalues --   -0.78418  -0.71829  -0.70577  -0.67844  -0.63923
 Alpha  occ. eigenvalues --   -0.62540  -0.61972  -0.58430  -0.57256  -0.56762
 Alpha  occ. eigenvalues --   -0.56280  -0.55417  -0.54145  -0.53477  -0.51915
 Alpha  occ. eigenvalues --   -0.51386  -0.50618  -0.49589  -0.48325  -0.47786
 Alpha  occ. eigenvalues --   -0.47235  -0.46888  -0.46515  -0.43620  -0.43001
 Alpha  occ. eigenvalues --   -0.42919  -0.41955  -0.40858  -0.39551  -0.38194
 Alpha  occ. eigenvalues --   -0.35638  -0.33927  -0.32919  -0.26921
 Alpha virt. eigenvalues --    0.02454   0.05199   0.07262   0.10262   0.12080
 Alpha virt. eigenvalues --    0.12862   0.13664   0.14240   0.15444   0.15856
 Alpha virt. eigenvalues --    0.16176   0.16531   0.17254   0.18447   0.19212

 Mulliken charges:
               1
     1  C   -0.307045
     2  C    0.420312
     3  O   -0.533178
     4  C    0.255435
     5  C   -0.306663
     6  H    0.154955
     7  H    0.157998
     8  H    0.154423
     9  N   -0.329019
    10  H    0.268527
    11  H    0.281204
    12  C   -0.377827
    13  H    0.155913
    14  H    0.145287
    15  H    0.147093
    16  C    0.203896
    17  C   -0.263890
    18  C   -0.173616
    19  C   -0.140486
    20  C   -0.143977
    21  C   -0.232650
    22  H    0.148477
    23  H    0.143312
    24  H    0.144841
    25  H    0.142603
    26  H    0.163282
    27  Cl  -0.174178
    28  O   -0.305543
    29  C   -0.191732
    30  H    0.126653
    31  H    0.126377
    32  H    0.139215
 Sum of Mulliken charges =  -0.00000

 Dipole moment (field-independent basis, Debye):
    X=             -3.1446    Y=             -4.3130    Z=              3.5890  Tot=              6.4320
 Quadrupole moment (field-independent basis, Debye-Ang):
   XX=            -97.5941   YY=            -87.2743   ZZ=           -101.6818
   XY=              3.9932   XZ=              4.7759   YZ=            -10.8060

  Exact polarizability: 263.189   1.356 241.177 -19.282 -15.636 198.522
 Approx polarizability: 205.780   0.551 196.594 -18.990 -12.970 172.958

 ******    1 imaginary frequencies (negative Signs) ******

                      1                      2                      3
                      A                      A                      A
 Frequencies --   -367.3909                37.0894                53.2631
 Red. masses --      5.1670                 3.4989                 3.9386
 Frc consts  --      0.4109                 0.0028                 0.0066
 IR Inten    --    571.8616                 1.7534                 1.4872

                      4                      5                      6
                      A                      A                      A
 Frequencies --     75.0179                83.1684               103.1470
 Red. masses --      3.4484                 4.7107                 3.0003
 Frc consts  --      0.0114                 0.0192                 0.0188
 IR Inten    --      2.4255                 1.3484                 4.6434

                      7                      8                      9
                      A                      A                      A
 Frequencies --    121.4416               141.8237               150.7895
 Red. masses --      2.5277                 3.5936                 3.9600
 Frc consts  --      0.0220                 0.0426                 0.0531
 IR Inten    --      0.3196                 8.0387                24.2885

                     10                     11                     12
                      A                      A                      A
 Frequencies --    172.3987               188.8464               213.7879
 Red. masses --      1.3923                 2.5607                 1.3746
 Frc consts  --      0.0244                 0.0538                 0.0370
 IR Inten    --      1.1321                 4.2967                 2.3721

                     13                     14                     15
                      A                      A                      A
 Frequencies --    235.7683               265.7135               277.7047
 Red. masses --      5.2191                 3.0923                 2.1540
 Frc consts  --      0.1709                 0.1286                 0.0979
 IR Inten    --      0.1742                13.3224                 1.6029

                     16                     17                     18
                      A                      A                      A
 Frequencies --    290.0957               317.2039               331.1921
 Red. masses --      1.8306                 3.3588                 2.5409
 Frc consts  --      0.0908                 0.1991                 0.1642
 IR Inten    --      9.5716                 5.5894                16.2974

                     19                     20                     21
                      A                      A                      A
 Frequencies --    346.4700               368.5311               421.1315
 Red. masses --      5.3548                 3.8109                 3.5726
 Frc consts  --      0.3787                 0.3049                 0.3733
 IR Inten    --     17.1767                25.8107                 4.1709

                     22                     23                     24
                      A                      A                      A
 Frequencies --    426.8892               469.3948               560.1957
 Red. masses --      3.5117                 9.9752                 2.9015
 Frc consts  --      0.3770                 1.2949                 0.5365
 IR Inten    --      2.1169                 5.6157                51.0284

                     25                     26                     27
                      A                      A                      A
 Frequencies --    573.1341               627.6114               639.2617
 Red. masses --      4.2194                 3.4446                 6.1706
 Frc consts  --      0.8166                 0.7994                 1.4857
 IR Inten    --     94.9792                16.2211                 4.1506

                     28                     29                     30
                      A                      A                      A
 Frequencies --    679.9961               724.2517               764.9108
 Red. masses --      1.7418                 1.6182                 4.7435
 Frc consts  --      0.4745                 0.5001                 1.6352
 IR Inten    --     78.9315                88.7793                 9.5985

                     31                     32                     33
                      A                      A                      A
 Frequencies --    791.3378               795.9394               821.0180
 Red. masses --      8.1869                 2.2292                 4.0006
 Frc consts  --      3.0206                 0.8321                 1.5888
 IR Inten    --     72.1933                39.7864                41.3521

                     34                     35                     36
                      A                      A                      A
 Frequencies --    874.4532               955.9780               970.5728
 Red. masses --      1.2505                 1.5104                 4.1250
 Frc consts  --      0.5634                 0.8133                 2.2894
 IR Inten    --      0.2980                17.2683                 2.1458

                     37                     38                     39
                      A                      A                      A
 Frequencies --    996.1173              1015.9526              1025.1135
 Red. masses --      1.1294                 1.3719                 5.2475
 Frc consts  --      0.6603                 0.8343                 3.2490
 IR Inten    --     56.0303                 8.4913                 3.3222

                     40                     41                     42
                      A                      A                      A
 Frequencies --   1031.7354              1036.7765              1051.0791
 Red. masses --      1.3223                 1.8097                 1.4303
 Frc consts  --      0.8293                 1.1461                 0.9310
 IR Inten    --      1.6850                69.5911               160.9518

                     43                     44                     45
                      A                      A                      A
 Frequencies --   1057.4596              1063.0009              1088.6121
 Red. masses --      1.6003                 2.2516                 3.2656
 Frc consts  --      1.0543                 1.4990                 2.2801
 IR Inten    --     49.1884                 9.5533                 4.4801

                     46                     47                     48
                      A                      A                      A
 Frequencies --   1114.9811              1124.1270              1132.8872
 Red. masses --      2.3064                 2.2655                 2.9607
 Frc consts  --      1.6894                 1.6868                 2.2388
 IR Inten    --     80.0234                 1.4116               162.4033

                     49                     50                     51
                      A                      A                      A
 Frequencies --   1181.4069              1184.3146              1209.6570
 Red. masses --      1.2808                 1.1248                 1.2059
 Frc consts  --      1.0533                 0.9295                 1.0397
 IR Inten    --      1.7856                 0.0523                22.0111

                     52                     53                     54
                      A                      A                      A
 Frequencies --   1216.6782              1220.9995              1265.0875
 Red. masses --      1.5638                 1.2987                 4.5541
 Frc consts  --      1.3639                 1.1407                 4.2943
 IR Inten    --    125.1726                29.5491               109.3656

                     55                     56                     57
                      A                      A                      A
 Frequencies --   1319.4930              1339.6016              1349.9872
 Red. masses --      4.2742                 5.2950                 1.4508
 Frc consts  --      4.3844                 5.5985                 1.5578
 IR Inten    --     29.8842               731.0715                56.2730

                     58                     59                     60
                      A                      A                      A
 Frequencies --   1363.2032              1402.2434              1420.9535
 Red. masses --      1.3793                 2.9891                 1.3673
 Frc consts  --      1.5102                 3.4628                 1.6266
 IR Inten    --     10.1131               429.0518               112.4577

                     61                     62                     63
                      A                      A                      A
 Frequencies --   1459.1919              1480.3874              1482.4467
 Red. masses --      1.1929                 1.1777                 1.0712
 Frc consts  --      1.4965                 1.5207                 1.3870
 IR Inten    --      6.1451                88.8564                25.7756

                     64                     65                     66
                      A                      A                      A
 Frequencies --   1484.4297              1488.7097              1493.3468
 Red. masses --      1.2448                 1.1144                 1.5048
 Frc consts  --      1.6162                 1.4552                 1.9772
 IR Inten    --      9.1836                63.2365                29.1637

                     67                     68                     69
                      A                      A                      A
 Frequencies --   1497.1119              1499.2112              1510.2268
 Red. masses --      1.0745                 1.1940                 1.0343
 Frc consts  --      1.4190                 1.5812                 1.3899
 IR Inten    --      8.5200                14.0444                15.5960

                     70                     71                     72
                      A                      A                      A
 Frequencies --   1541.8316              1631.6957              1651.1650
 Red. masses --      2.2634                 1.3777                 4.9258
 Frc consts  --      3.1702                 2.1611                 7.9124
 IR Inten    --     18.7016               270.0128                 4.2686

                     73                     74                     75
                      A                      A                      A
 Frequencies --   1668.9783              1674.0614              3061.7585
 Red. masses --      3.8743                 5.9800                 1.0308
 Frc consts  --      6.3583                 9.8741                 5.6936
 IR Inten    --    253.1485                17.0654                61.1204

                     76                     77                     78
                      A                      A                      A
 Frequencies --   3066.7543              3071.5412              3137.0812
 Red. masses --      1.0335                 1.0379                 1.1066
 Frc consts  --      5.7270                 5.7692                 6.4166
 IR Inten    --     46.3393                11.1971                38.5435

                     79                     80                     81
                      A                      A                      A
 Frequencies --   3140.1782              3145.6320              3164.6076
 Red. masses --      1.1039                 1.0987                 1.1053
 Frc consts  --      6.4135                 6.4052                 6.5217
 IR Inten    --     12.1756                15.5146                18.6802

                     82                     83                     84
                      A                      A                      A
 Frequencies --   3170.7892              3171.5548              3196.0575
 Red. masses --      1.1053                 1.1040                 1.0858
 Frc consts  --      6.5474                 6.5428                 6.5345
 IR Inten    --     27.7459                19.5470                 2.1591

                     85                     86                     87
                      A                      A                      A
 Frequencies --   3202.8710              3212.3019              3220.7436
 Red. masses --      1.0886                 1.0924                 1.0946
 Frc consts  --      6.5796                 6.6414                 6.6899
 IR Inten    --      3.5056                29.6444                27.9994

                     88                     89                     90
                      A                      A                      A
 Frequencies --   3226.2811              3495.2753              3605.9063
 Red. masses --      1.0974                 1.0556                 1.0914
 Frc consts  --      6.7303                 7.5982                 8.3613
 IR Inten    --      9.6122                41.2049                69.2629

 - Thermochemistry -
 -------------------
 Temperature   298.150 Kelvin.  Pressure   1.00000 Atm.
 Atom     1 has atomic number  6 and mass  12.00000

 Molecular mass:   241.08696 amu.
 Principal axes and moments of inertia in atomic units:
                           1         2         3
     Eigenvalues --  2775.514704978.397165880.00155
           X            0.99961   0.01781   0.02148
           Y           -0.01696   0.99910  -0.03887
           Z           -0.02215   0.03849   0.99901
 This molecule is an asymmetric top.
 Rotational symmetry number  1.
 Warning -- assumption of classical behavior for rotation
           may cause significant error
 Rotational temperatures (Kelvin)      0.03121     0.01740     0.01473
 Rotational constants (GHZ):           0.65024     0.36251     0.30693
    1 imaginary frequencies ignored.
 Zero-point vibrational energy     693434.1 (Joules/Mol)
                                  165.73472 (Kcal/Mol)
 Warning -- explicit consideration of  24 degrees of freedom as
           vibrations may cause significant error
 Vibrational temperatures:     53.36    76.63   107.93   119.66   148.41
          (Kelvin)            174.73   204.05   216.95   248.04   271.71
                              307.59   339.22   382.30   399.56   417.38
                              456.39   476.51   498.49   530.23   605.91
                              614.20   675.35   806.00   824.61   902.99
                              919.76   978.36  1042.04  1100.54  1138.56
                             1145.18  1181.26  1258.14  1375.44  1396.44
                             1433.19  1461.73  1474.91  1484.44  1491.69
                             1512.27  1521.45  1529.42  1566.27  1604.21
                             1617.37  1629.97  1699.78  1703.96  1740.43
                             1750.53  1756.75  1820.18  1898.46  1927.39
                             1942.33  1961.35  2017.52  2044.44  2099.45
                             2129.95  2132.91  2135.76  2141.92  2148.59
                             2154.01  2157.03  2172.88  2218.35  2347.65
                             2375.66  2401.29  2408.60  4405.19  4412.38
                             4419.26  4513.56  4518.02  4525.86  4553.16
                             4562.06  4563.16  4598.41  4608.22  4621.79
                             4633.93  4641.90  5028.92  5188.09

 Zero-point correction=                           0.264115 (Hartree/Particle)
 Thermal correction to Energy=                    0.280693
 Thermal correction to Enthalpy=                  0.281637
 Thermal correction to Gibbs Free Energy=         0.219644
 Sum of electronic and zero-point Energies=          -1132.060577
 Sum of electronic and thermal Energies=             -1132.044000
 Sum of electronic and thermal Enthalpies=           -1132.043056
 Sum of electronic and thermal Free Energies=        -1132.105049

                     E (Thermal)             CV                S
                      KCal/Mol        Cal/Mol-Kelvin    Cal/Mol-Kelvin
 Total                  176.137             60.993            130.475
 Electronic               0.000              0.000              0.000
 Translational            0.889              2.981             42.341
 Rotational               0.889              2.981             32.763
 Vibrational            174.360             55.032             55.371
 Vibration     1          0.594              1.982              5.409
 Vibration     2          0.596              1.976              4.692
 Vibration     3          0.599              1.966              4.017
 Vibration     4          0.600              1.961              3.815
 Vibration     5          0.605              1.947              3.394
 Vibration     6          0.609              1.931              3.077
 Vibration     7          0.615              1.911              2.779
 Vibration     8          0.618              1.902              2.662
 Vibration     9          0.626              1.876              2.409
 Vibration    10          0.633              1.855              2.239
 Vibration    11          0.644              1.820              2.011
 Vibration    12          0.655              1.786              1.835
 Vibration    13          0.672              1.736              1.624
 Vibration    14          0.679              1.715              1.548
 Vibration    15          0.686              1.692              1.473
 Vibration    16          0.704              1.641              1.324
 Vibration    17          0.714              1.613              1.254
 Vibration    18          0.724              1.582              1.182
 Vibration    19          0.741              1.537              1.086
 Vibration    20          0.784              1.424              0.888
 Vibration    21          0.789              1.412              0.869
 Vibration    22          0.826              1.318              0.739
 Vibration    23          0.916              1.117              0.523
 Vibration    24          0.929              1.089              0.498

 Optimization completed.
    -- Stationary point found.
 Normal termination of Gaussian 16 at Sun Feb 14 12:33:53 2021.
