 Gaussian 16, Revision A.03,
 Gaussian 16:  ES64L-G16RevA.03 25-Dec-2016

 ----------------------------------------------------------------------
 # wB97XD def2tzvp, opt=(ts, noeigen, calcfc, maxcycles=70, maxstep=8),
  freq=noraman, scrf=(iefpcm, solvent=water)
 ----------------------------------------------------------------------

 ------------------------
 1_iteration/TS-463-1.out
 ------------------------
 Symbolic Z-matrix:
 Charge =  0 Multiplicity = 1

 SCF Done:  E(RwB97XD) =  -652.850473168     A.U. after   14 cycles
 SCF Done:  E(RwB97XD) =  -652.851097823     A.U. after   12 cycles
 SCF Done:  E(RwB97XD) =  -652.851263910     A.U. after   12 cycles
 SCF Done:  E(RwB97XD) =  -652.851272190     A.U. after   11 cycles
 SCF Done:  E(RwB97XD) =  -652.851272833     A.U. after   10 cycles
 SCF Done:  E(RwB97XD) =  -652.851272788     A.U. after    7 cycles
 SCF Done:  E(RwB97XD) =  -652.851272772     A.U. after    7 cycles
 SCF Done:  E(RwB97XD) =  -652.851272819     A.U. after    7 cycles
 Optimization completed.
    -- Stationary point found.
 Normal termination of Gaussian 16 at Sun Feb 14 08:38:51 2021.

 ---------------------------------------------------------------------
 #N Geom=AllCheck Guess=TCheck SCRF=Check GenChk RwB97XD/def2TZVP Freq
 ---------------------------------------------------------------------

 Structure from the checkpoint file:  "/beegfs/scratch/user/q/tla25/Gau-24169.chk"
 ------------------------
 1_iteration/TS-463-1.out
 ------------------------
 Charge =  0 Multiplicity = 1

                         Standard orientation:
 ---------------------------------------------------------------------
 Center     Atomic      Atomic             Coordinates (Angstroms)
 Number     Number       Type             X           Y           Z
 ---------------------------------------------------------------------
      1          6           0        1.970573    0.719844   -0.345216
      2          6           0        0.603898    1.100955   -0.261707
      3          8           0        0.199478    2.186586    0.191549
      4          6           0        2.379886   -0.619766   -0.559399
      5          6           0        1.267928   -1.395982    1.822933
      6          1           0        1.400131   -1.818729    2.817586
      7          1           0        1.017886   -0.339232    1.906226
      8          1           0        0.458559   -1.910719    1.309223
      9          7           0        2.490137   -1.517271    1.031073
     10          1           0        3.280124   -1.115226    1.524286
     11          1           0        2.712939   -2.488458    0.841446
     12          6           0        3.760633   -0.898405   -1.106300
     13          1           0        3.826154   -0.490208   -2.116042
     14          1           0        4.538977   -0.424836   -0.507583
     15          1           0        3.965816   -1.967644   -1.160706
     16          1           0        1.643164   -1.292646   -0.985616
     17          6           0        3.006173    1.743664    0.047142
     18          1           0        3.497937    1.511507    1.001402
     19          1           0        3.800702    1.842703   -0.698655
     20          1           0        2.535342    2.718352    0.162083
     21          7           0       -0.350301    0.194892   -0.767357
     22          6           0       -1.686925    0.072671   -0.422200
     23          6           0       -2.266472    0.717517    0.675931
     24          6           0       -3.603117    0.507906    0.979661
     25          6           0       -4.393815   -0.338688    0.215816
     26          6           0       -3.820413   -0.984556   -0.871628
     27          6           0       -2.489141   -0.782392   -1.189184
     28          1           0       -0.025115   -0.478627   -1.436131
     29          1           0       -1.666115    1.382470    1.276450
     30          1           0       -4.029927    1.017533    1.835438
     31          1           0       -5.436135   -0.493189    0.462455
     32          1           0       -4.414493   -1.652718   -1.483280
     33          1           0       -2.055866   -1.292970   -2.042070
 ---------------------------------------------------------------------

 SCF Done:  E(RwB97XD) =  -652.851272819     A.U. after    1 cycles

 The electronic state is 1-A.
 Alpha  occ. eigenvalues --  -19.18496 -14.49503 -14.44434 -10.36224 -10.33605
 Alpha  occ. eigenvalues --  -10.33119 -10.31775 -10.28629 -10.28496 -10.28149
 Alpha  occ. eigenvalues --  -10.27954 -10.27633 -10.27597 -10.25925 -10.24156
 Alpha  occ. eigenvalues --   -1.11068  -1.04904  -1.02238  -0.94665  -0.90326
 Alpha  occ. eigenvalues --   -0.84556  -0.84155  -0.82092  -0.78810  -0.75952
 Alpha  occ. eigenvalues --   -0.71672  -0.70510  -0.67488  -0.64550  -0.62624
 Alpha  occ. eigenvalues --   -0.61883  -0.58498  -0.57343  -0.56763  -0.55217
 Alpha  occ. eigenvalues --   -0.53332  -0.51981  -0.51200  -0.50134  -0.49625
 Alpha  occ. eigenvalues --   -0.49388  -0.48346  -0.47756  -0.47724  -0.46890
 Alpha  occ. eigenvalues --   -0.44791  -0.44381  -0.43487  -0.42493  -0.42313
 Alpha  occ. eigenvalues --   -0.41933  -0.38426  -0.33534  -0.32198  -0.28943
 Alpha  occ. eigenvalues --   -0.24782
 Alpha virt. eigenvalues --    0.05702   0.05833   0.09183   0.09637   0.12182
 Alpha virt. eigenvalues --    0.13424   0.13697   0.14318   0.15449   0.16910
 Alpha virt. eigenvalues --    0.17096   0.17698   0.17852   0.18378   0.19111

 Mulliken charges:
               1
     1  C   -0.181107
     2  C    0.266245
     3  O   -0.560953
     4  C   -0.057750
     5  C   -0.293152
     6  H    0.164938
     7  H    0.158514
     8  H    0.153467
     9  N   -0.272560
    10  H    0.284559
    11  H    0.289253
    12  C   -0.365266
    13  H    0.143477
    14  H    0.147652
    15  H    0.140286
    16  H    0.125043
    17  C   -0.429769
    18  H    0.107432
    19  H    0.124553
    20  H    0.127691
    21  N   -0.262398
    22  C    0.298081
    23  C   -0.304947
    24  C   -0.091215
    25  C   -0.217053
    26  C   -0.090778
    27  C   -0.333196
    28  H    0.239989
    29  H    0.140157
    30  H    0.137824
    31  H    0.136542
    32  H    0.139134
    33  H    0.135307
 Sum of Mulliken charges =  -0.00000

 Dipole moment (field-independent basis, Debye):
    X=              6.9582    Y=            -11.1523    Z=              1.7833  Tot=             13.2654
 Quadrupole moment (field-independent basis, Debye-Ang):
   XX=            -75.4087   YY=            -96.6974   ZZ=            -83.7354
   XY=            -12.4776   XZ=              5.5082   YZ=             -0.3831

  Exact polarizability: 295.211  -0.925 212.187 -11.481  17.646 194.485
 Approx polarizability: 212.246  -0.376 177.553  -9.054  17.617 166.246

 ******    1 imaginary frequencies (negative Signs) ******

                      1                      2                      3
                      A                      A                      A
 Frequencies --   -374.5539                14.3674                31.0029
 Red. masses --      5.7568                 4.1233                 3.4268
 Frc consts  --      0.4758                 0.0005                 0.0019
 IR Inten    --    924.4055                 3.3177                 0.8855

                      4                      5                      6
                      A                      A                      A
 Frequencies --     45.4912                82.3948               100.8909
 Red. masses --      3.0458                 2.7701                 4.0089
 Frc consts  --      0.0037                 0.0111                 0.0240
 IR Inten    --      3.0358                 3.5722                 3.4499

                      7                      8                      9
                      A                      A                      A
 Frequencies --    117.5378               146.2094               168.1976
 Red. masses --      1.3091                 2.3296                 3.1382
 Frc consts  --      0.0107                 0.0293                 0.0523
 IR Inten    --      1.3791                 7.4411                10.4424

                     10                     11                     12
                      A                      A                      A
 Frequencies --    190.2055               214.5702               235.2152
 Red. masses --      3.4704                 1.2306                 1.4254
 Frc consts  --      0.0740                 0.0334                 0.0465
 IR Inten    --     11.8262                 2.9852                 2.3416

                     13                     14                     15
                      A                      A                      A
 Frequencies --    255.7865               276.8518               320.5524
 Red. masses --      2.1968                 2.7682                 2.3341
 Frc consts  --      0.0847                 0.1250                 0.1413
 IR Inten    --      8.2622                 1.8176                 1.2140

                     16                     17                     18
                      A                      A                      A
 Frequencies --    327.1529               365.2158               393.3831
 Red. masses --      3.9816                 3.1148                 5.0350
 Frc consts  --      0.2511                 0.2448                 0.4591
 IR Inten    --      4.3349                16.0284                17.8799

                     19                     20                     21
                      A                      A                      A
 Frequencies --    425.1826               444.4637               491.9210
 Red. masses --      2.9963                 1.2814                 2.2493
 Frc consts  --      0.3191                 0.1491                 0.3207
 IR Inten    --      0.3927                97.8569               127.7679

                     22                     23                     24
                      A                      A                      A
 Frequencies --    508.6799               525.9334               593.2793
 Red. masses --      3.4760                 2.7784                 4.2636
 Frc consts  --      0.5299                 0.4528                 0.8842
 IR Inten    --     56.2836                18.3238                15.3235

                     25                     26                     27
                      A                      A                      A
 Frequencies --    636.7087               648.1970               717.5953
 Red. masses --      6.3607                 2.6634                 1.9016
 Frc consts  --      1.5193                 0.6593                 0.5769
 IR Inten    --      3.2476                15.2310                58.3867

                     28                     29                     30
                      A                      A                      A
 Frequencies --    740.0652               777.4020               786.7924
 Red. masses --      2.4747                 1.8298                 3.1248
 Frc consts  --      0.7986                 0.6516                 1.1397
 IR Inten    --     17.1406               113.8681                22.3373

                     31                     32                     33
                      A                      A                      A
 Frequencies --    847.0537               855.7818               877.4423
 Red. masses --      3.5234                 1.2952                 4.8544
 Frc consts  --      1.4895                 0.5589                 2.2020
 IR Inten    --     13.1713                 2.6079                26.6943

                     34                     35                     36
                      A                      A                      A
 Frequencies --    921.4029               964.2063               992.3579
 Red. masses --      1.5361                 1.6588                 1.4132
 Frc consts  --      0.7684                 0.9086                 0.8200
 IR Inten    --      8.4904                27.9002                34.3018

                     37                     38                     39
                      A                      A                      A
 Frequencies --    996.5897              1009.1481              1017.2055
 Red. masses --      1.3316                 1.2792                 5.5723
 Frc consts  --      0.7792                 0.7676                 3.3971
 IR Inten    --      0.6592                 0.5770                10.3649

                     40                     41                     42
                      A                      A                      A
 Frequencies --   1022.9515              1044.9442              1057.0907
 Red. masses --      1.1839                 1.3718                 1.7670
 Frc consts  --      0.7299                 0.8825                 1.1634
 IR Inten    --     80.0856                19.1955                 5.0948

                     43                     44                     45
                      A                      A                      A
 Frequencies --   1062.3637              1069.4766              1075.5917
 Red. masses --      1.9557                 1.6412                 2.3552
 Frc consts  --      1.3004                 1.1060                 1.6054
 IR Inten    --     16.5408                28.0492               109.6911

                     46                     47                     48
                      A                      A                      A
 Frequencies --   1110.7545              1120.6135              1152.8975
 Red. masses --      2.0302                 1.7374                 2.3871
 Frc consts  --      1.4758                 1.2855                 1.8694
 IR Inten    --    282.9326               152.6446                48.5554

                     49                     50                     51
                      A                      A                      A
 Frequencies --   1180.3880              1206.5241              1218.4838
 Red. masses --      1.1126                 1.1326                 1.2265
 Frc consts  --      0.9134                 0.9714                 1.0729
 IR Inten    --      7.3363                19.1263               133.3453

                     52                     53                     54
                      A                      A                      A
 Frequencies --   1251.3727              1278.4510              1322.6728
 Red. masses --      1.3895                 2.4109                 1.8005
 Frc consts  --      1.2820                 2.3216                 1.8558
 IR Inten    --     29.4647               152.8441               130.0726

                     55                     56                     57
                      A                      A                      A
 Frequencies --   1344.6201              1352.8346              1359.0058
 Red. masses --      3.0402                 1.3046                 1.8440
 Frc consts  --      3.2386                 1.4068                 2.0066
 IR Inten    --    550.4667                 0.6486                16.0826

                     58                     59                     60
                      A                      A                      A
 Frequencies --   1386.3133              1406.1338              1418.7784
 Red. masses --      1.7395                 2.1764                 1.2479
 Frc consts  --      1.9697                 2.5354                 1.4799
 IR Inten    --     77.5037                27.2247                26.9505

                     61                     62                     63
                      A                      A                      A
 Frequencies --   1447.0864              1459.0822              1470.7014
 Red. masses --      1.4642                 1.5618                 1.4960
 Frc consts  --      1.8064                 1.9591                 1.9064
 IR Inten    --    158.8370               145.0847               156.4795

                     64                     65                     66
                      A                      A                      A
 Frequencies --   1486.2350              1493.3990              1496.9458
 Red. masses --      1.0799                 1.0424                 1.0584
 Frc consts  --      1.4054                 1.3698                 1.3974
 IR Inten    --     20.4296                25.6200                24.2574

                     67                     68                     69
                      A                      A                      A
 Frequencies --   1499.6080              1504.1599              1510.1069
 Red. masses --      1.0649                 1.1027                 1.2794
 Frc consts  --      1.4110                 1.4699                 1.7190
 IR Inten    --     10.3395                36.3589               143.0047

                     70                     71                     72
                      A                      A                      A
 Frequencies --   1541.8511              1547.1757              1631.6857
 Red. masses --      2.3945                 2.1881                 5.7079
 Frc consts  --      3.3538                 3.0860                 8.9537
 IR Inten    --    463.5255                21.5841              1119.6355

                     73                     74                     75
                      A                      A                      A
 Frequencies --   1650.2373              1654.8573              1672.5491
 Red. masses --      1.0872                 4.4301                 5.9413
 Frc consts  --      1.7444                 7.1480                 9.7924
 IR Inten    --     51.6201               109.3483               280.1053

                     76                     77                     78
                      A                      A                      A
 Frequencies --   2994.0949              3053.0909              3063.4530
 Red. masses --      1.0540                 1.0865                 1.0371
 Frc consts  --      5.5673                 5.9668                 5.7347
 IR Inten    --    130.9097                71.6810                34.2480

                     79                     80                     81
                      A                      A                      A
 Frequencies --   3075.5253              3137.4962              3140.8904
 Red. masses --      1.0324                 1.1017                 1.1001
 Frc consts  --      5.7535                 6.3894                 6.3940
 IR Inten    --     26.1022                22.1532                20.1876

                     82                     83                     84
                      A                      A                      A
 Frequencies --   3143.0768              3159.9381              3166.9484
 Red. masses --      1.0948                 1.1055                 1.0908
 Frc consts  --      6.3722                 6.5036                 6.4456
 IR Inten    --      9.0870                 6.4348                59.1803

                     85                     86                     87
                      A                      A                      A
 Frequencies --   3170.2777              3182.1451              3192.1884
 Red. masses --      1.1059                 1.0875                 1.0881
 Frc consts  --      6.5487                 6.4880                 6.5328
 IR Inten    --      7.3870                17.9511                 3.6701

                     88                     89                     90
                      A                      A                      A
 Frequencies --   3201.5678              3218.7142              3258.1530
 Red. masses --      1.0931                 1.0975                 1.0920
 Frc consts  --      6.6011                 6.6993                 6.8299
 IR Inten    --     35.8511                25.2903                 1.4420

                     91                     92                     93
                      A                      A                      A
 Frequencies --   3516.5468              3595.8764              3678.2850
 Red. masses --      1.0509                 1.0961                 1.0758
 Frc consts  --      7.6567                 8.3506                 8.5754
 IR Inten    --     43.8353                44.8159                33.4572

 - Thermochemistry -
 -------------------
 Temperature   298.150 Kelvin.  Pressure   1.00000 Atm.
 Atom     1 has atomic number  6 and mass  12.00000

 Molecular mass:   206.14191 amu.
 Principal axes and moments of inertia in atomic units:
                           1         2         3
     Eigenvalues --  1586.215795670.433576050.79154
           X            0.99999  -0.00254  -0.00217
           Y            0.00259   0.99972   0.02342
           Z            0.00211  -0.02343   0.99972
 This molecule is an asymmetric top.
 Rotational symmetry number  1.
 Warning -- assumption of classical behavior for rotation
           may cause significant error
 Rotational temperatures (Kelvin)      0.05460     0.01527     0.01431
 Rotational constants (GHZ):           1.13777     0.31827     0.29827
    1 imaginary frequencies ignored.
 Zero-point vibrational energy     750768.2 (Joules/Mol)
                                  179.43791 (Kcal/Mol)
 Warning -- explicit consideration of  23 degrees of freedom as
           vibrations may cause significant error
 Vibrational temperatures:     20.67    44.61    65.45   118.55   145.16
          (Kelvin)            169.11   210.36   242.00   273.66   308.72
                              338.42   368.02   398.33   461.20   470.70
                              525.46   565.99   611.74   639.48   707.76
                              731.88   756.70   853.60   916.08   932.61
                             1032.46  1064.79  1118.51  1132.02  1218.72
                             1231.28  1262.44  1325.69  1387.28  1427.78
                             1433.87  1451.94  1463.53  1471.80  1503.44
                             1520.92  1528.50  1538.74  1547.54  1598.13
                             1612.31  1658.76  1698.32  1735.92  1753.13
                             1800.45  1839.41  1903.03  1934.61  1946.43
                             1955.31  1994.60  2023.11  2041.31  2082.03
                             2099.29  2116.01  2138.36  2148.67  2153.77
                             2157.60  2164.15  2172.71  2218.38  2226.04
                             2347.63  2374.32  2380.97  2406.43  4307.83
                             4392.72  4407.63  4424.99  4514.16  4519.04
                             4522.19  4546.45  4556.53  4561.32  4578.40
                             4592.85  4606.34  4631.01  4687.76  5059.53
                             5173.66  5292.23

 Zero-point correction=                           0.285953 (Hartree/Particle)
 Thermal correction to Energy=                    0.301766
 Thermal correction to Enthalpy=                  0.302711
 Thermal correction to Gibbs Free Energy=         0.240998
 Sum of electronic and zero-point Energies=           -652.565320
 Sum of electronic and thermal Energies=              -652.549506
 Sum of electronic and thermal Enthalpies=            -652.548562
 Sum of electronic and thermal Free Energies=         -652.610275

                     E (Thermal)             CV                S
                      KCal/Mol        Cal/Mol-Kelvin    Cal/Mol-Kelvin
 Total                  189.361             58.614            129.885
 Electronic               0.000              0.000              0.000
 Translational            0.889              2.981             41.874
 Rotational               0.889              2.981             32.365
 Vibrational            187.584             52.652             55.646
 Vibration     1          0.593              1.986              7.291
 Vibration     2          0.594              1.984              5.764
 Vibration     3          0.595              1.979              5.004
 Vibration     4          0.600              1.961              3.833
 Vibration     5          0.604              1.948              3.437
 Vibration     6          0.608              1.935              3.140
 Vibration     7          0.617              1.907              2.721
 Vibration     8          0.625              1.882              2.456
 Vibration     9          0.634              1.853              2.226
 Vibration    10          0.644              1.819              2.004
 Vibration    11          0.655              1.787              1.839
 Vibration    12          0.666              1.753              1.690
 Vibration    13          0.678              1.716              1.553
 Vibration    14          0.706              1.634              1.307
 Vibration    15          0.711              1.621              1.274
 Vibration    16          0.738              1.544              1.100
 Vibration    17          0.761              1.484              0.987
 Vibration    18          0.787              1.415              0.875
 Vibration    19          0.804              1.373              0.813
 Vibration    20          0.848              1.268              0.679
 Vibration    21          0.864              1.231              0.637
 Vibration    22          0.881              1.193              0.596
 Vibration    23          0.951              1.046              0.461

 Optimization completed.
    -- Stationary point found.
 Normal termination of Gaussian 16 at Sun Feb 14 09:45:37 2021.
