 Gaussian 16, Revision A.03,
 Gaussian 16:  ES64L-G16RevA.03 25-Dec-2016

 ----------------------------------------------------------------------
 # wB97XD def2tzvp, opt=(ts, noeigen, calcfc, maxcycles=70, maxstep=1),
  freq=noraman, scrf=(iefpcm, solvent=water)
 ----------------------------------------------------------------------

 -----------------------
 0_iteration/TS-49-0.out
 -----------------------
 Symbolic Z-matrix:
 Charge =  0 Multiplicity = 1

 SCF Done:  E(RwB97XD) =  -518.841454832     A.U. after   15 cycles
 SCF Done:  E(RwB97XD) =  -518.841438386     A.U. after   10 cycles
 SCF Done:  E(RwB97XD) =  -518.841425440     A.U. after   10 cycles
 SCF Done:  E(RwB97XD) =  -518.841416076     A.U. after   10 cycles
 SCF Done:  E(RwB97XD) =  -518.841410448     A.U. after   10 cycles
 SCF Done:  E(RwB97XD) =  -518.841409238     A.U. after   10 cycles
 SCF Done:  E(RwB97XD) =  -518.841414780     A.U. after   11 cycles
 SCF Done:  E(RwB97XD) =  -518.841429681     A.U. after   10 cycles
 SCF Done:  E(RwB97XD) =  -518.841459158     A.U. after   10 cycles
 SCF Done:  E(RwB97XD) =  -518.841506027     A.U. after   10 cycles
 SCF Done:  E(RwB97XD) =  -518.843512153     A.U. after   10 cycles
 SCF Done:  E(RwB97XD) =  -518.843543953     A.U. after   10 cycles
 SCF Done:  E(RwB97XD) =  -518.843569107     A.U. after   10 cycles
 SCF Done:  E(RwB97XD) =  -518.843588635     A.U. after   10 cycles
 SCF Done:  E(RwB97XD) =  -518.843601196     A.U. after   10 cycles
 SCF Done:  E(RwB97XD) =  -518.843609054     A.U. after   10 cycles
 SCF Done:  E(RwB97XD) =  -518.843608589     A.U. after   10 cycles
 SCF Done:  E(RwB97XD) =  -518.843609723     A.U. after    9 cycles
 SCF Done:  E(RwB97XD) =  -518.843609735     A.U. after    8 cycles
 Optimization completed.
    -- Stationary point found.
 Normal termination of Gaussian 16 at Sat Jan 30 20:46:22 2021.

 ---------------------------------------------------------------------
 #N Geom=AllCheck Guess=TCheck SCRF=Check GenChk RwB97XD/def2TZVP Freq
 ---------------------------------------------------------------------

 Structure from the checkpoint file:  "/beegfs/scratch/user/q/tla25/Gau-90370.chk"
 -----------------------
 0_iteration/TS-49-0.out
 -----------------------
 Charge =  0 Multiplicity = 1

                         Standard orientation:
 ---------------------------------------------------------------------
 Center     Atomic      Atomic             Coordinates (Angstroms)
 Number     Number       Type             X           Y           Z
 ---------------------------------------------------------------------
      1          6           0       -1.860613   -0.732865   -0.137003
      2          6           0       -3.156689   -0.674003    0.400636
      3          8           0       -4.143358   -1.344726    0.065817
      4          6           0       -0.852101    0.111985    0.351190
      5          6           0        0.054248    2.812246   -0.222940
      6          1           0       -0.050783    3.006208    0.843680
      7          1           0        1.063756    2.454883   -0.416751
      8          1           0       -0.110004    3.739529   -0.772699
      9          7           0       -0.899772    1.775948   -0.612075
     10          1           0       -1.858728    2.074981   -0.476621
     11          1           0       -0.797244    1.512447   -1.585811
     12          6           0        0.585163   -0.229980    0.188919
     13          6           0        1.467478   -0.001367    1.240406
     14          6           0        2.812589   -0.319412    1.118753
     15          6           0        3.293623   -0.857696   -0.064645
     16          6           0        2.422646   -1.078764   -1.124216
     17          6           0        1.078796   -0.769844   -0.997694
     18          1           0        1.096877    0.426881    2.164225
     19          1           0        3.484690   -0.141160    1.948450
     20          1           0        4.343468   -1.102049   -0.164489
     21          1           0        2.793149   -1.493747   -2.052957
     22          1           0        0.410643   -0.944336   -1.832204
     23          1           0       -1.069616    0.594463    1.300769
     24          1           0       -1.658446   -1.422465   -0.948530
     25          1           0       -3.273341    0.058736    1.230478
 ---------------------------------------------------------------------

 SCF Done:  E(RwB97XD) =  -518.843609735     A.U. after    1 cycles

 The electronic state is 1-A.
 Alpha  occ. eigenvalues --  -19.19710 -14.48337 -10.34437 -10.33545 -10.31787
 Alpha  occ. eigenvalues --  -10.30628 -10.29548 -10.29540 -10.29451 -10.29413
 Alpha  occ. eigenvalues --  -10.29352 -10.24781  -1.09679  -1.03825  -0.97450
 Alpha  occ. eigenvalues --   -0.90342  -0.85665  -0.84279  -0.78864  -0.74919
 Alpha  occ. eigenvalues --   -0.71258  -0.67930  -0.64503  -0.62904  -0.61002
 Alpha  occ. eigenvalues --   -0.57446  -0.56032  -0.55304  -0.54192  -0.52447
 Alpha  occ. eigenvalues --   -0.51917  -0.51101  -0.48427  -0.48179  -0.47335
 Alpha  occ. eigenvalues --   -0.45887  -0.45614  -0.43864  -0.43034  -0.42378
 Alpha  occ. eigenvalues --   -0.34277  -0.33831  -0.31554  -0.27550
 Alpha virt. eigenvalues --    0.02094   0.04742   0.08462   0.10414   0.12761
 Alpha virt. eigenvalues --    0.13108   0.14260   0.14615   0.16677   0.17075
 Alpha virt. eigenvalues --    0.17493   0.17906   0.19020   0.19395   0.20050

 Mulliken charges:
               1
     1  C   -0.236526
     2  C    0.096951
     3  O   -0.540642
     4  C   -0.153984
     5  C   -0.286886
     6  H    0.153167
     7  H    0.159326
     8  H    0.157848
     9  N   -0.312391
    10  H    0.279538
    11  H    0.278079
    12  C    0.207202
    13  C   -0.215998
    14  C   -0.133877
    15  C   -0.142890
    16  C   -0.142551
    17  C   -0.241460
    18  H    0.144404
    19  H    0.145689
    20  H    0.147390
    21  H    0.145853
    22  H    0.156997
    23  H    0.171515
    24  H    0.117419
    25  H    0.045828
 Sum of Mulliken charges =  -0.00000

 Dipole moment (field-independent basis, Debye):
    X=              8.8027    Y=              8.7105    Z=             -1.1414  Tot=             12.4364
 Quadrupole moment (field-independent basis, Debye-Ang):
   XX=           -105.4966   YY=            -68.7882   ZZ=            -64.2529
   XY=            -21.6108   XZ=              0.5652   YZ=              1.0387

  Exact polarizability: 252.989  19.381 162.378  -1.331  14.552 162.436
 Approx polarizability: 184.276  10.438 130.649   1.313  13.441 140.738

 ******    1 imaginary frequencies (negative Signs) ******

                      1                      2                      3
                      A                      A                      A
 Frequencies --   -347.4906                49.8264                63.3534
 Red. masses --      6.5480                 3.5055                 3.2388
 Frc consts  --      0.4658                 0.0051                 0.0077
 IR Inten    --    939.7241                 1.8379                 4.5520

                      4                      5                      6
                      A                      A                      A
 Frequencies --     85.3091               100.6707               132.0399
 Red. masses --      4.0090                 3.8991                 2.5315
 Frc consts  --      0.0172                 0.0233                 0.0260
 IR Inten    --      8.0042                10.5409                 5.6409

                      7                      8                      9
                      A                      A                      A
 Frequencies --    177.9672               222.9269               246.4763
 Red. masses --      1.3617                 2.4228                 1.9620
 Frc consts  --      0.0254                 0.0709                 0.0702
 IR Inten    --      3.8934                 5.4827                 4.4473

                     10                     11                     12
                      A                      A                      A
 Frequencies --    301.9690               316.4873               338.6480
 Red. masses --      4.8963                 3.7283                 4.3261
 Frc consts  --      0.2631                 0.2200                 0.2923
 IR Inten    --     13.2844                 2.5867                 4.6199

                     13                     14                     15
                      A                      A                      A
 Frequencies --    420.4726               433.4455               551.5829
 Red. masses --      2.8755                 4.6771                 2.4854
 Frc consts  --      0.2995                 0.5177                 0.4455
 IR Inten    --      0.7858               100.2398               106.3467

                     16                     17                     18
                      A                      A                      A
 Frequencies --    593.3823               627.4267               643.4919
 Red. masses --      2.3565                 5.3619                 5.5504
 Frc consts  --      0.4889                 1.2436                 1.3541
 IR Inten    --     16.2419                35.5481                24.8424

                     19                     20                     21
                      A                      A                      A
 Frequencies --    693.8257               725.0972               762.9282
 Red. masses --      1.8670                 1.6168                 1.3289
 Frc consts  --      0.5295                 0.5008                 0.4557
 IR Inten    --     41.5061                56.1960               241.9404

                     22                     23                     24
                      A                      A                      A
 Frequencies --    807.0058               874.6291               879.7760
 Red. masses --      2.0408                 3.6882                 1.2485
 Frc consts  --      0.7831                 1.6623                 0.5694
 IR Inten    --      6.1234                32.2911                 0.3849

                     25                     26                     27
                      A                      A                      A
 Frequencies --    962.1472              1008.9760              1016.8513
 Red. masses --      1.4385                 1.1181                 1.3576
 Frc consts  --      0.7846                 0.6707                 0.8271
 IR Inten    --      1.1126                14.1022                 1.9731

                     28                     29                     30
                      A                      A                      A
 Frequencies --   1026.5814              1032.8237              1034.0364
 Red. masses --      6.0271                 1.3061                 1.3194
 Frc consts  --      3.7423                 0.8209                 0.8312
 IR Inten    --      1.0377                19.3480                 2.5901

                     31                     32                     33
                      A                      A                      A
 Frequencies --   1038.0535              1063.4389              1071.7074
 Red. masses --      1.3613                 2.1724                 4.0978
 Frc consts  --      0.8642                 1.4475                 2.7730
 IR Inten    --     43.3338                13.4702               196.4446

                     34                     35                     36
                      A                      A                      A
 Frequencies --   1112.8379              1184.8536              1188.5370
 Red. masses --      1.6053                 1.1738                 1.1671
 Frc consts  --      1.1713                 0.9709                 0.9714
 IR Inten    --     21.9225                52.4172               200.9185

                     37                     38                     39
                      A                      A                      A
 Frequencies --   1212.7134              1217.0162              1222.3236
 Red. masses --      1.1998                 1.7271                 1.4186
 Frc consts  --      1.0396                 1.5072                 1.2488
 IR Inten    --     11.7547                55.3871                65.9461

                     40                     41                     42
                      A                      A                      A
 Frequencies --   1230.4442              1269.8385              1286.8843
 Red. masses --      1.7498                 1.8660                 2.3266
 Frc consts  --      1.5609                 1.7728                 2.2701
 IR Inten    --    130.4262                20.2284                38.3038

                     43                     44                     45
                      A                      A                      A
 Frequencies --   1336.5619              1342.8807              1367.8772
 Red. masses --      2.8405                 1.4864                 1.3921
 Frc consts  --      2.9897                 1.5793                 1.5347
 IR Inten    --     34.3837                 3.6127                45.7438

                     46                     47                     48
                      A                      A                      A
 Frequencies --   1418.0985              1462.6235              1490.9382
 Red. masses --      1.3642                 1.1799                 1.3907
 Frc consts  --      1.6164                 1.4871                 1.8214
 IR Inten    --    224.9581                 4.4594                36.7933

                     49                     50                     51
                      A                      A                      A
 Frequencies --   1493.2441              1505.2741              1530.2034
 Red. masses --      1.4802                 1.0406                 2.3969
 Frc consts  --      1.9446                 1.3893                 3.3068
 IR Inten    --     37.9376                19.1412               197.6077

                     52                     53                     54
                      A                      A                      A
 Frequencies --   1555.6380              1640.7998              1652.1890
 Red. masses --      2.7609                 1.1263                 4.9492
 Frc consts  --      3.9366                 1.7866                 7.9598
 IR Inten    --     75.7376               243.7461              1296.5286

                     55                     56                     57
                      A                      A                      A
 Frequencies --   1657.7168              1678.3602              2856.2207
 Red. masses --      5.4395                 5.8413                 1.0789
 Frc consts  --      8.8070                 9.6947                 5.1859
 IR Inten    --    244.0969                 0.6097               212.4973

                     58                     59                     60
                      A                      A                      A
 Frequencies --   3067.5121              3144.5040              3147.3922
 Red. masses --      1.0337                 1.0979                 1.0962
 Frc consts  --      5.7309                 6.3963                 6.3982
 IR Inten    --     45.7975                23.0037                16.5016

                     61                     62                     63
                      A                      A                      A
 Frequencies --   3165.3612              3186.2455              3192.5982
 Red. masses --      1.1054                 1.0888                 1.0874
 Frc consts  --      6.5254                 6.5125                 6.5303
 IR Inten    --     12.9613                15.3087                 6.2559

                     64                     65                     66
                      A                      A                      A
 Frequencies --   3196.7043              3204.9531              3213.5838
 Red. masses --      1.0878                 1.0911                 1.0950
 Frc consts  --      6.5493                 6.6032                 6.6628
 IR Inten    --      3.6683                 8.7452                35.0341

                     67                     68                     69
                      A                      A                      A
 Frequencies --   3223.6210              3520.7416              3604.9518
 Red. masses --      1.0989                 1.0508                 1.0967
 Frc consts  --      6.7281                 7.6745                 8.3971
 IR Inten    --     16.9526                21.2913                42.0011

 - Thermochemistry -
 -------------------
 Temperature   298.150 Kelvin.  Pressure   1.00000 Atm.
 Atom     1 has atomic number  6 and mass  12.00000

 Molecular mass:   163.09971 amu.
 Principal axes and moments of inertia in atomic units:
                           1         2         3
     Eigenvalues --  1247.244773395.967593963.60048
           X            0.99985  -0.01746  -0.00047
           Y            0.01746   0.99967   0.01887
           Z            0.00014  -0.01887   0.99982
 This molecule is an asymmetric top.
 Rotational symmetry number  1.
 Warning -- assumption of classical behavior for rotation
           may cause significant error
 Rotational temperatures (Kelvin)      0.06944     0.02550     0.02185
 Rotational constants (GHZ):           1.44698     0.53144     0.45533
    1 imaginary frequencies ignored.
 Zero-point vibrational energy     556775.5 (Joules/Mol)
                                  133.07254 (Kcal/Mol)
 Warning -- explicit consideration of  15 degrees of freedom as
           vibrations may cause significant error
 Vibrational temperatures:     71.69    91.15   122.74   144.84   189.98
          (Kelvin)            256.06   320.74   354.62   434.47   455.35
                              487.24   604.97   623.63   793.60   853.74
                              902.73   925.84   998.26  1043.25  1097.68
                             1161.10  1258.40  1265.80  1384.32  1451.69
                             1463.02  1477.02  1486.00  1487.75  1493.53
                             1530.05  1541.95  1601.13  1704.74  1710.04
                             1744.82  1751.01  1758.65  1770.33  1827.01
                             1851.54  1923.01  1932.11  1968.07  2040.33
                             2104.39  2145.13  2148.45  2165.75  2201.62
                             2238.22  2360.74  2377.13  2385.08  2414.79
                             4109.46  4413.47  4524.24  4528.40  4554.25
                             4584.30  4593.44  4599.34  4611.21  4623.63
                             4638.07  5065.56  5186.72

 Zero-point correction=                           0.212065 (Hartree/Particle)
 Thermal correction to Energy=                    0.223739
 Thermal correction to Enthalpy=                  0.224684
 Thermal correction to Gibbs Free Energy=         0.173456
 Sum of electronic and zero-point Energies=           -518.631545
 Sum of electronic and thermal Energies=              -518.619870
 Sum of electronic and thermal Enthalpies=            -518.618926
 Sum of electronic and thermal Free Energies=         -518.670154

                     E (Thermal)             CV                S
                      KCal/Mol        Cal/Mol-Kelvin    Cal/Mol-Kelvin
 Total                  140.399             43.064            107.817
 Electronic               0.000              0.000              0.000
 Translational            0.889              2.981             41.176
 Rotational               0.889              2.981             31.196
 Vibrational            138.621             37.103             35.445
 Vibration     1          0.595              1.978              4.824
 Vibration     2          0.597              1.972              4.350
 Vibration     3          0.601              1.959              3.765
 Vibration     4          0.604              1.949              3.441
 Vibration     5          0.612              1.921              2.916
 Vibration     6          0.628              1.869              2.350
 Vibration     7          0.649              1.806              1.935
 Vibration     8          0.661              1.769              1.756
 Vibration     9          0.694              1.670              1.406
 Vibration    10          0.703              1.642              1.328
 Vibration    11          0.719              1.598              1.219
 Vibration    12          0.783              1.426              0.890
 Vibration    13          0.794              1.397              0.847
 Vibration    14          0.907              1.136              0.541
 Vibration    15          0.951              1.046              0.461

 Optimization completed.
    -- Stationary point found.
 Normal termination of Gaussian 16 at Sat Jan 30 21:15:47 2021.
