 Gaussian 16, Revision A.03,
 Gaussian 16:  ES64L-G16RevA.03 25-Dec-2016

 ----------------------------------------------------------------------
 # wB97XD def2tzvp, opt=(ts, noeigen, calcfc, maxcycles=70, maxstep=5),
  freq=noraman, scrf=(iefpcm, solvent=water)
 ----------------------------------------------------------------------

 ------------------------
 2_iteration/TS-495-2.out
 ------------------------
 Symbolic Z-matrix:
 Charge =  0 Multiplicity = 1

 SCF Done:  E(RwB97XD) =  -652.852025875     A.U. after   14 cycles
 Optimization completed.
    -- Stationary point found.
 Normal termination of Gaussian 16 at Sun Feb 14 10:29:36 2021.

 ---------------------------------------------------------------------
 #N Geom=AllCheck Guess=TCheck SCRF=Check GenChk RwB97XD/def2TZVP Freq
 ---------------------------------------------------------------------

 Structure from the checkpoint file:  "/beegfs/scratch/user/q/tla25/Gau-20525.chk"
 ------------------------
 2_iteration/TS-495-2.out
 ------------------------
 Charge =  0 Multiplicity = 1

                         Standard orientation:
 ---------------------------------------------------------------------
 Center     Atomic      Atomic             Coordinates (Angstroms)
 Number     Number       Type             X           Y           Z
 ---------------------------------------------------------------------
      1          6           0        1.823491    0.860580   -0.723080
      2          6           0        0.422911    1.066230   -0.618700
      3          8           0       -0.094939    2.195040   -0.704980
      4          6           0        2.666121   -0.251100   -0.419680
      5          6           0        2.051771   -0.012600    2.259220
      6          1           0        1.350681    0.717880    1.857170
      7          1           0        1.558161   -0.976190    2.357340
      8          1           0        2.396601    0.315160    3.238350
      9          7           0        3.170001   -0.127469    1.323340
     10          1           0        3.727751    0.719891    1.342320
     11          1           0        3.781371   -0.898079    1.575660
     12          6           0        4.037991   -0.152939   -1.066810
     13          1           0        4.755021   -0.845059   -0.621180
     14          1           0        3.941551   -0.409469   -2.122700
     15          1           0        4.435981    0.860281   -1.002550
     16          6           0        2.159181   -1.683040   -0.444520
     17          1           0        2.969961   -2.379650   -0.229260
     18          1           0        1.367961   -1.872930    0.278930
     19          1           0        1.786191   -1.916470   -1.443510
     20          1           0        2.348191    1.786290   -0.932930
     21          7           0       -0.410829   -0.046690   -0.449360
     22          6           0       -1.781109   -0.087280   -0.217990
     23          6           0       -2.526229    0.993909    0.262570
     24          6           0       -3.883879    0.847039    0.506500
     25          6           0       -4.531039   -0.360631    0.289410
     26          6           0       -3.792339   -1.437991   -0.181460
     27          6           0       -2.438849   -1.304701   -0.434450
     28          1           0       -0.005619   -0.936310   -0.671100
     29          1           0       -2.035679    1.938650    0.431210
     30          1           0       -4.442189    1.698269    0.877760
     31          1           0       -5.590829   -0.461921    0.483850
     32          1           0       -4.272569   -2.392741   -0.357920
     33          1           0       -1.875359   -2.153670   -0.805520
 ---------------------------------------------------------------------

 SCF Done:  E(RwB97XD) =  -652.852025875     A.U. after    1 cycles

 The electronic state is 1-A.
 Alpha  occ. eigenvalues --  -19.18298 -14.49854 -14.44691 -10.36531 -10.35241
 Alpha  occ. eigenvalues --  -10.33167 -10.31907 -10.28677 -10.28580 -10.28521
 Alpha  occ. eigenvalues --  -10.28276 -10.27958 -10.27761 -10.27635 -10.23248
 Alpha  occ. eigenvalues --   -1.11045  -1.05386  -1.02344  -0.94786  -0.91507
 Alpha  occ. eigenvalues --   -0.84615  -0.84375  -0.80745  -0.79817  -0.78268
 Alpha  occ. eigenvalues --   -0.71728  -0.70650  -0.66882  -0.64263  -0.63798
 Alpha  occ. eigenvalues --   -0.61792  -0.58617  -0.57577  -0.57094  -0.55828
 Alpha  occ. eigenvalues --   -0.53068  -0.52692  -0.51523  -0.50736  -0.50166
 Alpha  occ. eigenvalues --   -0.49794  -0.49370  -0.48247  -0.48021  -0.46245
 Alpha  occ. eigenvalues --   -0.45539  -0.44370  -0.44310  -0.42547  -0.42237
 Alpha  occ. eigenvalues --   -0.42109  -0.38417  -0.33548  -0.32198  -0.29393
 Alpha  occ. eigenvalues --   -0.25502
 Alpha virt. eigenvalues --    0.05636   0.05796   0.09460   0.09877   0.12070
 Alpha virt. eigenvalues --    0.13527   0.14040   0.14338   0.15637   0.15930
 Alpha virt. eigenvalues --    0.16991   0.17462   0.17812   0.18556   0.18736

 Mulliken charges:
               1
     1  C   -0.520269
     2  C    0.325319
     3  O   -0.577056
     4  C    0.158996
     5  C   -0.308510
     6  H    0.157624
     7  H    0.159005
     8  H    0.164171
     9  N   -0.245484
    10  H    0.284128
    11  H    0.289524
    12  C   -0.346300
    13  H    0.136230
    14  H    0.140589
    15  H    0.143458
    16  C   -0.454760
    17  H    0.155247
    18  H    0.142820
    19  H    0.163980
    20  H    0.091725
    21  N   -0.256213
    22  C    0.298260
    23  C   -0.311276
    24  C   -0.095529
    25  C   -0.209769
    26  C   -0.102873
    27  C   -0.313106
    28  H    0.232350
    29  H    0.143479
    30  H    0.138108
    31  H    0.137249
    32  H    0.139738
    33  H    0.139145
 Sum of Mulliken charges =  -0.00000

 Dipole moment (field-independent basis, Debye):
    X=              9.8129    Y=             -7.8887    Z=              5.8059  Tot=             13.8648
 Quadrupole moment (field-independent basis, Debye-Ang):
   XX=            -61.3189   YY=            -97.8903   ZZ=            -88.8579
   XY=             -2.8626   XZ=             10.9916   YZ=              7.6800

  Exact polarizability: 305.556  -5.570 222.870  -7.629   5.144 176.631
 Approx polarizability: 218.279  -5.322 189.035  -5.708   5.320 148.027

 ******    1 imaginary frequencies (negative Signs) ******

                      1                      2                      3
                      A                      A                      A
 Frequencies --   -346.9322                25.3953                30.7817
 Red. masses --      5.3453                 3.7861                 3.9529
 Frc consts  --      0.3791                 0.0014                 0.0022
 IR Inten    --    898.0080                 2.2942                 4.7124

                      4                      5                      6
                      A                      A                      A
 Frequencies --     62.5967                76.2777               112.3317
 Red. masses --      4.6373                 2.0926                 3.3120
 Frc consts  --      0.0107                 0.0072                 0.0246
 IR Inten    --      3.3889                 1.4629                14.3058

                      7                      8                      9
                      A                      A                      A
 Frequencies --    119.9071               195.5923               226.3522
 Red. masses --      4.6543                 4.3877                 1.1762
 Frc consts  --      0.0394                 0.0989                 0.0355
 IR Inten    --      2.3751                11.6058                 1.1019

                     10                     11                     12
                      A                      A                      A
 Frequencies --    245.9638               264.2573               266.8324
 Red. masses --      3.1625                 2.3465                 1.1655
 Frc consts  --      0.1127                 0.0965                 0.0489
 IR Inten    --      0.7519                 4.8836                 4.4800

                     13                     14                     15
                      A                      A                      A
 Frequencies --    285.9720               321.2786               339.5119
 Red. masses --      2.9088                 2.4307                 1.3802
 Frc consts  --      0.1402                 0.1478                 0.0937
 IR Inten    --      3.4090                 0.1728                14.4029

                     16                     17                     18
                      A                      A                      A
 Frequencies --    360.3915               385.5736               390.5706
 Red. masses --      4.6295                 3.2208                 2.2952
 Frc consts  --      0.3543                 0.2821                 0.2063
 IR Inten    --      1.2343                11.6295                20.0758

                     19                     20                     21
                      A                      A                      A
 Frequencies --    425.8821               493.8406               512.5945
 Red. masses --      3.0023                 1.7411                 1.8660
 Frc consts  --      0.3208                 0.2502                 0.2889
 IR Inten    --      0.1939                15.6548               119.8017

                     22                     23                     24
                      A                      A                      A
 Frequencies --    526.0531               546.8891               569.5230
 Red. masses --      2.6725                 3.3883                 3.1236
 Frc consts  --      0.4357                 0.5971                 0.5969
 IR Inten    --      6.1912                14.6611                82.7767

                     25                     26                     27
                      A                      A                      A
 Frequencies --    636.0974               684.0842               713.7790
 Red. masses --      6.2644                 1.3211                 3.1313
 Frc consts  --      1.4934                 0.3642                 0.9399
 IR Inten    --      4.7862                59.4757                29.2589

                     28                     29                     30
                      A                      A                      A
 Frequencies --    718.3832               733.2547               776.8260
 Red. masses --      1.9508                 1.9363                 1.9872
 Frc consts  --      0.5932                 0.6134                 0.7065
 IR Inten    --     64.0611                28.2288                54.2689

                     31                     32                     33
                      A                      A                      A
 Frequencies --    787.4572               855.3484               859.3489
 Red. masses --      3.5804                 2.5874                 1.4425
 Frc consts  --      1.3081                 1.1153                 0.6276
 IR Inten    --    113.3114                18.5255                 3.8584

                     34                     35                     36
                      A                      A                      A
 Frequencies --    887.7198               925.1727               958.2218
 Red. masses --      4.6668                 1.5173                 1.4606
 Frc consts  --      2.1668                 0.7652                 0.7901
 IR Inten    --      9.0307                12.3760                 7.0817

                     37                     38                     39
                      A                      A                      A
 Frequencies --    976.2869               997.7814              1010.2758
 Red. masses --      2.7832                 1.3349                 1.2752
 Frc consts  --      1.5630                 0.7830                 0.7668
 IR Inten    --     29.8827                 0.0686                 0.5095

                     40                     41                     42
                      A                      A                      A
 Frequencies --   1018.7561              1026.3886              1035.3500
 Red. masses --      5.7324                 1.2353                 1.1875
 Frc consts  --      3.5053                 0.7668                 0.7500
 IR Inten    --     16.1042                14.1346                54.0933

                     43                     44                     45
                      A                      A                      A
 Frequencies --   1060.5323              1066.5810              1075.5268
 Red. masses --      2.2356                 2.5458                 1.3883
 Frc consts  --      1.4815                 1.7063                 0.9462
 IR Inten    --     34.2569                48.7469                55.8810

                     46                     47                     48
                      A                      A                      A
 Frequencies --   1083.9010              1122.6444              1124.7889
 Red. masses --      1.4536                 1.6655                 1.7258
 Frc consts  --      1.0062                 1.2367                 1.2864
 IR Inten    --     98.4436                29.6085                23.7966

                     49                     50                     51
                      A                      A                      A
 Frequencies --   1180.9757              1209.5293              1213.2074
 Red. masses --      1.1147                 1.6727                 1.5119
 Frc consts  --      0.9160                 1.4417                 1.3111
 IR Inten    --      6.0483                32.9993                11.0362

                     52                     53                     54
                      A                      A                      A
 Frequencies --   1265.8266              1270.1745              1313.6179
 Red. masses --      1.5661                 1.7587                 3.0086
 Frc consts  --      1.4785                 1.6718                 3.0588
 IR Inten    --    292.6833               348.1002               179.5900

                     55                     56                     57
                      A                      A                      A
 Frequencies --   1338.6258              1346.4820              1362.8260
 Red. masses --      2.4788                 2.1332                 1.5778
 Frc consts  --      2.6170                 2.2787                 1.7265
 IR Inten    --    329.4886               292.9081                60.3680

                     58                     59                     60
                      A                      A                      A
 Frequencies --   1366.5385              1413.5139              1429.4129
 Red. masses --      1.6617                 1.3444                 1.2341
 Frc consts  --      1.8283                 1.5827                 1.4857
 IR Inten    --     59.0753                37.3513                29.0916

                     61                     62                     63
                      A                      A                      A
 Frequencies --   1447.6090              1462.0500              1467.2075
 Red. masses --      2.0659                 1.4457                 1.7559
 Frc consts  --      2.5507                 1.8207                 2.2271
 IR Inten    --    425.2054               198.8587               122.5014

                     64                     65                     66
                      A                      A                      A
 Frequencies --   1487.6982              1490.7750              1496.5011
 Red. masses --      1.0539                 1.0579                 1.0470
 Frc consts  --      1.3743                 1.3852                 1.3816
 IR Inten    --      5.2144                 9.4340                12.8711

                     67                     68                     69
                      A                      A                      A
 Frequencies --   1510.4837              1512.6401              1531.6651
 Red. masses --      1.0418                 1.1357                 1.1528
 Frc consts  --      1.4004                 1.5310                 1.5934
 IR Inten    --     10.8956                69.0666                32.3498

                     70                     71                     72
                      A                      A                      A
 Frequencies --   1546.9290              1550.9641              1632.7409
 Red. masses --      2.4476                 1.8932                 4.1389
 Frc consts  --      3.4509                 2.6832                 6.5008
 IR Inten    --    305.6791               107.7863              1244.8977

                     73                     74                     75
                      A                      A                      A
 Frequencies --   1645.5732              1658.6327              1673.5736
 Red. masses --      1.1389                 4.0360                 5.8794
 Frc consts  --      1.8170                 6.5419                 9.7022
 IR Inten    --     34.6422               146.1098               214.9830

                     76                     77                     78
                      A                      A                      A
 Frequencies --   3054.4758              3064.0950              3079.7412
 Red. masses --      1.0361                 1.0374                 1.0327
 Frc consts  --      5.6954                 5.7388                 5.7710
 IR Inten    --     32.7929                18.3273                29.3093

                     79                     80                     81
                      A                      A                      A
 Frequencies --   3129.5583              3134.1363              3139.9513
 Red. masses --      1.1022                 1.1017                 1.1031
 Frc consts  --      6.3603                 6.3762                 6.4079
 IR Inten    --     22.1835                51.6208                23.2853

                     82                     83                     84
                      A                      A                      A
 Frequencies --   3151.3473              3160.7987              3175.1312
 Red. masses --      1.1019                 1.1051                 1.0856
 Frc consts  --      6.4475                 6.5052                 6.4481
 IR Inten    --     24.0378                 4.2064                29.6195

                     85                     86                     87
                      A                      A                      A
 Frequencies --   3178.6979              3182.0748              3192.0887
 Red. masses --      1.1056                 1.0877                 1.0882
 Frc consts  --      6.5818                 6.4891                 6.5327
 IR Inten    --     14.5386                18.5553                 4.1894

                     88                     89                     90
                      A                      A                      A
 Frequencies --   3202.0776              3218.5645              3275.3376
 Red. masses --      1.0929                 1.0977                 1.0912
 Frc consts  --      6.6023                 6.7000                 6.8969
 IR Inten    --     34.9027                25.6166                 1.5129

                     91                     92                     93
                      A                      A                      A
 Frequencies --   3506.7715              3587.1224              3695.0003
 Red. masses --      1.0512                 1.0958                 1.0753
 Frc consts  --      7.6165                 8.3075                 8.6498
 IR Inten    --     40.1578                44.7480                76.5569

 - Thermochemistry -
 -------------------
 Temperature   298.150 Kelvin.  Pressure   1.00000 Atm.
 Atom     1 has atomic number  6 and mass  12.00000

 Molecular mass:   206.14191 amu.
 Principal axes and moments of inertia in atomic units:
                           1         2         3
     Eigenvalues --  1464.049356141.468806402.04643
           X            0.99999  -0.00481  -0.00044
           Y            0.00483   0.99613   0.08773
           Z            0.00002  -0.08773   0.99614
 This molecule is an asymmetric top.
 Rotational symmetry number  1.
 Warning -- assumption of classical behavior for rotation
           may cause significant error
 Rotational temperatures (Kelvin)      0.05916     0.01410     0.01353
 Rotational constants (GHZ):           1.23271     0.29386     0.28190
    1 imaginary frequencies ignored.
 Zero-point vibrational energy     752879.5 (Joules/Mol)
                                  179.94251 (Kcal/Mol)
 Warning -- explicit consideration of  23 degrees of freedom as
           vibrations may cause significant error
 Vibrational temperatures:     36.54    44.29    90.06   109.75   161.62
          (Kelvin)            172.52   281.41   325.67   353.89   380.21
                              383.91   411.45   462.25   488.48   518.52
                              554.75   561.94   612.75   710.53   737.51
                              756.87   786.85   819.42   915.20   984.24
                             1026.97  1033.59  1054.99  1117.68  1132.98
                             1230.66  1236.41  1277.23  1331.12  1378.67
                             1404.66  1435.58  1453.56  1465.76  1476.74
                             1489.64  1525.87  1534.57  1547.44  1559.49
                             1615.23  1618.32  1699.16  1740.24  1745.53
                             1821.24  1827.50  1890.00  1925.98  1937.29
                             1960.80  1966.14  2033.73  2056.61  2082.79
                             2103.56  2110.98  2140.47  2144.89  2153.13
                             2173.25  2176.35  2203.72  2225.69  2231.49
                             2349.15  2367.61  2386.40  2407.90  4394.71
                             4408.55  4431.06  4502.74  4509.32  4517.69
                             4534.09  4547.68  4568.31  4573.44  4578.30
                             4592.70  4607.08  4630.80  4712.48  5045.46
                             5161.07  5316.28

 Zero-point correction=                           0.286757 (Hartree/Particle)
 Thermal correction to Energy=                    0.301949
 Thermal correction to Enthalpy=                  0.302893
 Thermal correction to Gibbs Free Energy=         0.243440
 Sum of electronic and zero-point Energies=           -652.565269
 Sum of electronic and thermal Energies=              -652.550077
 Sum of electronic and thermal Enthalpies=            -652.549133
 Sum of electronic and thermal Free Energies=         -652.608586

                     E (Thermal)             CV                S
                      KCal/Mol        Cal/Mol-Kelvin    Cal/Mol-Kelvin
 Total                  189.476             58.227            125.129
 Electronic               0.000              0.000              0.000
 Translational            0.889              2.981             41.874
 Rotational               0.889              2.981             32.421
 Vibrational            187.698             52.265             50.834
 Vibration     1          0.593              1.985              6.160
 Vibration     2          0.594              1.984              5.778
 Vibration     3          0.597              1.972              4.374
 Vibration     4          0.599              1.965              3.984
 Vibration     5          0.607              1.939              3.228
 Vibration     6          0.609              1.933              3.102
 Vibration     7          0.636              1.846              2.174
 Vibration     8          0.650              1.801              1.908
 Vibration     9          0.660              1.769              1.759
 Vibration    10          0.671              1.738              1.633
 Vibration    11          0.672              1.734              1.617
 Vibration    12          0.684              1.700              1.498
 Vibration    13          0.707              1.633              1.304
 Vibration    14          0.719              1.597              1.214
 Vibration    15          0.735              1.554              1.120
 Vibration    16          0.754              1.501              1.017
 Vibration    17          0.758              1.490              0.998
 Vibration    18          0.788              1.414              0.872
 Vibration    19          0.849              1.264              0.674
 Vibration    20          0.868              1.222              0.627
 Vibration    21          0.881              1.192              0.596
 Vibration    22          0.902              1.146              0.551
 Vibration    23          0.926              1.097              0.505

 Optimization completed.
    -- Stationary point found.
 Normal termination of Gaussian 16 at Sun Feb 14 11:33:14 2021.
