 Gaussian 16, Revision A.03,
 Gaussian 16:  ES64L-G16RevA.03 25-Dec-2016

 ----------------------------------------------------------------------
 # wB97XD def2tzvp, opt=(ts, noeigen, calcfc, maxcycles=70, maxstep=8),
  freq=noraman, scrf=(iefpcm, solvent=water)
 ----------------------------------------------------------------------

 ------------------------
 1_iteration/TS-469-1.out
 ------------------------
 Symbolic Z-matrix:
 Charge =  0 Multiplicity = 1

 SCF Done:  E(RwB97XD) =  -2995.41961567     A.U. after   14 cycles
 SCF Done:  E(RwB97XD) =  -2995.41961564     A.U. after    8 cycles
 Optimization completed.
    -- Stationary point found.
 Normal termination of Gaussian 16 at Sat Feb 13 22:51:09 2021.

 ---------------------------------------------------------------------
 #N Geom=AllCheck Guess=TCheck SCRF=Check GenChk RwB97XD/def2TZVP Freq
 ---------------------------------------------------------------------

 Structure from the checkpoint file:  "/beegfs/scratch/user/q/tla25/Gau-28022.chk"
 ------------------------
 1_iteration/TS-469-1.out
 ------------------------
 Charge =  0 Multiplicity = 1

                         Standard orientation:
 ---------------------------------------------------------------------
 Center     Atomic      Atomic             Coordinates (Angstroms)
 Number     Number       Type             X           Y           Z
 ---------------------------------------------------------------------
      1          6           0       -0.012140   -0.019317   -0.504852
      2          6           0        1.237354   -0.709824   -0.339856
      3          8           0        1.316021   -1.936141   -0.563559
      4          6           0       -1.135826   -0.727573   -0.942665
      5          6           0       -1.931667   -1.344936    1.681678
      6          1           0       -2.867765   -0.792183    1.632022
      7          1           0       -1.998467   -2.091467    2.473177
      8          1           0       -1.121339   -0.653847    1.912151
      9          7           0       -1.657715   -1.955353    0.385677
     10          1           0       -0.809747   -2.513883    0.412800
     11          1           0       -2.421026   -2.542770    0.069831
     12          6           0       -2.429620   -0.046755   -1.283761
     13          1           0       -2.797814    0.562173   -0.458577
     14          1           0       -2.270219    0.615107   -2.136797
     15          1           0       -3.193746   -0.773719   -1.555256
     16          1           0       -0.872583   -1.535283   -1.617657
     17         35           0       -0.207238    1.760384    0.196167
     18          7           0        2.335622   -0.026846    0.078348
     19          6           0        3.627410   -0.657884    0.193110
     20          1           0        2.283318    0.973036    0.145053
     21          1           0        4.318994    0.047093    0.650613
     22          1           0        3.568254   -1.545635    0.823678
     23          1           0        4.028891   -0.959821   -0.778503
 ---------------------------------------------------------------------

 SCF Done:  E(RwB97XD) =  -2995.41961564     A.U. after    1 cycles

 The electronic state is 1-A.
 Alpha  occ. eigenvalues -- -483.11872 -62.66706 -56.45797 -56.45485 -56.45471
 Alpha  occ. eigenvalues --  -19.19437 -14.47912 -14.43996 -10.37088 -10.33742
 Alpha  occ. eigenvalues --  -10.31469 -10.30437 -10.28992 -10.28132  -8.80821
 Alpha  occ. eigenvalues --   -6.62891  -6.61894  -6.61849  -2.73294  -2.73009
 Alpha  occ. eigenvalues --   -2.72972  -2.72166  -2.72165  -1.11925  -1.03536
 Alpha  occ. eigenvalues --   -1.00696  -0.92144  -0.85959  -0.80992  -0.78791
 Alpha  occ. eigenvalues --   -0.77315  -0.68496  -0.64548  -0.62693  -0.59565
 Alpha  occ. eigenvalues --   -0.57500  -0.54826  -0.54226  -0.52987  -0.51211
 Alpha  occ. eigenvalues --   -0.49840  -0.49208  -0.47574  -0.46725  -0.46430
 Alpha  occ. eigenvalues --   -0.46242  -0.43160  -0.41363  -0.38984  -0.37379
 Alpha  occ. eigenvalues --   -0.33546  -0.32773  -0.25850
 Alpha virt. eigenvalues --    0.07241   0.09236   0.10350   0.13047   0.13583
 Alpha virt. eigenvalues --    0.14814   0.15846   0.16222   0.16732   0.18246
 Alpha virt. eigenvalues --    0.19028   0.19741   0.20300   0.20693   0.21177

 Mulliken charges:
               1
     1  C   -0.311669
     2  C    0.394211
     3  O   -0.594186
     4  C    0.039922
     5  C   -0.302718
     6  H    0.155280
     7  H    0.153921
     8  H    0.152072
     9  N   -0.309061
    10  H    0.277123
    11  H    0.280524
    12  C   -0.370026
    13  H    0.139739
    14  H    0.150191
    15  H    0.141044
    16  H    0.146288
    17  Br  -0.193540
    18  N   -0.335480
    19  C   -0.245925
    20  H    0.248107
    21  H    0.137818
    22  H    0.125444
    23  H    0.120922
 Sum of Mulliken charges =  -0.00000

 Dipole moment (field-independent basis, Debye):
    X=             -4.8971    Y=             -1.9706    Z=              2.1540  Tot=              5.7013
 Quadrupole moment (field-independent basis, Debye-Ang):
   XX=            -58.7077   YY=            -74.8761   ZZ=            -73.4317
   XY=             16.2022   XZ=              1.9851   YZ=             -4.2031

  Exact polarizability: 182.973   8.494 166.945   0.834   3.384 127.842
 Approx polarizability: 135.967   5.489 140.034   0.906   4.911 109.494

 ******    1 imaginary frequencies (negative Signs) ******

                      1                      2                      3
                      A                      A                      A
 Frequencies --   -381.5139                32.3008                48.9597
 Red. masses --      5.6189                 3.2203                 2.2846
 Frc consts  --      0.4819                 0.0020                 0.0032
 IR Inten    --    787.9583                18.4587                 9.9618

                      4                      5                      6
                      A                      A                      A
 Frequencies --     76.4752                93.2236               114.0966
 Red. masses --      3.6377                 2.3113                 2.5000
 Frc consts  --      0.0125                 0.0118                 0.0192
 IR Inten    --     41.5806                 2.4729                33.6760

                      7                      8                      9
                      A                      A                      A
 Frequencies --    134.9700               161.5442               181.0483
 Red. masses --      1.7029                 3.6639                 2.5488
 Frc consts  --      0.0183                 0.0563                 0.0492
 IR Inten    --      0.5145                 7.3127                 1.9867

                     10                     11                     12
                      A                      A                      A
 Frequencies --    199.0319               232.1175               246.0349
 Red. masses --      1.2865                 1.7804                 1.6071
 Frc consts  --      0.0300                 0.0565                 0.0573
 IR Inten    --      4.1742                 1.4197                 4.9068

                     13                     14                     15
                      A                      A                      A
 Frequencies --    279.5164               309.1515               381.5200
 Red. masses --      2.9459                 3.5639                 1.7709
 Frc consts  --      0.1356                 0.2007                 0.1519
 IR Inten    --     32.7353                 4.1252                53.8053

                     16                     17                     18
                      A                      A                      A
 Frequencies --    398.9129               416.7450               468.0617
 Red. masses --      3.7527                 2.3379                 3.8296
 Frc consts  --      0.3518                 0.2392                 0.4943
 IR Inten    --     37.1563                66.7834                57.4766

                     19                     20                     21
                      A                      A                      A
 Frequencies --    588.2811               710.2116               754.9587
 Red. masses --      2.8647                 1.5246                 4.5453
 Frc consts  --      0.5841                 0.4531                 1.5264
 IR Inten    --      5.2204                78.5839                22.1052

                     22                     23                     24
                      A                      A                      A
 Frequencies --    780.1685               957.1226               971.6874
 Red. masses --      7.1271                 1.5704                 3.1272
 Frc consts  --      2.5559                 0.8476                 1.7397
 IR Inten    --     28.2992                18.6606                11.1950

                     25                     26                     27
                      A                      A                      A
 Frequencies --   1011.4242              1017.0967              1053.1543
 Red. masses --      1.3258                 1.2439                 1.2888
 Frc consts  --      0.7991                 0.7582                 0.8422
 IR Inten    --    129.9261                14.1043                85.4508

                     28                     29                     30
                      A                      A                      A
 Frequencies --   1057.4319              1146.2668              1155.9383
 Red. masses --      2.3865                 2.3152                 1.2908
 Frc consts  --      1.5723                 1.7923                 1.0162
 IR Inten    --     95.1125                13.9394                 7.0084

                     31                     32                     33
                      A                      A                      A
 Frequencies --   1169.2414              1184.7316              1222.8038
 Red. masses --      2.9592                 1.8950                 1.4008
 Frc consts  --      2.3836                 1.5671                 1.2341
 IR Inten    --     78.2824                12.7308                42.3197

                     34                     35                     36
                      A                      A                      A
 Frequencies --   1229.5030              1278.8842              1324.2344
 Red. masses --      1.4831                 1.2734                 2.2577
 Frc consts  --      1.3209                 1.2271                 2.3326
 IR Inten    --    112.8141                22.2684               353.9336

                     37                     38                     39
                      A                      A                      A
 Frequencies --   1351.4779              1411.4989              1451.2694
 Red. masses --      1.3044                 1.2759                 1.5042
 Frc consts  --      1.4037                 1.4977                 1.8666
 IR Inten    --      6.6315                28.0119               219.5810

                     40                     41                     42
                      A                      A                      A
 Frequencies --   1454.6290              1464.8743              1477.7439
 Red. masses --      1.2627                 1.3734                 1.0648
 Frc consts  --      1.5742                 1.7364                 1.3700
 IR Inten    --     10.7275                96.4612                23.0801

                     43                     44                     45
                      A                      A                      A
 Frequencies --   1488.2746              1491.8102              1497.1814
 Red. masses --      1.0511                 1.1004                 1.3047
 Frc consts  --      1.3718                 1.4428                 1.7231
 IR Inten    --     12.8433                33.4352               125.5929

                     46                     47                     48
                      A                      A                      A
 Frequencies --   1508.2501              1509.4579              1561.7814
 Red. masses --      1.0336                 1.0958                 2.1004
 Frc consts  --      1.3854                 1.4710                 3.0186
 IR Inten    --     10.0093                29.9447               744.3940

                     49                     50                     51
                      A                      A                      A
 Frequencies --   1610.4651              1652.3171              3039.6330
 Red. masses --      5.2396                 1.1124                 1.0420
 Frc consts  --      8.0067                 1.7894                 5.6721
 IR Inten    --    470.9106                19.9391               100.9119

                     52                     53                     54
                      A                      A                      A
 Frequencies --   3066.0838              3068.1160              3105.9085
 Red. masses --      1.0364                 1.0333                 1.0958
 Frc consts  --      5.7403                 5.7307                 6.2281
 IR Inten    --     17.1376                37.5219                45.1348

                     55                     56                     57
                      A                      A                      A
 Frequencies --   3137.9649              3144.4859              3148.5825
 Red. masses --      1.1007                 1.1047                 1.1006
 Frc consts  --      6.3856                 6.4357                 6.4286
 IR Inten    --     19.1592                13.6717                14.8152

                     58                     59                     60
                      A                      A                      A
 Frequencies --   3152.9139              3163.8159              3167.4722
 Red. masses --      1.1026                 1.1051                 1.0924
 Frc consts  --      6.4580                 6.5175                 6.4576
 IR Inten    --     25.2641                18.2213                24.0374

                     61                     62                     63
                      A                      A                      A
 Frequencies --   3496.0144              3588.5413              3677.4303
 Red. masses --      1.0533                 1.0948                 1.0776
 Frc consts  --      7.5851                 8.3065                 8.5863
 IR Inten    --     35.6997                63.2220                68.0822

 - Thermochemistry -
 -------------------
 Temperature   298.150 Kelvin.  Pressure   1.00000 Atm.
 Atom     1 has atomic number  6 and mass  12.00000

 Molecular mass:   208.02112 amu.
 Principal axes and moments of inertia in atomic units:
                           1         2         3
     Eigenvalues --  1867.292842341.347863469.09000
           X            0.99526   0.09701   0.00697
           Y           -0.09674   0.99480  -0.03179
           Z           -0.01002   0.03096   0.99947
 This molecule is an asymmetric top.
 Rotational symmetry number  1.
 Warning -- assumption of classical behavior for rotation
           may cause significant error
 Rotational temperatures (Kelvin)      0.04638     0.03699     0.02497
 Rotational constants (GHZ):           0.96650     0.77081     0.52023
    1 imaginary frequencies ignored.
 Zero-point vibrational energy     510056.8 (Joules/Mol)
                                  121.90651 (Kcal/Mol)
 Warning -- explicit consideration of  18 degrees of freedom as
           vibrations may cause significant error
 Vibrational temperatures:     46.47    70.44   110.03   134.13   164.16
          (Kelvin)            194.19   232.43   260.49   286.36   333.97
                              353.99   402.16   444.80   548.92   573.95
                              599.60   673.44   846.41  1021.84  1086.22
                             1122.49  1377.09  1398.04  1455.21  1463.38
                             1515.25  1521.41  1649.22  1663.14  1682.28
                             1704.56  1759.34  1768.98  1840.03  1905.28
                             1944.48  2030.83  2088.05  2092.89  2107.63
                             2126.14  2141.30  2146.38  2154.11  2170.04
                             2171.77  2247.06  2317.10  2377.32  4373.35
                             4411.41  4414.33  4468.71  4514.83  4524.21
                             4530.11  4536.34  4552.03  4557.29  5029.98
                             5163.11  5291.00

 Zero-point correction=                           0.194270 (Hartree/Particle)
 Thermal correction to Energy=                    0.207404
 Thermal correction to Enthalpy=                  0.208348
 Thermal correction to Gibbs Free Energy=         0.152939
 Sum of electronic and zero-point Energies=          -2995.225345
 Sum of electronic and thermal Energies=             -2995.212211
 Sum of electronic and thermal Enthalpies=           -2995.211267
 Sum of electronic and thermal Free Energies=        -2995.266676

                     E (Thermal)             CV                S
                      KCal/Mol        Cal/Mol-Kelvin    Cal/Mol-Kelvin
 Total                  130.148             44.130            116.618
 Electronic               0.000              0.000              0.000
 Translational            0.889              2.981             41.901
 Rotational               0.889              2.981             31.095
 Vibrational            128.371             38.169             43.621
 Vibration     1          0.594              1.983              5.683
 Vibration     2          0.595              1.978              4.859
 Vibration     3          0.599              1.965              3.979
 Vibration     4          0.602              1.954              3.591
 Vibration     5          0.607              1.938              3.198
 Vibration     6          0.613              1.918              2.874
 Vibration     7          0.622              1.890              2.532
 Vibration     8          0.630              1.865              2.318
 Vibration     9          0.637              1.841              2.142
 Vibration    10          0.653              1.792              1.863
 Vibration    11          0.661              1.769              1.759
 Vibration    12          0.680              1.711              1.537
 Vibration    13          0.699              1.656              1.367
 Vibration    14          0.751              1.510              1.033
 Vibration    15          0.765              1.472              0.967
 Vibration    16          0.780              1.434              0.903
 Vibration    17          0.825              1.321              0.743
 Vibration    18          0.945              1.057              0.470

 Optimization completed.
    -- Stationary point found.
 Normal termination of Gaussian 16 at Sat Feb 13 23:09:32 2021.
