 Gaussian 16, Revision A.03,
 Gaussian 16:  ES64L-G16RevA.03 25-Dec-2016

 ----------------------------------------------------------------------
 # wB97XD def2tzvp, opt=(ts, noeigen, calcfc, maxcycles=70, maxstep=8),
  freq=noraman, scrf=(iefpcm, solvent=water)
 ----------------------------------------------------------------------

 ------------------------
 1_iteration/TS-417-1.out
 ------------------------
 Symbolic Z-matrix:
 Charge =  0 Multiplicity = 1

 SCF Done:  E(RwB97XD) =  -597.468941306     A.U. after   15 cycles
 Optimization completed.
    -- Stationary point found.
 Normal termination of Gaussian 16 at Sun Feb 14 04:41:32 2021.

 ---------------------------------------------------------------------
 #N Geom=AllCheck Guess=TCheck SCRF=Check GenChk RwB97XD/def2TZVP Freq
 ---------------------------------------------------------------------

 Structure from the checkpoint file:  "/beegfs/scratch/user/q/tla25/Gau-91199.chk"
 ------------------------
 1_iteration/TS-417-1.out
 ------------------------
 Charge =  0 Multiplicity = 1

                         Standard orientation:
 ---------------------------------------------------------------------
 Center     Atomic      Atomic             Coordinates (Angstroms)
 Number     Number       Type             X           Y           Z
 ---------------------------------------------------------------------
      1          6           0       -1.459541    0.662942    0.288391
      2          6           0       -1.341530    1.518652   -0.813089
      3          8           0       -2.113599    2.439962   -1.152029
      4          6           0       -0.511572   -0.396479    0.465271
      5          6           0       -2.372623   -1.884017   -0.977439
      6          1           0       -2.800282   -0.900427   -1.161369
      7          1           0       -2.577704   -2.534987   -1.825869
      8          1           0       -2.817153   -2.310127   -0.080939
      9          7           0       -0.931373   -1.732379   -0.777739
     10          1           0       -0.519754   -2.621699   -0.516949
     11          1           0       -0.487513   -1.429079   -1.638519
     12          6           0       -0.644262   -1.204659    1.743131
     13          1           0       -0.401702   -0.557569    2.587981
     14          1           0       -1.657773   -1.576418    1.887991
     15          1           0        0.050717   -2.043790    1.756631
     16          6           0        0.952309   -0.131770    0.154001
     17          6           0        1.835138   -1.128111   -0.263199
     18          6           0        3.184788   -0.864752   -0.441539
     19          6           0        3.691749    0.399097   -0.183279
     20          6           0        2.834090    1.392158    0.263211
     21          6           0        1.483700    1.127459    0.431481
     22          1           0        1.494667   -2.137191   -0.451519
     23          1           0        3.841097   -1.656833   -0.778949
     24          1           0        4.745629    0.604626   -0.320609
     25          1           0        3.214481    2.381548    0.483991
     26          1           0        0.825440    1.907250    0.787761
     27          6           0       -2.662411    0.785203    1.187251
     28          1           0       -3.347671   -0.067287    1.120351
     29          1           0       -2.391310    0.889653    2.242091
     30          1           0       -3.223960    1.673823    0.899371
     31          1           0       -0.457820    1.331131   -1.456159
 ---------------------------------------------------------------------

 SCF Done:  E(RwB97XD) =  -597.468941306     A.U. after    1 cycles

 The electronic state is 1-A.
 Alpha  occ. eigenvalues --  -19.18498 -14.49639 -10.35701 -10.32081 -10.31881
 Alpha  occ. eigenvalues --  -10.30821 -10.29659 -10.29344 -10.29226 -10.29170
 Alpha  occ. eigenvalues --  -10.29096 -10.28356 -10.26103 -10.24459  -1.08219
 Alpha  occ. eigenvalues --   -1.05154  -0.97449  -0.91986  -0.85746  -0.85128
 Alpha  occ. eigenvalues --   -0.82366  -0.79329  -0.76769  -0.71525  -0.70547
 Alpha  occ. eigenvalues --   -0.67297  -0.63997  -0.62702  -0.59371  -0.57631
 Alpha  occ. eigenvalues --   -0.57222  -0.55978  -0.53702  -0.53421  -0.51373
 Alpha  occ. eigenvalues --   -0.50890  -0.49827  -0.49304  -0.47804  -0.47625
 Alpha  occ. eigenvalues --   -0.47069  -0.46511  -0.45494  -0.43970  -0.43463
 Alpha  occ. eigenvalues --   -0.43017  -0.41758  -0.41278  -0.34121  -0.33820
 Alpha  occ. eigenvalues --   -0.30274  -0.25888
 Alpha virt. eigenvalues --    0.03493   0.04851   0.07585   0.09640   0.12403
 Alpha virt. eigenvalues --    0.13357   0.13973   0.14874   0.15445   0.16070
 Alpha virt. eigenvalues --    0.16842   0.17468   0.17967   0.18464   0.18983

 Mulliken charges:
               1
     1  C   -0.144833
     2  C    0.045525
     3  O   -0.574451
     4  C    0.140583
     5  C   -0.331655
     6  H    0.172620
     7  H    0.165338
     8  H    0.163687
     9  N   -0.283468
    10  H    0.285728
    11  H    0.289187
    12  C   -0.401768
    13  H    0.158050
    14  H    0.145743
    15  H    0.152165
    16  C    0.233214
    17  C   -0.260692
    18  C   -0.166455
    19  C   -0.146375
    20  C   -0.128399
    21  C   -0.259306
    22  H    0.140841
    23  H    0.144222
    24  H    0.145712
    25  H    0.144081
    26  H    0.163705
    27  C   -0.422164
    28  H    0.121975
    29  H    0.122228
    30  H    0.122164
    31  H    0.062798
 Sum of Mulliken charges =  -0.00000

 Dipole moment (field-independent basis, Debye):
    X=              4.0257    Y=            -11.6160    Z=              0.8394  Tot=             12.3225
 Quadrupole moment (field-independent basis, Debye-Ang):
   XX=            -88.1676   YY=            -86.9949   ZZ=            -86.5696
   XY=             20.8574   XZ=             -5.3540   YZ=             13.0013

  Exact polarizability: 238.694  -9.728 237.782  -7.656   1.617 168.155
 Approx polarizability: 184.114  -7.649 196.822  -4.921   2.438 143.530

 ******    1 imaginary frequencies (negative Signs) ******

                      1                      2                      3
                      A                      A                      A
 Frequencies --   -346.4697                43.3240                84.1725
 Red. masses --      5.3089                 3.8118                 2.3247
 Frc consts  --      0.3755                 0.0042                 0.0097
 IR Inten    --    669.7512                 4.7630                 2.6993

                      4                      5                      6
                      A                      A                      A
 Frequencies --     90.0104               109.9224               133.2244
 Red. masses --      5.8555                 3.4451                 2.7862
 Frc consts  --      0.0280                 0.0245                 0.0291
 IR Inten    --      8.0419                 4.9876                 5.7156

                      7                      8                      9
                      A                      A                      A
 Frequencies --    152.4744               169.4986               222.0662
 Red. masses --      1.0640                 2.8668                 1.4724
 Frc consts  --      0.0146                 0.0485                 0.0428
 IR Inten    --      0.1501                 6.3187                 1.5681

                     10                     11                     12
                      A                      A                      A
 Frequencies --    241.8215               279.5002               302.1738
 Red. masses --      2.4278                 1.4760                 3.2738
 Frc consts  --      0.0836                 0.0679                 0.1761
 IR Inten    --      2.3931                 2.4889                 0.4037

                     13                     14                     15
                      A                      A                      A
 Frequencies --    310.7264               323.4563               325.7223
 Red. masses --      2.2011                 2.0646                 3.2529
 Frc consts  --      0.1252                 0.1273                 0.2033
 IR Inten    --     10.7764                29.7107                 4.4346

                     16                     17                     18
                      A                      A                      A
 Frequencies --    340.4744               389.7018               418.9116
 Red. masses --      2.5381                 4.1807                 2.9286
 Frc consts  --      0.1734                 0.3741                 0.3028
 IR Inten    --     11.2782                13.3209                 2.5291

                     19                     20                     21
                      A                      A                      A
 Frequencies --    428.3578               472.9037               569.6206
 Red. masses --      2.7842                 3.4142                 2.7589
 Frc consts  --      0.3010                 0.4499                 0.5274
 IR Inten    --      2.0905                 8.4333                43.5531

                     22                     23                     24
                      A                      A                      A
 Frequencies --    603.3537               638.2718               654.4231
 Red. masses --      3.9132                 6.0630                 4.6685
 Frc consts  --      0.8393                 1.4553                 1.1780
 IR Inten    --    113.4683                 1.9470                51.9439

                     25                     26                     27
                      A                      A                      A
 Frequencies --    711.7130               728.4006               774.1080
 Red. masses --      1.4940                 1.5408                 3.3141
 Frc consts  --      0.4459                 0.4816                 1.1701
 IR Inten    --     24.2685               103.4665                 7.5299

                     28                     29                     30
                      A                      A                      A
 Frequencies --    796.1371               871.9966               877.2996
 Red. masses --      2.1325                 2.8852                 1.2576
 Frc consts  --      0.7964                 1.2926                 0.5703
 IR Inten    --     43.9135                11.1818                 0.3092

                     31                     32                     33
                      A                      A                      A
 Frequencies --    959.4900              1000.3417              1016.1097
 Red. masses --      1.4049                 1.6337                 1.2919
 Frc consts  --      0.7620                 0.9632                 0.7859
 IR Inten    --      4.3130               125.9104                11.3536

                     34                     35                     36
                      A                      A                      A
 Frequencies --   1020.2310              1024.0092              1032.9267
 Red. masses --      1.1814                 5.3979                 1.3184
 Frc consts  --      0.7245                 3.3349                 0.8288
 IR Inten    --     31.7339                 6.7516                 5.2001

                     37                     38                     39
                      A                      A                      A
 Frequencies --   1035.4709              1045.3248              1057.3886
 Red. masses --      1.6737                 1.5694                 1.1719
 Frc consts  --      1.0573                 1.0104                 0.7720
 IR Inten    --      0.9180                47.6996                62.3923

                     40                     41                     42
                      A                      A                      A
 Frequencies --   1062.7733              1069.8393              1083.4396
 Red. masses --      2.2766                 1.5135                 3.3272
 Frc consts  --      1.5150                 1.0206                 2.3011
 IR Inten    --     11.8727                37.3215                 3.2731

                     43                     44                     45
                      A                      A                      A
 Frequencies --   1104.7051              1123.1860              1137.0521
 Red. masses --      1.8299                 2.0016                 1.9420
 Frc consts  --      1.3158                 1.4877                 1.4793
 IR Inten    --     34.0645                23.0322                21.5329

                     46                     47                     48
                      A                      A                      A
 Frequencies --   1185.5894              1227.0165              1247.7409
 Red. masses --      1.1241                 1.1752                 3.2106
 Frc consts  --      0.9309                 1.0424                 2.9450
 IR Inten    --      0.2041                 5.2361                56.7427

                     49                     50                     51
                      A                      A                      A
 Frequencies --   1255.2000              1315.4465              1352.6378
 Red. masses --      1.5144                 4.4030                 2.0101
 Frc consts  --      1.4058                 4.4889                 2.1668
 IR Inten    --     16.4911                19.5782               382.7920

                     52                     53                     54
                      A                      A                      A
 Frequencies --   1358.8681              1376.9376              1388.4656
 Red. masses --      1.4474                 1.3609                 1.5391
 Frc consts  --      1.5747                 1.5202                 1.7482
 IR Inten    --    185.9158                16.8955               108.2457

                     55                     56                     57
                      A                      A                      A
 Frequencies --   1418.7354              1421.0896              1449.9893
 Red. masses --      1.6850                 1.7764                 1.4413
 Frc consts  --      1.9983                 2.1137                 1.7854
 IR Inten    --      9.1284                40.5013                 0.7172

                     58                     59                     60
                      A                      A                      A
 Frequencies --   1458.7783              1485.2442              1486.1522
 Red. masses --      1.3475                 1.1344                 1.0904
 Frc consts  --      1.6895                 1.4744                 1.4189
 IR Inten    --      1.1127                 2.2937                 3.2400

                     61                     62                     63
                      A                      A                      A
 Frequencies --   1489.5348              1497.3472              1500.0995
 Red. masses --      1.7714                 1.0633                 1.1318
 Frc consts  --      2.3156                 1.4046                 1.5005
 IR Inten    --     36.5434                 3.8710                15.6763

                     64                     65                     66
                      A                      A                      A
 Frequencies --   1507.4369              1508.2318              1547.5984
 Red. masses --      1.1298                 1.0557                 2.1742
 Frc consts  --      1.5126                 1.4149                 3.0680
 IR Inten    --     49.5664                15.9043                17.6515

                     67                     68                     69
                      A                      A                      A
 Frequencies --   1623.6863              1646.3477              1654.2435
 Red. masses --      4.7780                 1.4964                 2.3161
 Frc consts  --      7.4217                 2.3898                 3.7343
 IR Inten    --   1215.5474                76.9333                20.4304

                     70                     71                     72
                      A                      A                      A
 Frequencies --   1675.4203              2898.6680              3018.5591
 Red. masses --      5.6067                 1.0802                 1.0428
 Frc consts  --      9.2727                 5.3474                 5.5982
 IR Inten    --      2.9362               207.3860               102.9818

                     73                     74                     75
                      A                      A                      A
 Frequencies --   3063.6605              3064.2832              3079.4120
 Red. masses --      1.0564                 1.0758                 1.0328
 Frc consts  --      5.8422                 5.9516                 5.7701
 IR Inten    --     24.6524                53.9206                36.7931

                     76                     77                     78
                      A                      A                      A
 Frequencies --   3132.1508              3137.7961              3153.5838
 Red. masses --      1.0957                 1.1015                 1.1037
 Frc consts  --      6.3333                 6.3895                 6.4670
 IR Inten    --     17.9722                21.4189                29.9512

                     79                     80                     81
                      A                      A                      A
 Frequencies --   3161.9222              3176.0424              3197.3788
 Red. masses --      1.1052                 1.1060                 1.0860
 Frc consts  --      6.5100                 6.5734                 6.5412
 IR Inten    --      7.7303                 9.4509                 1.0089

                     82                     83                     84
                      A                      A                      A
 Frequencies --   3205.4799              3216.7558              3225.5835
 Red. masses --      1.0894                 1.0930                 1.0947
 Frc consts  --      6.5950                 6.6636                 6.7106
 IR Inten    --      7.6847                34.5708                24.8513

                     85                     86                     87
                      A                      A                      A
 Frequencies --   3230.8859              3507.0600              3591.9981
 Red. masses --      1.0951                 1.0509                 1.0963
 Frc consts  --      6.7349                 7.6151                 8.3341
 IR Inten    --      3.8516                28.2788                43.5128

 - Thermochemistry -
 -------------------
 Temperature   298.150 Kelvin.  Pressure   1.00000 Atm.
 Atom     1 has atomic number  6 and mass  12.00000

 Molecular mass:   191.13101 amu.
 Principal axes and moments of inertia in atomic units:
                           1         2         3
     Eigenvalues --  1784.569613573.563914324.14006
           X            0.99945   0.03086  -0.01218
           Y           -0.03042   0.99893   0.03479
           Z            0.01324  -0.03440   0.99932
 This molecule is an asymmetric top.
 Rotational symmetry number  1.
 Warning -- assumption of classical behavior for rotation
           may cause significant error
 Rotational temperatures (Kelvin)      0.04853     0.02424     0.02003
 Rotational constants (GHZ):           1.01130     0.50503     0.41736
    1 imaginary frequencies ignored.
 Zero-point vibrational energy     705647.9 (Joules/Mol)
                                  168.65389 (Kcal/Mol)
 Warning -- explicit consideration of  21 degrees of freedom as
           vibrations may cause significant error
 Vibrational temperatures:     62.33   121.11   129.50   158.15   191.68
          (Kelvin)            219.38   243.87   319.50   347.93   402.14
                              434.76   447.07   465.38   468.64   489.87
                              560.69   602.72   616.31   680.40   819.56
                              868.09   918.33   941.57  1024.00  1048.01
                             1113.77  1145.46  1254.61  1262.24  1380.49
                             1439.27  1461.96  1467.88  1473.32  1486.15
                             1489.81  1503.99  1521.35  1529.09  1539.26
                             1558.83  1589.42  1616.01  1635.96  1705.80
                             1765.40  1795.22  1805.95  1892.63  1946.14
                             1955.11  1981.11  1997.69  2041.24  2044.63
                             2086.21  2098.86  2136.94  2138.24  2143.11
                             2154.35  2158.31  2168.87  2170.01  2226.65
                             2336.12  2368.73  2380.09  2410.56  4170.54
                             4343.03  4407.92  4408.82  4430.59  4506.47
                             4514.59  4537.30  4549.30  4569.62  4600.31
                             4611.97  4628.19  4640.90  4648.52  5045.88
                             5168.08

 Zero-point correction=                           0.268767 (Hartree/Particle)
 Thermal correction to Energy=                    0.282934
 Thermal correction to Enthalpy=                  0.283878
 Thermal correction to Gibbs Free Energy=         0.228260
 Sum of electronic and zero-point Energies=           -597.200174
 Sum of electronic and thermal Energies=              -597.186007
 Sum of electronic and thermal Enthalpies=            -597.185063
 Sum of electronic and thermal Free Energies=         -597.240682

                     E (Thermal)             CV                S
                      KCal/Mol        Cal/Mol-Kelvin    Cal/Mol-Kelvin
 Total                  177.544             54.009            117.059
 Electronic               0.000              0.000              0.000
 Translational            0.889              2.981             41.649
 Rotational               0.889              2.981             31.689
 Vibrational            175.766             48.047             43.720
 Vibration     1          0.595              1.980              5.101
 Vibration     2          0.601              1.960              3.791
 Vibration     3          0.602              1.956              3.660
 Vibration     4          0.606              1.941              3.270
 Vibration     5          0.613              1.920              2.899
 Vibration     6          0.619              1.900              2.641
 Vibration     7          0.625              1.880              2.441
 Vibration     8          0.648              1.807              1.942
 Vibration     9          0.658              1.776              1.789
 Vibration    10          0.680              1.711              1.537
 Vibration    11          0.694              1.670              1.405
 Vibration    12          0.700              1.653              1.358
 Vibration    13          0.708              1.629              1.293
 Vibration    14          0.710              1.624              1.281
 Vibration    15          0.720              1.595              1.210
 Vibration    16          0.758              1.492              1.001
 Vibration    17          0.782              1.429              0.896
 Vibration    18          0.790              1.409              0.864
 Vibration    19          0.830              1.310              0.729
 Vibration    20          0.926              1.097              0.505
 Vibration    21          0.962              1.025              0.444

 Optimization completed.
    -- Stationary point found.
 Normal termination of Gaussian 16 at Sun Feb 14 05:43:36 2021.
