 Gaussian 16, Revision A.03,
 Gaussian 16:  ES64L-G16RevA.03 25-Dec-2016

 ----------------------------------------------------------------------
 # wB97XD def2tzvp, opt=(ts, noeigen, calcfc, maxcycles=70, maxstep=1),
  freq=noraman, scrf=(iefpcm, solvent=water)
 ----------------------------------------------------------------------

 ------------------------
 0_iteration/TS-474-0.out
 ------------------------
 Symbolic Z-matrix:
 Charge =  0 Multiplicity = 1

 SCF Done:  E(RwB97XD) =  -826.043838496     A.U. after   15 cycles
 SCF Done:  E(RwB97XD) =  -826.043714292     A.U. after   10 cycles
 SCF Done:  E(RwB97XD) =  -826.043595802     A.U. after   10 cycles
 SCF Done:  E(RwB97XD) =  -826.043486889     A.U. after   10 cycles
 SCF Done:  E(RwB97XD) =  -826.043394960     A.U. after   10 cycles
 SCF Done:  E(RwB97XD) =  -826.043305309     A.U. after   10 cycles
 SCF Done:  E(RwB97XD) =  -826.043210867     A.U. after   10 cycles
 SCF Done:  E(RwB97XD) =  -826.043147620     A.U. after   11 cycles
 SCF Done:  E(RwB97XD) =  -826.043063266     A.U. after   10 cycles
 SCF Done:  E(RwB97XD) =  -826.042978980     A.U. after   10 cycles
 SCF Done:  E(RwB97XD) =  -826.043403412     A.U. after   10 cycles
 SCF Done:  E(RwB97XD) =  -826.043454795     A.U. after    9 cycles
 SCF Done:  E(RwB97XD) =  -826.043501007     A.U. after    9 cycles
 SCF Done:  E(RwB97XD) =  -826.043537001     A.U. after   10 cycles
 SCF Done:  E(RwB97XD) =  -826.043562590     A.U. after   10 cycles
 SCF Done:  E(RwB97XD) =  -826.043580660     A.U. after   10 cycles
 SCF Done:  E(RwB97XD) =  -826.043592177     A.U. after   10 cycles
 SCF Done:  E(RwB97XD) =  -826.043593990     A.U. after   10 cycles
 SCF Done:  E(RwB97XD) =  -826.043594000     A.U. after    7 cycles
 Optimization completed.
    -- Stationary point found.
 Normal termination of Gaussian 16 at Sat Feb 13 08:29:00 2021.

 ---------------------------------------------------------------------
 #N Geom=AllCheck Guess=TCheck SCRF=Check GenChk RwB97XD/def2TZVP Freq
 ---------------------------------------------------------------------

 Structure from the checkpoint file:  "/beegfs/scratch/user/q/tla25/Gau-20117.chk"
 ------------------------
 0_iteration/TS-474-0.out
 ------------------------
 Charge =  0 Multiplicity = 1

                         Standard orientation:
 ---------------------------------------------------------------------
 Center     Atomic      Atomic             Coordinates (Angstroms)
 Number     Number       Type             X           Y           Z
 ---------------------------------------------------------------------
      1          6           0       -0.403080    0.244559   -0.363482
      2          6           0       -1.412581   -0.759296   -0.284597
      3          8           0       -1.199899   -1.906325   -0.708706
      4          6           0        0.820754   -0.020662   -0.966563
      5          6           0        1.912288   -0.696822    1.605571
      6          1           0        2.291976   -1.443162    2.304684
      7          1           0        2.550787    0.184042    1.644692
      8          1           0        0.903179   -0.413664    1.905844
      9          7           0        1.862789   -1.198601    0.239075
     10          1           0        2.784418   -1.389058   -0.135062
     11          1           0        1.310141   -2.045590    0.177643
     12          6           0        1.828780    1.046603   -1.257092
     13          1           0        2.074363    1.623508   -0.366169
     14          1           0        2.741143    0.622665   -1.672564
     15          1           0        1.409390    1.738780   -1.990653
     16          1           0        0.767477   -0.822529   -1.692612
     17         17           0       -0.647169    1.783584    0.465383
     18          6           0       -2.750721   -0.429841    0.335195
     19          1           0       -2.634800   -0.238919    1.404462
     20          1           0       -3.184785    0.469095   -0.104539
     21          1           0       -3.424371   -1.272529    0.194699
 ---------------------------------------------------------------------

 SCF Done:  E(RwB97XD) =  -826.043594000     A.U. after    1 cycles

 The electronic state is 1-A.
 Alpha  occ. eigenvalues -- -101.68484 -19.20652 -14.47067 -10.35537 -10.33861
 Alpha  occ. eigenvalues --  -10.31261 -10.30132 -10.28315 -10.27178  -9.57018
 Alpha  occ. eigenvalues --   -7.31628  -7.30820  -7.30804  -1.11293  -1.02706
 Alpha  occ. eigenvalues --   -0.96032  -0.87794  -0.83449  -0.78943  -0.78219
 Alpha  occ. eigenvalues --   -0.68740  -0.62194  -0.60490  -0.57205  -0.55828
 Alpha  occ. eigenvalues --   -0.54068  -0.53424  -0.51547  -0.49730  -0.49480
 Alpha  occ. eigenvalues --   -0.48341  -0.47261  -0.45549  -0.44525  -0.43750
 Alpha  occ. eigenvalues --   -0.41693  -0.40028  -0.39376  -0.32477  -0.27150
 Alpha virt. eigenvalues --    0.04459   0.10108   0.12017   0.13184   0.13969
 Alpha virt. eigenvalues --    0.14708   0.15456   0.17161   0.17941   0.18873
 Alpha virt. eigenvalues --    0.19354   0.20024   0.20776   0.21715   0.22735

 Mulliken charges:
               1
     1  C   -0.197146
     2  C    0.272595
     3  O   -0.536884
     4  C    0.036350
     5  C   -0.293769
     6  H    0.149356
     7  H    0.151525
     8  H    0.149405
     9  N   -0.362748
    10  H    0.279542
    11  H    0.277836
    12  C   -0.364071
    13  H    0.138108
    14  H    0.141646
    15  H    0.151641
    16  H    0.158378
    17  Cl  -0.184526
    18  C   -0.368830
    19  H    0.139208
    20  H    0.138336
    21  H    0.124048
 Sum of Mulliken charges =  -0.00000

 Dipole moment (field-independent basis, Debye):
    X=              6.7554    Y=             -0.3941    Z=              1.4459  Tot=              6.9197
 Quadrupole moment (field-independent basis, Debye-Ang):
   XX=            -51.1407   YY=            -69.9702   ZZ=            -60.7686
   XY=             -8.3120   XZ=             -2.2930   YZ=             -5.1630

  Exact polarizability: 161.142  -0.551 138.438  -1.906   4.171 113.272
 Approx polarizability: 120.423  -1.690 118.282  -1.848   5.671  97.451

 ******    1 imaginary frequencies (negative Signs) ******

                      1                      2                      3
                      A                      A                      A
 Frequencies --   -361.7008                52.2987                74.1970
 Red. masses --      5.4618                 2.8407                 3.3590
 Frc consts  --      0.4210                 0.0046                 0.0109
 IR Inten    --    711.9961                 0.3437                10.3544

                      4                      5                      6
                      A                      A                      A
 Frequencies --     95.6567               133.3382               145.9428
 Red. masses --      3.0792                 1.5340                 1.7045
 Frc consts  --      0.0166                 0.0161                 0.0214
 IR Inten    --     11.6961                13.8226                16.3308

                      7                      8                      9
                      A                      A                      A
 Frequencies --    189.9723               201.0932               221.8595
 Red. masses --      3.3353                 1.1626                 1.3933
 Frc consts  --      0.0709                 0.0277                 0.0404
 IR Inten    --      3.3271                 0.5094                 5.9201

                     10                     11                     12
                      A                      A                      A
 Frequencies --    239.5887               253.1068               300.3359
 Red. masses --      3.5479                 2.5196                 2.6090
 Frc consts  --      0.1200                 0.0951                 0.1387
 IR Inten    --      1.4309                 9.1688                 6.2064

                     13                     14                     15
                      A                      A                      A
 Frequencies --    410.3653               447.5320               471.0989
 Red. masses --      3.4210                 4.0898                 5.4662
 Frc consts  --      0.3394                 0.4826                 0.7148
 IR Inten    --      5.8700                21.3949                48.4501

                     16                     17                     18
                      A                      A                      A
 Frequencies --    572.2060               616.4688               634.2753
 Red. masses --      3.1089                 2.1233                 2.2148
 Frc consts  --      0.5997                 0.4754                 0.5250
 IR Inten    --      9.3841                38.9083                56.7050

                     19                     20                     21
                      A                      A                      A
 Frequencies --    684.6404               946.9325               949.5410
 Red. masses --      2.3819                 2.8512                 1.5824
 Frc consts  --      0.6578                 1.5063                 0.8406
 IR Inten    --     26.5562                43.5974                26.2471

                     22                     23                     24
                      A                      A                      A
 Frequencies --    987.7176              1005.8880              1012.8859
 Red. masses --      1.1814                 1.2450                 1.4728
 Frc consts  --      0.6791                 0.7422                 0.8903
 IR Inten    --     96.4695                 5.0843               142.9854

                     25                     26                     27
                      A                      A                      A
 Frequencies --   1043.6563              1049.0259              1067.3437
 Red. masses --      1.7267                 1.6850                 2.0995
 Frc consts  --      1.1081                 1.0925                 1.4092
 IR Inten    --     15.4850                33.1446                64.3344

                     28                     29                     30
                      A                      A                      A
 Frequencies --   1145.8482              1181.7037              1209.4355
 Red. masses --      2.6191                 1.4513                 1.3777
 Frc consts  --      2.0261                 1.1940                 1.1873
 IR Inten    --     22.8677                81.8538                32.3828

                     31                     32                     33
                      A                      A                      A
 Frequencies --   1255.7823              1341.4285              1349.4921
 Red. masses --      1.4270                 2.4367                 1.3573
 Frc consts  --      1.3259                 2.5834                 1.4563
 IR Inten    --     81.5510               141.6567                12.6388

                     34                     35                     36
                      A                      A                      A
 Frequencies --   1394.8263              1411.9996              1450.4986
 Red. masses --      1.5893                 1.3434                 1.3752
 Frc consts  --      1.8218                 1.5780                 1.7048
 IR Inten    --     38.0719                98.3943               284.2073

                     37                     38                     39
                      A                      A                      A
 Frequencies --   1458.2533              1467.8838              1471.5245
 Red. masses --      1.1395                 1.1056                 1.2531
 Frc consts  --      1.4276                 1.4035                 1.5987
 IR Inten    --     47.6980                40.9460               169.1516

                     40                     41                     42
                      A                      A                      A
 Frequencies --   1484.3163              1492.4931              1499.3198
 Red. masses --      1.0610                 1.0762                 1.5140
 Frc consts  --      1.3773                 1.4124                 2.0052
 IR Inten    --     22.5223                37.3582               329.0926

                     43                     44                     45
                      A                      A                      A
 Frequencies --   1510.0975              1637.6295              1651.6060
 Red. masses --      1.0320                 5.2338                 1.1802
 Frc consts  --      1.3865                 8.2699                 1.8968
 IR Inten    --     11.5437               390.6254                11.9274

                     46                     47                     48
                      A                      A                      A
 Frequencies --   3059.7481              3061.4603              3065.0035
 Red. masses --      1.0369                 1.0335                 1.0378
 Frc consts  --      5.7196                 5.7071                 5.7440
 IR Inten    --      8.7404                43.5479                12.8618

                     49                     50                     51
                      A                      A                      A
 Frequencies --   3128.9530              3134.6652              3134.9694
 Red. masses --      1.0994                 1.1043                 1.0987
 Frc consts  --      6.3415                 6.3933                 6.3623
 IR Inten    --     14.3300                19.3407                15.4329

                     52                     53                     54
                      A                      A                      A
 Frequencies --   3156.4720              3158.0850              3164.5360
 Red. masses --      1.1047                 1.1038                 1.1040
 Frc consts  --      6.4846                 6.4863                 6.5136
 IR Inten    --     26.0947                13.2389                25.9032

                     55                     56                     57
                      A                      A                      A
 Frequencies --   3191.6426              3529.7710              3614.2849
 Red. masses --      1.0904                 1.0502                 1.0965
 Frc consts  --      6.5443                 7.7090                 8.4394
 IR Inten    --      8.7195                26.7375                49.0949

 - Thermochemistry -
 -------------------
 Temperature   298.150 Kelvin.  Pressure   1.00000 Atm.
 Atom     1 has atomic number  6 and mass  12.00000

 Molecular mass:   149.06074 amu.
 Principal axes and moments of inertia in atomic units:
                           1         2         3
     Eigenvalues --  1215.463841659.931242129.57709
           X            0.99991   0.01090  -0.00839
           Y           -0.01146   0.99752  -0.06940
           Z            0.00761   0.06949   0.99755
 This molecule is an asymmetric top.
 Rotational symmetry number  1.
 Warning -- assumption of classical behavior for rotation
           may cause significant error
 Rotational temperatures (Kelvin)      0.07126     0.05218     0.04067
 Rotational constants (GHZ):           1.48482     1.08724     0.84746
    1 imaginary frequencies ignored.
 Zero-point vibrational energy     464274.9 (Joules/Mol)
                                  110.96436 (Kcal/Mol)
 Warning -- explicit consideration of  16 degrees of freedom as
           vibrations may cause significant error
 Vibrational temperatures:     75.25   106.75   137.63   191.84   209.98
          (Kelvin)            273.33   289.33   319.21   344.71   364.16
                              432.12   590.42   643.90   677.81   823.28
                              886.96   912.58   985.04  1362.42  1366.18
                             1421.11  1447.25  1457.32  1501.59  1509.31
                             1535.67  1648.62  1700.21  1740.11  1806.79
                             1930.02  1941.62  2006.84  2031.55  2086.94
                             2098.10  2111.96  2117.20  2135.60  2147.36
                             2157.19  2172.69  2356.18  2376.29  4402.30
                             4404.76  4409.86  4501.87  4510.08  4510.52
                             4541.46  4543.78  4553.06  4592.06  5078.55
                             5200.15

 Zero-point correction=                           0.176833 (Hartree/Particle)
 Thermal correction to Energy=                    0.188252
 Thermal correction to Enthalpy=                  0.189196
 Thermal correction to Gibbs Free Energy=         0.139255
 Sum of electronic and zero-point Energies=           -825.866761
 Sum of electronic and thermal Energies=              -825.855342
 Sum of electronic and thermal Enthalpies=            -825.854398
 Sum of electronic and thermal Free Energies=         -825.904339

                     E (Thermal)             CV                S
                      KCal/Mol        Cal/Mol-Kelvin    Cal/Mol-Kelvin
 Total                  118.130             39.427            105.110
 Electronic               0.000              0.000              0.000
 Translational            0.889              2.981             40.908
 Rotational               0.889              2.981             29.842
 Vibrational            116.353             33.466             34.360
 Vibration     1          0.596              1.977              4.729
 Vibration     2          0.599              1.966              4.039
 Vibration     3          0.603              1.952              3.541
 Vibration     4          0.613              1.920              2.897
 Vibration     5          0.617              1.907              2.724
 Vibration     6          0.633              1.854              2.228
 Vibration     7          0.638              1.838              2.123
 Vibration     8          0.648              1.808              1.944
 Vibration     9          0.657              1.780              1.806
 Vibration    10          0.664              1.758              1.709
 Vibration    11          0.693              1.673              1.415
 Vibration    12          0.775              1.448              0.925
 Vibration    13          0.807              1.366              0.803
 Vibration    14          0.828              1.314              0.734
 Vibration    15          0.928              1.091              0.500
 Vibration    16          0.976              0.997              0.422

 Optimization completed.
    -- Stationary point found.
 Normal termination of Gaussian 16 at Sat Feb 13 08:40:15 2021.
