 Gaussian 16, Revision A.03,
 Gaussian 16:  ES64L-G16RevA.03 25-Dec-2016

 ----------------------------------------------------------------------
 # wB97XD def2tzvp, opt=(ts, noeigen, calcfc, maxcycles=70, maxstep=5),
  freq=noraman, scrf=(iefpcm, solvent=water)
 ----------------------------------------------------------------------

 ------------------------
 2_iteration/TS-416-2.out
 ------------------------
 Symbolic Z-matrix:
 Charge =  0 Multiplicity = 1

 SCF Done:  E(RwB97XD) =  -789.211686817     A.U. after   14 cycles
 SCF Done:  E(RwB97XD) =  -789.211837923     A.U. after   12 cycles
 SCF Done:  E(RwB97XD) =  -789.211900295     A.U. after   12 cycles
 SCF Done:  E(RwB97XD) =  -789.211916321     A.U. after   12 cycles
 SCF Done:  E(RwB97XD) =  -789.211904542     A.U. after   12 cycles
 SCF Done:  E(RwB97XD) =  -789.211910501     A.U. after   12 cycles
 SCF Done:  E(RwB97XD) =  -789.211911567     A.U. after   12 cycles
 SCF Done:  E(RwB97XD) =  -789.211919948     A.U. after   11 cycles
 SCF Done:  E(RwB97XD) =  -789.211923612     A.U. after   10 cycles
 SCF Done:  E(RwB97XD) =  -789.211923126     A.U. after   10 cycles
 SCF Done:  E(RwB97XD) =  -789.211923492     A.U. after   10 cycles
 SCF Done:  E(RwB97XD) =  -789.211923585     A.U. after    7 cycles
 Optimization completed.
    -- Stationary point found.
 Normal termination of Gaussian 16 at Sun Feb 14 15:38:08 2021.

 ---------------------------------------------------------------------
 #N Geom=AllCheck Guess=TCheck SCRF=Check GenChk RwB97XD/def2TZVP Freq
 ---------------------------------------------------------------------

 Structure from the checkpoint file:  "/beegfs/scratch/user/q/tla25/Gau-2591.chk"
 ------------------------
 2_iteration/TS-416-2.out
 ------------------------
 Charge =  0 Multiplicity = 1

                         Standard orientation:
 ---------------------------------------------------------------------
 Center     Atomic      Atomic             Coordinates (Angstroms)
 Number     Number       Type             X           Y           Z
 ---------------------------------------------------------------------
      1          6           0        0.228566    0.571707    0.658433
      2          6           0        1.006146    0.017720   -0.385384
      3          8           0        0.611629   -0.167401   -1.552651
      4          6           0       -1.154781    0.829472    0.665505
      5          6           0       -0.629777    3.323220   -0.748026
      6          1           0       -1.124408    4.034248   -0.089447
      7          1           0        0.328949    3.036378   -0.306313
      8          1           0       -0.439131    3.803627   -1.709006
      9          7           0       -1.442099    2.126576   -0.881575
     10          1           0       -2.421192    2.325418   -1.041772
     11          1           0       -1.095504    1.535633   -1.628376
     12          6           0       -1.589198    1.733974    1.797674
     13          1           0       -0.914342    2.584506    1.872536
     14          1           0       -2.606056    2.098739    1.662582
     15          1           0       -1.538971    1.197280    2.746509
     16          6           0       -2.181163   -0.192163    0.245898
     17          6           0       -2.201393   -0.816580   -1.003180
     18          6           0       -3.159343   -1.770184   -1.311306
     19          6           0       -4.119428   -2.135245   -0.380166
     20          6           0       -4.110940   -1.529974    0.866059
     21          6           0       -3.160036   -0.567796    1.170410
     22          1           0       -1.444396   -0.568629   -1.730575
     23          1           0       -3.150656   -2.231646   -2.291071
     24          1           0       -4.865582   -2.881115   -0.623221
     25          1           0       -4.849874   -1.801003    1.609680
     26          1           0       -3.186080   -0.118330    2.152723
     27          1           0        0.786547    1.030247    1.465629
     28          6           0        2.452351   -0.284895   -0.079513
     29          6           0        3.386401   -0.228713   -1.110728
     30          6           0        4.721876   -0.511915   -0.872633
     31          6           0        5.139909   -0.870958    0.402070
     32          6           0        4.215261   -0.942708    1.434325
     33          6           0        2.881257   -0.647082    1.195154
     34          1           0        3.050677    0.042636   -2.103378
     35          1           0        5.439103   -0.454060   -1.681971
     36          1           0        6.182056   -1.097895    0.589108
     37          1           0        4.532622   -1.233460    2.427969
     38          1           0        2.163644   -0.716669    2.003057
 ---------------------------------------------------------------------

 SCF Done:  E(RwB97XD) =  -789.211923585     A.U. after    1 cycles

 The electronic state is 1-A.
 Alpha  occ. eigenvalues --  -19.20548 -14.46396 -10.35315 -10.35065 -10.30985
 Alpha  occ. eigenvalues --  -10.30525 -10.29247 -10.29091 -10.29085 -10.29033
 Alpha  occ. eigenvalues --  -10.28948 -10.28947 -10.28932 -10.28892 -10.28822
 Alpha  occ. eigenvalues --  -10.28786 -10.28415 -10.28100 -10.25063  -1.11002
 Alpha  occ. eigenvalues --   -1.02258  -0.96981  -0.96446  -0.91472  -0.86558
 Alpha  occ. eigenvalues --   -0.85097  -0.84995  -0.84083  -0.80325  -0.77998
 Alpha  occ. eigenvalues --   -0.73552  -0.71167  -0.70182  -0.69852  -0.66563
 Alpha  occ. eigenvalues --   -0.63103  -0.61994  -0.61284  -0.59046  -0.56432
 Alpha  occ. eigenvalues --   -0.55960  -0.55302  -0.54390  -0.53919  -0.53618
 Alpha  occ. eigenvalues --   -0.52403  -0.51904  -0.50955  -0.50883  -0.49709
 Alpha  occ. eigenvalues --   -0.48527  -0.47731  -0.46994  -0.46627  -0.46297
 Alpha  occ. eigenvalues --   -0.46100  -0.44726  -0.43798  -0.42730  -0.42356
 Alpha  occ. eigenvalues --   -0.41973  -0.39576  -0.33928  -0.33781  -0.33633
 Alpha  occ. eigenvalues --   -0.33017  -0.32062  -0.27804
 Alpha virt. eigenvalues --    0.00749   0.04734   0.05396   0.05411   0.08328
 Alpha virt. eigenvalues --    0.10552   0.13081   0.13465   0.13677   0.14140
 Alpha virt. eigenvalues --    0.15195   0.16064   0.16670   0.17167   0.17229

 Mulliken charges:
               1
     1  C   -0.551333
     2  C    0.365015
     3  O   -0.562541
     4  C    0.314297
     5  C   -0.304484
     6  H    0.157811
     7  H    0.142265
     8  H    0.149640
     9  N   -0.366423
    10  H    0.275352
    11  H    0.267607
    12  C   -0.438995
    13  H    0.156361
    14  H    0.163523
    15  H    0.160977
    16  C    0.179696
    17  C   -0.266567
    18  C   -0.165235
    19  C   -0.149250
    20  C   -0.152930
    21  C   -0.241333
    22  H    0.169995
    23  H    0.139813
    24  H    0.142515
    25  H    0.141624
    26  H    0.153288
    27  H    0.156368
    28  C    0.141103
    29  C   -0.237094
    30  C   -0.130167
    31  C   -0.140287
    32  C   -0.142487
    33  C   -0.248755
    34  H    0.136863
    35  H    0.141669
    36  H    0.144720
    37  H    0.141962
    38  H    0.155419
 Sum of Mulliken charges =  -0.00000

 Dipole moment (field-independent basis, Debye):
    X=             -3.7627    Y=              5.1043    Z=              1.8888  Tot=              6.6166
 Quadrupole moment (field-independent basis, Debye-Ang):
   XX=            -97.5524   YY=           -102.8907   ZZ=           -106.7938
   XY=             -4.8375   XZ=              1.8701   YZ=             -3.4472

  Exact polarizability: 370.393  -3.195 245.597 -13.309   1.197 293.003
 Approx polarizability: 267.354   1.610 199.288  -9.644   2.006 255.398

 ******    1 imaginary frequencies (negative Signs) ******

                      1                      2                      3
                      A                      A                      A
 Frequencies --   -367.7269                21.2870                32.5079
 Red. masses --      4.7910                 3.9419                 5.1523
 Frc consts  --      0.3817                 0.0011                 0.0032
 IR Inten    --    787.0172                 1.0615                 3.1134

                      4                      5                      6
                      A                      A                      A
 Frequencies --     45.3554                71.2691                89.8574
 Red. masses --      3.9298                 3.5551                 2.7866
 Frc consts  --      0.0048                 0.0106                 0.0133
 IR Inten    --      1.2247                 6.4952                11.2193

                      7                      8                      9
                      A                      A                      A
 Frequencies --    104.6034               115.3783               159.4882
 Red. masses --      3.8259                 3.6269                 4.4467
 Frc consts  --      0.0247                 0.0284                 0.0666
 IR Inten    --      6.8974                22.5725                 3.6715

                     10                     11                     12
                      A                      A                      A
 Frequencies --    192.7360               212.4298               225.8779
 Red. masses --      3.6063                 3.5750                 1.1806
 Frc consts  --      0.0789                 0.0951                 0.0355
 IR Inten    --      3.3088                 2.9387                 0.9082

                     13                     14                     15
                      A                      A                      A
 Frequencies --    250.0758               284.3063               289.7376
 Red. masses --      2.9829                 4.0080                 4.1919
 Frc consts  --      0.1099                 0.1909                 0.2073
 IR Inten    --      0.5817                 7.7740                35.4478

                     16                     17                     18
                      A                      A                      A
 Frequencies --    306.2887               318.4591               347.3678
 Red. masses --      2.9034                 1.1733                 3.7704
 Frc consts  --      0.1605                 0.0701                 0.2680
 IR Inten    --     10.4199                 4.1476                 2.3132

                     19                     20                     21
                      A                      A                      A
 Frequencies --    397.8942               422.3568               424.8993
 Red. masses --      4.3606                 2.8816                 2.9909
 Frc consts  --      0.4068                 0.3029                 0.3181
 IR Inten    --      6.2028                 0.4165                 0.7911

                     22                     23                     24
                      A                      A                      A
 Frequencies --    440.9141               472.2065               504.1005
 Red. masses --      3.7555                 3.3155                 4.2511
 Frc consts  --      0.4302                 0.4356                 0.6365
 IR Inten    --      9.6728                28.6305                 7.8665

                     25                     26                     27
                      A                      A                      A
 Frequencies --    568.7343               578.1872               630.5434
 Red. masses --      2.3235                 2.9667                 2.3735
 Frc consts  --      0.4428                 0.5843                 0.5560
 IR Inten    --    100.9516                78.3642                42.5980

                     28                     29                     30
                      A                      A                      A
 Frequencies --    636.6286               640.8036               692.4728
 Red. masses --      5.8709                 5.1668                 5.6321
 Frc consts  --      1.4019                 1.2500                 1.5912
 IR Inten    --      3.9382                 8.4219                 1.6203

                     31                     32                     33
                      A                      A                      A
 Frequencies --    714.2727               725.2006               726.9271
 Red. masses --      2.0520                 1.4914                 1.5306
 Frc consts  --      0.6168                 0.4621                 0.4765
 IR Inten    --     46.8305                62.1372               139.6691

                     34                     35                     36
                      A                      A                      A
 Frequencies --    747.7114               776.2086               799.6271
 Red. masses --      2.3087                 2.7615                 2.0495
 Frc consts  --      0.7605                 0.9803                 0.7721
 IR Inten    --     87.0651                85.1340                13.7286

                     37                     38                     39
                      A                      A                      A
 Frequencies --    832.0484               879.6126               880.2952
 Red. masses --      2.9922                 1.2591                 5.4917
 Frc consts  --      1.2205                 0.5740                 2.5074
 IR Inten    --     16.3197                 6.2202                41.6032

                     40                     41                     42
                      A                      A                      A
 Frequencies --    881.9613               965.4709               966.8319
 Red. masses --      1.2632                 1.4149                 1.3276
 Frc consts  --      0.5789                 0.7771                 0.7312
 IR Inten    --      0.1134                 7.9610                62.9933

                     43                     44                     45
                      A                      A                      A
 Frequencies --    969.9315               998.0093              1016.4081
 Red. masses --      1.2329                 1.9218                 1.4108
 Frc consts  --      0.6834                 1.1278                 0.8587
 IR Inten    --     77.5089                18.7142                 8.1321

                     46                     47                     48
                      A                      A                      A
 Frequencies --   1017.6308              1024.5778              1025.9536
 Red. masses --      1.3860                 1.9402                 5.6432
 Frc consts  --      0.8457                 1.2000                 3.4997
 IR Inten    --      0.8848                34.1153                 1.1872

                     49                     50                     51
                      A                      A                      A
 Frequencies --   1026.7853              1032.0415              1034.9962
 Red. masses --      1.7578                 1.3173                 1.4300
 Frc consts  --      1.0919                 0.8267                 0.9025
 IR Inten    --     32.4319                 1.0198                12.7763

                     52                     53                     54
                      A                      A                      A
 Frequencies --   1043.1029              1059.2841              1065.3556
 Red. masses --      1.5487                 2.2150                 2.6205
 Frc consts  --      0.9928                 1.4643                 1.7523
 IR Inten    --     57.8374                24.9923                14.4583

                     55                     56                     57
                      A                      A                      A
 Frequencies --   1095.7720              1108.5194              1114.7060
 Red. masses --      3.4630                 1.5286                 2.1070
 Frc consts  --      2.4499                 1.1067                 1.5425
 IR Inten    --     19.7128                18.4586                13.6221

                     58                     59                     60
                      A                      A                      A
 Frequencies --   1124.7023              1144.7288              1182.6955
 Red. masses --      1.8296                 2.4176                 1.1347
 Frc consts  --      1.3635                 1.8665                 0.9352
 IR Inten    --     16.8185                20.3340                 0.6818

                     61                     62                     63
                      A                      A                      A
 Frequencies --   1187.2616              1192.8185              1201.8733
 Red. masses --      1.1399                 1.3953                 1.1363
 Frc consts  --      0.9467                 1.1696                 0.9671
 IR Inten    --      1.1268                21.6601                18.2925

                     64                     65                     66
                      A                      A                      A
 Frequencies --   1221.7952              1234.6322              1274.6820
 Red. masses --      2.1052                 1.1713                 3.5272
 Frc consts  --      1.8516                 1.0520                 3.3767
 IR Inten    --    146.6425                 9.0973               129.3728

                     67                     68                     69
                      A                      A                      A
 Frequencies --   1322.4536              1330.9305              1349.9112
 Red. masses --      4.9936                 4.0167                 1.3540
 Frc consts  --      5.1455                 4.1921                 1.4537
 IR Inten    --     40.6603                19.8167                24.0623

                     70                     71                     72
                      A                      A                      A
 Frequencies --   1352.0396              1377.7442              1383.6621
 Red. masses --      1.5903                 1.7952                 1.6341
 Frc consts  --      1.7128                 2.0077                 1.8433
 IR Inten    --      1.5917               111.3621               119.1457

                     73                     74                     75
                      A                      A                      A
 Frequencies --   1413.9468              1456.7437              1477.9654
 Red. masses --      1.2526                 1.1908                 2.2874
 Frc consts  --      1.4755                 1.4888                 2.9439
 IR Inten    --     15.1955                30.1039               331.2499

                     76                     77                     78
                      A                      A                      A
 Frequencies --   1487.5671              1489.5274              1493.0786
 Red. masses --      1.5763                 1.0838                 1.3411
 Frc consts  --      2.0551                 1.4167                 1.7615
 IR Inten    --     12.5669                17.6976                37.6106

                     79                     80                     81
                      A                      A                      A
 Frequencies --   1506.3190              1510.8847              1517.7184
 Red. masses --      1.0747                 1.0587                 2.5205
 Frc consts  --      1.4368                 1.4239                 3.4208
 IR Inten    --     16.3610                83.6216               760.1968

                     82                     83                     84
                      A                      A                      A
 Frequencies --   1540.7560              1548.1504              1609.8574
 Red. masses --      2.4131                 2.1473                 5.5558
 Frc consts  --      3.3752                 3.0322                 8.4835
 IR Inten    --    105.8894                39.9312               369.3071

                     85                     86                     87
                      A                      A                      A
 Frequencies --   1642.8261              1648.4196              1658.5939
 Red. masses --      1.1846                 5.3979                 5.5091
 Frc consts  --      1.8837                 8.6419                 8.9292
 IR Inten    --     36.5622                 7.6785                46.0775

                     88                     89                     90
                      A                      A                      A
 Frequencies --   1672.4174              1675.6227              3044.4669
 Red. masses --      5.9286                 5.6705                 1.0366
 Frc consts  --      9.7699                 9.3805                 5.6609
 IR Inten    --      8.8819                 4.4165                51.0225

                     91                     92                     93
                      A                      A                      A
 Frequencies --   3070.0327              3111.3247              3142.0355
 Red. masses --      1.0377                 1.1019                 1.0996
 Frc consts  --      5.7624                 6.2849                 6.3959
 IR Inten    --     12.1583                21.9964                17.1023

                     94                     95                     96
                      A                      A                      A
 Frequencies --   3156.5636              3164.0183              3187.7525
 Red. masses --      1.1031                 1.1039                 1.0872
 Frc consts  --      6.4757                 6.5110                 6.5093
 IR Inten    --     23.7078                24.5569                16.9115

                     97                     98                     99
                      A                      A                      A
 Frequencies --   3192.3811              3194.4549              3200.0139
 Red. masses --      1.0858                 1.0863                 1.0884
 Frc consts  --      6.5195                 6.5310                 6.5667
 IR Inten    --      0.6884                 0.5877                 4.9688

                    100                    101                    102
                      A                      A                      A
 Frequencies --   3203.1925              3208.7828              3216.4574
 Red. masses --      1.0908                 1.0920                 1.0945
 Frc consts  --      6.5942                 6.6245                 6.6712
 IR Inten    --     21.1172                19.3878                27.9980

                    103                    104                    105
                      A                      A                      A
 Frequencies --   3217.6743              3222.3069              3234.5888
 Red. masses --      1.0962                 1.0973                 1.0928
 Frc consts  --      6.6872                 6.7131                 6.7363
 IR Inten    --     27.8308                19.3571                13.1521

                    106                    107                    108
                      A                      A                      A
 Frequencies --   3251.5911              3525.7095              3617.4981
 Red. masses --      1.0924                 1.0507                 1.0964
 Frc consts  --      6.8048                 7.6949                 8.4534
 IR Inten    --     26.1746                18.6356                71.2708

 - Thermochemistry -
 -------------------
 Temperature   298.150 Kelvin.  Pressure   1.00000 Atm.
 Atom     1 has atomic number  6 and mass  12.00000

 Molecular mass:   253.14666 amu.
 Principal axes and moments of inertia in atomic units:
                           1         2         3
     Eigenvalues --  2788.008248755.881889457.62729
           X            0.99999  -0.00407  -0.00142
           Y            0.00408   0.99998   0.00456
           Z            0.00140  -0.00456   0.99999
 This molecule is an asymmetric top.
 Rotational symmetry number  1.
 Warning -- assumption of classical behavior for rotation
           may cause significant error
 Rotational temperatures (Kelvin)      0.03107     0.00989     0.00916
 Rotational constants (GHZ):           0.64732     0.20612     0.19082
    1 imaginary frequencies ignored.
 Zero-point vibrational energy     845754.9 (Joules/Mol)
                                  202.14028 (Kcal/Mol)
 Warning -- explicit consideration of  25 degrees of freedom as
           vibrations may cause significant error
 Vibrational temperatures:     30.63    46.77    65.26   102.54   129.28
          (Kelvin)            150.50   166.00   229.47   277.30   305.64
                              324.99   359.80   409.05   416.87   440.68
                              458.19   499.78   572.48   607.68   611.34
                              634.38   679.40   725.29   818.28   831.88
                              907.21   915.97   921.97   996.31  1027.68
                             1043.40  1045.89  1075.79  1116.79  1150.49
                             1197.13  1265.57  1266.55  1268.95  1389.10
                             1391.06  1395.52  1435.91  1462.38  1464.14
                             1474.14  1476.12  1477.32  1484.88  1489.13
                             1500.79  1524.07  1532.81  1576.57  1594.91
                             1603.81  1618.20  1647.01  1701.64  1708.20
                             1716.20  1729.23  1757.89  1776.36  1833.98
                             1902.72  1914.91  1942.22  1945.28  1982.27
                             1990.78  2034.35  2095.93  2126.46  2140.28
                             2143.10  2148.21  2167.26  2173.83  2183.66
                             2216.80  2227.44  2316.23  2363.66  2371.71
                             2386.35  2406.24  2410.85  4380.31  4417.09
                             4476.50  4520.69  4541.59  4552.32  4586.46
                             4593.12  4596.11  4604.11  4608.68  4616.72
                             4627.76  4629.52  4636.18  4653.85  4678.31
                             5072.71  5204.77

 Zero-point correction=                           0.322131 (Hartree/Particle)
 Thermal correction to Energy=                    0.339517
 Thermal correction to Enthalpy=                  0.340462
 Thermal correction to Gibbs Free Energy=         0.275478
 Sum of electronic and zero-point Energies=           -788.889793
 Sum of electronic and thermal Energies=              -788.872406
 Sum of electronic and thermal Enthalpies=            -788.871462
 Sum of electronic and thermal Free Energies=         -788.936446

                     E (Thermal)             CV                S
                      KCal/Mol        Cal/Mol-Kelvin    Cal/Mol-Kelvin
 Total                  213.050             67.479            136.770
 Electronic               0.000              0.000              0.000
 Translational            0.889              2.981             42.487
 Rotational               0.889              2.981             33.801
 Vibrational            211.273             61.517             60.483
 Vibration     1          0.593              1.985              6.510
 Vibration     2          0.594              1.983              5.670
 Vibration     3          0.595              1.979              5.010
 Vibration     4          0.598              1.968              4.118
 Vibration     5          0.602              1.956              3.663
 Vibration     6          0.605              1.946              3.367
 Vibration     7          0.608              1.937              3.176
 Vibration     8          0.621              1.892              2.556
 Vibration     9          0.635              1.850              2.201
 Vibration    10          0.643              1.822              2.023
 Vibration    11          0.650              1.802              1.911
 Vibration    12          0.663              1.763              1.730
 Vibration    13          0.683              1.703              1.508
 Vibration    14          0.686              1.693              1.475
 Vibration    15          0.697              1.662              1.382
 Vibration    16          0.705              1.638              1.318
 Vibration    17          0.725              1.581              1.178
 Vibration    18          0.764              1.475              0.970
 Vibration    19          0.785              1.422              0.884
 Vibration    20          0.787              1.416              0.875
 Vibration    21          0.801              1.381              0.824
 Vibration    22          0.829              1.312              0.731
 Vibration    23          0.859              1.241              0.648
 Vibration    24          0.925              1.099              0.507
 Vibration    25          0.935              1.078              0.489

 Optimization completed.
    -- Stationary point found.
 Normal termination of Gaussian 16 at Sun Feb 14 17:25:22 2021.
