 Gaussian 16, Revision A.03,
 Gaussian 16:  ES64L-G16RevA.03 25-Dec-2016

 ----------------------------------------------------------------------
 # wB97XD def2tzvp, opt=(ts, noeigen, calcfc, maxcycles=70, maxstep=3),
  freq=noraman, scrf=(iefpcm, solvent=water)
 ----------------------------------------------------------------------

 ------------------------
 0_iteration/TS-477-0.out
 ------------------------
 Symbolic Z-matrix:
 Charge =  0 Multiplicity = 1

 SCF Done:  E(RwB97XD) =  -881.413894353     A.U. after   15 cycles
 SCF Done:  E(RwB97XD) =  -881.413883904     A.U. after   11 cycles
 SCF Done:  E(RwB97XD) =  -881.413889580     A.U. after   10 cycles
 SCF Done:  E(RwB97XD) =  -881.413913768     A.U. after   10 cycles
 SCF Done:  E(RwB97XD) =  -881.413987187     A.U. after   11 cycles
 SCF Done:  E(RwB97XD) =  -881.414084507     A.U. after   11 cycles
 SCF Done:  E(RwB97XD) =  -881.414193641     A.U. after   10 cycles
 SCF Done:  E(RwB97XD) =  -881.414295310     A.U. after   10 cycles
 SCF Done:  E(RwB97XD) =  -881.414379117     A.U. after   10 cycles
 SCF Done:  E(RwB97XD) =  -881.414426551     A.U. after   10 cycles
 SCF Done:  E(RwB97XD) =  -881.414460670     A.U. after   10 cycles
 SCF Done:  E(RwB97XD) =  -881.414479619     A.U. after   10 cycles
 SCF Done:  E(RwB97XD) =  -881.414505778     A.U. after   10 cycles
 SCF Done:  E(RwB97XD) =  -881.414511821     A.U. after   10 cycles
 SCF Done:  E(RwB97XD) =  -881.414517252     A.U. after   10 cycles
 SCF Done:  E(RwB97XD) =  -881.414517509     A.U. after    9 cycles
 SCF Done:  E(RwB97XD) =  -881.414495201     A.U. after   11 cycles
 SCF Done:  E(RwB97XD) =  -881.414517470     A.U. after   10 cycles
 SCF Done:  E(RwB97XD) =  -881.414517502     A.U. after    8 cycles
 Optimization completed.
    -- Stationary point found.
 Normal termination of Gaussian 16 at Sat Apr 10 13:07:09 2021.

 ---------------------------------------------------------------------
 #N Geom=AllCheck Guess=TCheck SCRF=Check GenChk RwB97XD/def2TZVP Freq
 ---------------------------------------------------------------------

 Structure from the checkpoint file:  "/beegfs/scratch/user/q/tla25/Gau-75970.chk"
 ------------------------
 0_iteration/TS-477-0.out
 ------------------------
 Charge =  0 Multiplicity = 1

                         Standard orientation:
 ---------------------------------------------------------------------
 Center     Atomic      Atomic             Coordinates (Angstroms)
 Number     Number       Type             X           Y           Z
 ---------------------------------------------------------------------
      1          6           0        0.042835    0.409668   -0.412672
      2          6           0       -1.173092   -0.346445   -0.349303
      3          8           0       -1.212430   -1.529943   -0.748564
      4          6           0        1.207854   -0.180733   -0.917347
      5          6           0        2.000300   -1.059440    1.615456
      6          1           0        1.144064   -0.454506    1.912014
      7          1           0        2.104695   -1.893984    2.308550
      8          1           0        2.899747   -0.448264    1.653010
      9          7           0        1.782557   -1.520616    0.247971
     10          1           0        2.587549   -2.014021   -0.121607
     11          1           0        0.975703   -2.134926    0.192218
     12          6           0        2.456799    0.622209   -1.144278
     13          1           0        3.275566   -0.012066   -1.481298
     14          1           0        2.264315    1.368854   -1.916503
     15          1           0        2.765791    1.152164   -0.243900
     16          1           0        0.998506   -0.902654   -1.699558
     17         17           0        0.139175    1.953810    0.448172
     18          7           0       -2.288278    0.232334    0.173868
     19          6           0       -3.562914   -0.441997    0.183262
     20          1           0       -2.264012    1.214774    0.376688
     21          1           0       -4.267460    0.152591    0.761947
     22          1           0       -3.968403   -0.580604   -0.823485
     23          1           0       -3.473245   -1.424173    0.647924
 ---------------------------------------------------------------------

 SCF Done:  E(RwB97XD) =  -881.414517502     A.U. after    1 cycles

 The electronic state is 1-A.
 Alpha  occ. eigenvalues -- -101.68324 -19.19228 -14.48209 -14.43819 -10.36823
 Alpha  occ. eigenvalues --  -10.33672 -10.31554 -10.30364 -10.29045 -10.28088
 Alpha  occ. eigenvalues --   -9.56846  -7.31442  -7.30672  -7.30626  -1.11697
 Alpha  occ. eigenvalues --   -1.03802  -1.00612  -0.95201  -0.87449  -0.81300
 Alpha  occ. eigenvalues --   -0.78907  -0.77304  -0.68503  -0.64462  -0.62869
 Alpha  occ. eigenvalues --   -0.59940  -0.57725  -0.54882  -0.54385  -0.52933
 Alpha  occ. eigenvalues --   -0.51695  -0.50138  -0.49280  -0.47875  -0.46737
 Alpha  occ. eigenvalues --   -0.46473  -0.46305  -0.43998  -0.41754  -0.41190
 Alpha  occ. eigenvalues --   -0.39539  -0.33523  -0.32712  -0.25618
 Alpha virt. eigenvalues --    0.07836   0.10097   0.12149   0.13278   0.13871
 Alpha virt. eigenvalues --    0.15162   0.15884   0.16533   0.16894   0.18385
 Alpha virt. eigenvalues --    0.19122   0.20042   0.20363   0.20821   0.21591

 Mulliken charges:
               1
     1  C   -0.275494
     2  C    0.379022
     3  O   -0.599394
     4  C    0.044497
     5  C   -0.304787
     6  H    0.153484
     7  H    0.154326
     8  H    0.155787
     9  N   -0.299465
    10  H    0.281901
    11  H    0.278884
    12  C   -0.372675
    13  H    0.139684
    14  H    0.148614
    15  H    0.137508
    16  H    0.144494
    17  Cl  -0.208723
    18  N   -0.338731
    19  C   -0.244097
    20  H    0.243205
    21  H    0.137135
    22  H    0.119909
    23  H    0.124914
 Sum of Mulliken charges =   0.00000

 Dipole moment (field-independent basis, Debye):
    X=              5.2628    Y=             -1.8185    Z=              2.1751  Tot=              5.9779
 Quadrupole moment (field-independent basis, Debye-Ang):
   XX=            -51.2561   YY=            -70.4335   ZZ=            -68.2980
   XY=            -13.5749   XZ=             -3.1874   YZ=             -4.2441

  Exact polarizability: 175.302  -7.350 146.982  -1.794   4.777 119.933
 Approx polarizability: 129.083  -5.409 126.053  -1.819   6.648 103.514

 ******    1 imaginary frequencies (negative Signs) ******

                      1                      2                      3
                      A                      A                      A
 Frequencies --   -378.3811                45.5439                69.8578
 Red. masses --      5.6933                 3.3356                 2.7391
 Frc consts  --      0.4803                 0.0041                 0.0079
 IR Inten    --    808.1766                 7.0468                16.0816

                      4                      5                      6
                      A                      A                      A
 Frequencies --     82.4017               100.1203               130.9783
 Red. masses --      3.0995                 1.7692                 2.2738
 Frc consts  --      0.0124                 0.0104                 0.0230
 IR Inten    --     37.7992                 0.8344                22.8647

                      7                      8                      9
                      A                      A                      A
 Frequencies --    132.9997               176.7741               198.8566
 Red. masses --      2.3406                 3.2646                 1.2169
 Frc consts  --      0.0244                 0.0601                 0.0284
 IR Inten    --     20.6235                11.4410                 1.4145

                     10                     11                     12
                      A                      A                      A
 Frequencies --    207.8906               236.9747               250.9692
 Red. masses --      1.7312                 2.0957                 2.4359
 Frc consts  --      0.0441                 0.0693                 0.0904
 IR Inten    --      4.1559                 0.3066                 4.5851

                     13                     14                     15
                      A                      A                      A
 Frequencies --    290.2338               325.3420               397.6441
 Red. masses --      3.0802                 3.1479                 1.6279
 Frc consts  --      0.1529                 0.1963                 0.1517
 IR Inten    --     37.2078                10.9824                50.8959

                     16                     17                     18
                      A                      A                      A
 Frequencies --    420.6803               456.2244               481.9526
 Red. masses --      2.0154                 9.0498                 3.9864
 Frc consts  --      0.2101                 1.1098                 0.5456
 IR Inten    --     78.5273                 7.5062                74.1531

                     19                     20                     21
                      A                      A                      A
 Frequencies --    612.5882               725.1343               761.1562
 Red. masses --      2.9218                 1.5179                 4.7325
 Frc consts  --      0.6460                 0.4702                 1.6154
 IR Inten    --      7.4747                82.2983                29.8123

                     22                     23                     24
                      A                      A                      A
 Frequencies --    784.5305               962.7099               974.2804
 Red. masses --      6.1598                 1.5184                 3.3576
 Frc consts  --      2.2338                 0.8292                 1.8778
 IR Inten    --     22.8382                19.6191                14.2241

                     25                     26                     27
                      A                      A                      A
 Frequencies --   1020.0705              1023.1718              1056.5924
 Red. masses --      1.1984                 1.4523                 2.1384
 Frc consts  --      0.7347                 0.8958                 1.4066
 IR Inten    --     12.8166               111.3094                43.6257

                     28                     29                     30
                      A                      A                      A
 Frequencies --   1057.5129              1148.7858              1154.5372
 Red. masses --      1.3549                 2.1890                 1.3097
 Frc consts  --      0.8928                 1.7021                 1.0286
 IR Inten    --    139.1389                13.6286                11.7563

                     31                     32                     33
                      A                      A                      A
 Frequencies --   1173.3589              1184.3079              1231.0918
 Red. masses --      2.5588                 2.1080                 1.3587
 Frc consts  --      2.0756                 1.7420                 1.2132
 IR Inten    --    102.9347                 1.5447                64.2164

                     34                     35                     36
                      A                      A                      A
 Frequencies --   1238.0165              1282.9024              1327.8367
 Red. masses --      1.5354                 1.2674                 2.2459
 Frc consts  --      1.3866                 1.2290                 2.3331
 IR Inten    --     95.0985                21.0126               314.4845

                     37                     38                     39
                      A                      A                      A
 Frequencies --   1353.1215              1411.4687              1452.1895
 Red. masses --      1.3016                 1.2749                 1.3249
 Frc consts  --      1.4041                 1.4965                 1.6461
 IR Inten    --      6.7699                26.9905               165.1384

                     40                     41                     42
                      A                      A                      A
 Frequencies --   1454.4779              1466.2202              1478.0741
 Red. masses --      1.3886                 1.3962                 1.0699
 Frc consts  --      1.7307                 1.7684                 1.3772
 IR Inten    --     52.8805               107.5030                26.5127

                     43                     44                     45
                      A                      A                      A
 Frequencies --   1484.7775              1493.3286              1499.5732
 Red. masses --      1.0606                 1.0941                 1.2899
 Frc consts  --      1.3776                 1.4375                 1.7090
 IR Inten    --     12.7155                34.3892               119.0696

                     46                     47                     48
                      A                      A                      A
 Frequencies --   1508.3381              1509.1127              1559.3478
 Red. masses --      1.0375                 1.1075                 2.1466
 Frc consts  --      1.3908                 1.4861                 3.0753
 IR Inten    --     20.2341                32.7124               759.0232

                     49                     50                     51
                      A                      A                      A
 Frequencies --   1613.0020              1653.5350              3036.4709
 Red. masses --      5.3019                 1.1097                 1.0445
 Frc consts  --      8.1274                 1.7876                 5.6742
 IR Inten    --    452.8102                22.6061               103.9014

                     52                     53                     54
                      A                      A                      A
 Frequencies --   3067.8557              3071.5434              3107.4332
 Red. masses --      1.0363                 1.0330                 1.0926
 Frc consts  --      5.7466                 5.7419                 6.2158
 IR Inten    --     17.6175                37.2554                44.7097

                     55                     56                     57
                      A                      A                      A
 Frequencies --   3139.7435              3148.9981              3150.5482
 Red. masses --      1.1008                 1.1050                 1.1016
 Frc consts  --      6.3938                 6.4561                 6.4421
 IR Inten    --     19.2208                10.9478                17.3395

                     58                     59                     60
                      A                      A                      A
 Frequencies --   3154.6097              3167.5223              3171.9327
 Red. masses --      1.1028                 1.1054                 1.0914
 Frc consts  --      6.4659                 6.5342                 6.4694
 IR Inten    --     25.6649                16.5789                21.2181

                     61                     62                     63
                      A                      A                      A
 Frequencies --   3501.5133              3588.3046              3681.1150
 Red. masses --      1.0519                 1.0959                 1.0775
 Frc consts  --      7.5988                 8.3135                 8.6024
 IR Inten    --     31.8431                63.3158                68.1468

 - Thermochemistry -
 -------------------
 Temperature   298.150 Kelvin.  Pressure   1.00000 Atm.
 Atom     1 has atomic number  6 and mass  12.00000

 Molecular mass:   164.07164 amu.
 Principal axes and moments of inertia in atomic units:
                           1         2         3
     Eigenvalues --  1247.880932311.861292842.59599
           X            0.99987  -0.01513  -0.00603
           Y            0.01477   0.99837  -0.05511
           Z            0.00686   0.05501   0.99846
 This molecule is an asymmetric top.
 Rotational symmetry number  1.
 Warning -- assumption of classical behavior for rotation
           may cause significant error
 Rotational temperatures (Kelvin)      0.06941     0.03747     0.03047
 Rotational constants (GHZ):           1.44624     0.78064     0.63489
    1 imaginary frequencies ignored.
 Zero-point vibrational energy     512289.9 (Joules/Mol)
                                  122.44023 (Kcal/Mol)
 Warning -- explicit consideration of  18 degrees of freedom as
           vibrations may cause significant error
 Vibrational temperatures:     65.53   100.51   118.56   144.05   188.45
          (Kelvin)            191.36   254.34   286.11   299.11   340.95
                              361.09   417.58   468.09   572.12   605.27
                              656.41   693.42   881.38  1043.31  1095.13
                             1128.76  1385.12  1401.77  1467.65  1472.12
                             1520.20  1521.53  1652.85  1661.12  1688.20
                             1703.95  1771.27  1781.23  1845.81  1910.46
                             1946.84  2030.79  2089.38  2092.67  2109.56
                             2126.62  2136.26  2148.57  2157.55  2170.16
                             2171.28  2243.55  2320.75  2379.07  4368.80
                             4413.96  4419.27  4470.90  4517.39  4530.71
                             4532.94  4538.78  4557.36  4563.70  5037.90
                             5162.77  5296.30

 Zero-point correction=                           0.195121 (Hartree/Particle)
 Thermal correction to Energy=                    0.207905
 Thermal correction to Enthalpy=                  0.208849
 Thermal correction to Gibbs Free Energy=         0.155461
 Sum of electronic and zero-point Energies=           -881.219397
 Sum of electronic and thermal Energies=              -881.206612
 Sum of electronic and thermal Enthalpies=            -881.205668
 Sum of electronic and thermal Free Energies=         -881.259056

                     E (Thermal)             CV                S
                      KCal/Mol        Cal/Mol-Kelvin    Cal/Mol-Kelvin
 Total                  130.463             43.628            112.365
 Electronic               0.000              0.000              0.000
 Translational            0.889              2.981             41.194
 Rotational               0.889              2.981             30.484
 Vibrational            128.685             37.667             40.687
 Vibration     1          0.595              1.979              5.002
 Vibration     2          0.598              1.968              4.157
 Vibration     3          0.600              1.961              3.833
 Vibration     4          0.604              1.949              3.452
 Vibration     5          0.612              1.922              2.932
 Vibration     6          0.613              1.920              2.902
 Vibration     7          0.628              1.871              2.362
 Vibration     8          0.637              1.841              2.144
 Vibration     9          0.641              1.829              2.062
 Vibration    10          0.656              1.784              1.825
 Vibration    11          0.663              1.761              1.724
 Vibration    12          0.686              1.692              1.473
 Vibration    13          0.709              1.625              1.283
 Vibration    14          0.764              1.475              0.971
 Vibration    15          0.783              1.425              0.890
 Vibration    16          0.814              1.347              0.777
 Vibration    17          0.838              1.290              0.705
 Vibration    18          0.972              1.005              0.429

 Optimization completed.
    -- Stationary point found.
 Normal termination of Gaussian 16 at Sat Apr 10 13:13:52 2021.
