 Gaussian 16, Revision A.03,
 Gaussian 16:  ES64L-G16RevA.03 25-Dec-2016

 ----------------------------------------------------------------------
 # wB97XD def2tzvp, opt=(ts, noeigen, calcfc, maxcycles=70, maxstep=1),
  freq=noraman, scrf=(iefpcm, solvent=water)
 ----------------------------------------------------------------------

 ------------------------
 0_iteration/TS-461-0.out
 ------------------------
 Symbolic Z-matrix:
 Charge =  0 Multiplicity = 1

 SCF Done:  E(RwB97XD) =  -461.107389339     A.U. after   14 cycles
 SCF Done:  E(RwB97XD) =  -461.107303683     A.U. after   10 cycles
 SCF Done:  E(RwB97XD) =  -461.107222361     A.U. after   10 cycles
 SCF Done:  E(RwB97XD) =  -461.107145467     A.U. after   10 cycles
 SCF Done:  E(RwB97XD) =  -461.107073048     A.U. after   10 cycles
 SCF Done:  E(RwB97XD) =  -461.107005151     A.U. after   10 cycles
 SCF Done:  E(RwB97XD) =  -461.106941829     A.U. after   10 cycles
 SCF Done:  E(RwB97XD) =  -461.106883151     A.U. after   10 cycles
 SCF Done:  E(RwB97XD) =  -461.106829211     A.U. after   10 cycles
 SCF Done:  E(RwB97XD) =  -461.106780140     A.U. after   10 cycles
 SCF Done:  E(RwB97XD) =  -461.108220888     A.U. after    9 cycles
 SCF Done:  E(RwB97XD) =  -461.108284939     A.U. after    9 cycles
 SCF Done:  E(RwB97XD) =  -461.108338426     A.U. after    9 cycles
 SCF Done:  E(RwB97XD) =  -461.108376558     A.U. after   10 cycles
 SCF Done:  E(RwB97XD) =  -461.108400900     A.U. after    9 cycles
 SCF Done:  E(RwB97XD) =  -461.108414905     A.U. after    9 cycles
 SCF Done:  E(RwB97XD) =  -461.108418770     A.U. after    9 cycles
 SCF Done:  E(RwB97XD) =  -461.108418269     A.U. after   10 cycles
 SCF Done:  E(RwB97XD) =  -461.108418908     A.U. after    9 cycles
 Optimization completed.
    -- Stationary point found.
 Normal termination of Gaussian 16 at Sat Feb 13 09:23:11 2021.

 ---------------------------------------------------------------------
 #N Geom=AllCheck Guess=TCheck SCRF=Check GenChk RwB97XD/def2TZVP Freq
 ---------------------------------------------------------------------

 Structure from the checkpoint file:  "/beegfs/scratch/user/q/tla25/Gau-85384.chk"
 ------------------------
 0_iteration/TS-461-0.out
 ------------------------
 Charge =  0 Multiplicity = 1

                         Standard orientation:
 ---------------------------------------------------------------------
 Center     Atomic      Atomic             Coordinates (Angstroms)
 Number     Number       Type             X           Y           Z
 ---------------------------------------------------------------------
      1          6           0        0.107736    0.987252    0.118767
      2          6           0        1.382560    0.374785   -0.050291
      3          8           0        2.386516    0.948265   -0.521997
      4          6           0       -1.012704    0.238379    0.564447
      5          6           0       -2.509461   -1.926441   -0.422442
      6          1           0       -2.598472   -2.648019   -1.233931
      7          1           0       -2.161608   -2.438602    0.474055
      8          1           0       -3.484767   -1.488063   -0.226960
      9          7           0       -1.555641   -0.866569   -0.757956
     10          1           0       -0.666305   -1.254465   -1.058809
     11          1           0       -1.897394   -0.271511   -1.504585
     12          6           0       -2.280037    0.971338    0.929656
     13          1           0       -2.074702    1.632559    1.772816
     14          1           0       -2.639536    1.588028    0.105261
     15          1           0       -3.073111    0.286859    1.227887
     16          1           0       -0.819166   -0.567474    1.271279
     17          6           0       -0.093582    2.373258   -0.441056
     18          1           0       -0.590091    3.046676    0.264961
     19          1           0        0.874128    2.808949   -0.685610
     20          1           0       -0.693867    2.388633   -1.361349
     21          7           0        1.513099   -0.982942    0.271730
     22          6           0        2.838545   -1.556842    0.368746
     23          1           0        0.874597   -1.332040    0.965770
     24          1           0        3.461398   -1.072348    1.128811
     25          1           0        2.741441   -2.612860    0.619411
     26          1           0        3.354783   -1.476242   -0.586412
 ---------------------------------------------------------------------

 SCF Done:  E(RwB97XD) =  -461.108418908     A.U. after    1 cycles

 The electronic state is 1-A.
 Alpha  occ. eigenvalues --  -19.17656 -14.49352 -14.42747 -10.34875 -10.33348
 Alpha  occ. eigenvalues --  -10.32191 -10.29614 -10.27816 -10.25590 -10.23276
 Alpha  occ. eigenvalues --   -1.09938  -1.04850  -0.98970  -0.89971  -0.82174
 Alpha  occ. eigenvalues --   -0.79660  -0.78594  -0.73573  -0.67953  -0.63740
 Alpha  occ. eigenvalues --   -0.62728  -0.59917  -0.56014  -0.55501  -0.53703
 Alpha  occ. eigenvalues --   -0.51984  -0.50494  -0.49648  -0.48733  -0.47508
 Alpha  occ. eigenvalues --   -0.47476  -0.46440  -0.45783  -0.43967  -0.42865
 Alpha  occ. eigenvalues --   -0.42422  -0.41627  -0.32935  -0.31364  -0.24163
 Alpha virt. eigenvalues --    0.08961   0.09600   0.12079   0.13504   0.13996
 Alpha virt. eigenvalues --    0.15150   0.16389   0.17253   0.17511   0.18854
 Alpha virt. eigenvalues --    0.19148   0.19414   0.20242   0.21008   0.21628

 Mulliken charges:
               1
     1  C   -0.193423
     2  C    0.309140
     3  O   -0.597811
     4  C   -0.126820
     5  C   -0.293536
     6  H    0.160079
     7  H    0.152747
     8  H    0.159978
     9  N   -0.240091
    10  H    0.275062
    11  H    0.284889
    12  C   -0.383668
    13  H    0.148275
    14  H    0.143995
    15  H    0.142502
    16  H    0.141457
    17  C   -0.404906
    18  H    0.115777
    19  H    0.122156
    20  H    0.105090
    21  N   -0.352138
    22  C   -0.262593
    23  H    0.233967
    24  H    0.107873
    25  H    0.129627
    26  H    0.122371
 Sum of Mulliken charges =  -0.00000

 Dipole moment (field-independent basis, Debye):
    X=            -10.2926    Y=             -7.1132    Z=              0.3844  Tot=             12.5173
 Quadrupole moment (field-independent basis, Debye-Ang):
   XX=            -66.6177   YY=            -62.3023   ZZ=            -60.6974
   XY=             -4.1790   XZ=              7.5022   YZ=              1.5417

  Exact polarizability: 180.513   8.017 150.847  -2.068  -1.252 119.064
 Approx polarizability: 134.001   7.098 118.745  -2.909  -1.468 102.884

 ******    1 imaginary frequencies (negative Signs) ******

                      1                      2                      3
                      A                      A                      A
 Frequencies --   -379.5838                55.0130                72.5331
 Red. masses --      5.8796                 3.0783                 2.0185
 Frc consts  --      0.4991                 0.0055                 0.0063
 IR Inten    --    802.2671                 0.9982                20.3628

                      4                      5                      6
                      A                      A                      A
 Frequencies --     95.6875               129.5046               130.1231
 Red. masses --      2.4473                 1.3598                 1.5769
 Frc consts  --      0.0132                 0.0134                 0.0157
 IR Inten    --      6.6550                 3.0348                11.5919

                      7                      8                      9
                      A                      A                      A
 Frequencies --    145.6749               167.1724               178.8006
 Red. masses --      1.5254                 2.0134                 1.2961
 Frc consts  --      0.0191                 0.0332                 0.0244
 IR Inten    --      2.6051                 3.1280                 2.5363

                     10                     11                     12
                      A                      A                      A
 Frequencies --    219.9524               244.5769               270.6224
 Red. masses --      2.7735                 1.6368                 1.5211
 Frc consts  --      0.0791                 0.0577                 0.0656
 IR Inten    --      3.4121                 5.1070                 3.9179

                     13                     14                     15
                      A                      A                      A
 Frequencies --    294.5015               328.0849               362.4767
 Red. masses --      2.6758                 2.4533                 3.1783
 Frc consts  --      0.1367                 0.1556                 0.2460
 IR Inten    --     34.8293                25.1226                25.6488

                     16                     17                     18
                      A                      A                      A
 Frequencies --    404.9695               480.9612               509.1049
 Red. masses --      3.2092                 3.1126                 1.6544
 Frc consts  --      0.3101                 0.4242                 0.2526
 IR Inten    --     12.8398                33.9435               267.7034

                     19                     20                     21
                      A                      A                      A
 Frequencies --    533.8146               672.1987               730.2371
 Red. masses --      4.4508                 2.2839                 1.3710
 Frc consts  --      0.7473                 0.6080                 0.4307
 IR Inten    --     23.1287                40.3679                48.8371

                     22                     23                     24
                      A                      A                      A
 Frequencies --    785.2143               827.6182               938.7167
 Red. masses --      8.4532                 2.5664                 1.8399
 Frc consts  --      3.0708                 1.0357                 0.9552
 IR Inten    --     64.2265                29.2805                34.8651

                     25                     26                     27
                      A                      A                      A
 Frequencies --    992.3085              1022.3570              1039.5569
 Red. masses --      1.3809                 1.6027                 1.7126
 Frc consts  --      0.8011                 0.9870                 1.0904
 IR Inten    --     42.4577                26.6384                48.8276

                     28                     29                     30
                      A                      A                      A
 Frequencies --   1054.2189              1065.9210              1080.2729
 Red. masses --      1.7221                 1.4058                 1.7174
 Frc consts  --      1.1276                 0.9411                 1.1808
 IR Inten    --     50.0460                29.1858                49.5740

                     31                     32                     33
                      A                      A                      A
 Frequencies --   1105.9474              1141.0436              1148.9174
 Red. masses --      1.7340                 1.4122                 1.9889
 Frc consts  --      1.2496                 1.0833                 1.5469
 IR Inten    --    133.7528                16.6016                17.9363

                     34                     35                     36
                      A                      A                      A
 Frequencies --   1163.7045              1205.5512              1239.0679
 Red. masses --      1.7112                 2.7471                 1.1180
 Frc consts  --      1.3653                 2.3523                 1.0113
 IR Inten    --    126.4030                86.4211               220.9634

                     37                     38                     39
                      A                      A                      A
 Frequencies --   1264.1873              1325.0565              1353.5606
 Red. masses --      1.3953                 1.9355                 1.2796
 Frc consts  --      1.3138                 2.0022                 1.3813
 IR Inten    --     16.0630               207.7827                 3.7930

                     40                     41                     42
                      A                      A                      A
 Frequencies --   1382.3750              1401.6115              1415.1817
 Red. masses --      1.7202                 1.8607                 1.2935
 Frc consts  --      1.9368                 2.1537                 1.5264
 IR Inten    --     90.5223                62.2520                35.9513

                     43                     44                     45
                      A                      A                      A
 Frequencies --   1447.5380              1456.9306              1469.1989
 Red. masses --      1.4263                 1.3288                 1.3382
 Frc consts  --      1.7608                 1.6618                 1.7020
 IR Inten    --    157.2043                41.5587                55.0811

                     46                     47                     48
                      A                      A                      A
 Frequencies --   1476.5662              1486.5354              1491.8954
 Red. masses --      1.0788                 1.0619                 1.0763
 Frc consts  --      1.3858                 1.3825                 1.4114
 IR Inten    --     21.6080                 3.2196                27.9621

                     49                     50                     51
                      A                      A                      A
 Frequencies --   1493.5019              1496.3354              1500.9250
 Red. masses --      1.0516                 1.1055                 1.0753
 Frc consts  --      1.3819                 1.4583                 1.4272
 IR Inten    --      7.7978                44.4169                16.2868

                     52                     53                     54
                      A                      A                      A
 Frequencies --   1505.2292              1513.5035              1541.9821
 Red. masses --      1.1207                 1.0802                 1.5897
 Frc consts  --      1.4961                 1.4578                 2.2270
 IR Inten    --     41.4083                32.1620               226.8531

                     55                     56                     57
                      A                      A                      A
 Frequencies --   1622.9804              1643.0449              2985.4370
 Red. masses --      4.1476                 1.0861                 1.0556
 Frc consts  --      6.4368                 1.7275                 5.5431
 IR Inten    --   1045.2821                39.4744               149.6367

                     58                     59                     60
                      A                      A                      A
 Frequencies --   3022.5199              3044.3595              3065.1089
 Red. masses --      1.0492                 1.0862                 1.0365
 Frc consts  --      5.6473                 5.9313                 5.7373
 IR Inten    --    120.5184                82.2314                21.6313

                     61                     62                     63
                      A                      A                      A
 Frequencies --   3073.4690              3098.5048              3107.5974
 Red. masses --      1.0338                 1.0880                 1.0857
 Frc consts  --      5.7537                 6.1543                 6.1776
 IR Inten    --     41.4770                42.7432                49.6495

                     64                     65                     66
                      A                      A                      A
 Frequencies --   3136.5714              3137.8132              3147.4716
 Red. masses --      1.0972                 1.0971                 1.1042
 Frc consts  --      6.3601                 6.3641                 6.4447
 IR Inten    --     15.7767                27.5394                30.1265

                     67                     68                     69
                      A                      A                      A
 Frequencies --   3150.4373              3150.5765              3176.8230
 Red. masses --      1.1030                 1.1060                 1.1048
 Frc consts  --      6.4499                 6.4684                 6.5695
 IR Inten    --     42.8365                13.3277                13.8305

                     70                     71                     72
                      A                      A                      A
 Frequencies --   3504.4930              3589.3485              3646.0431
 Red. masses --      1.0536                 1.0944                 1.0753
 Frc consts  --      7.6238                 8.3076                 8.4221
 IR Inten    --     26.5538                66.9700                 9.4178

 - Thermochemistry -
 -------------------
 Temperature   298.150 Kelvin.  Pressure   1.00000 Atm.
 Atom     1 has atomic number  6 and mass  12.00000

 Molecular mass:   144.12626 amu.
 Principal axes and moments of inertia in atomic units:
                           1         2         3
     Eigenvalues --  1118.632692001.118992756.68085
           X            0.99958  -0.02835   0.00514
           Y            0.02837   0.99959  -0.00379
           Z           -0.00503   0.00394   0.99998
 This molecule is an asymmetric top.
 Rotational symmetry number  1.
 Warning -- assumption of classical behavior for rotation
           may cause significant error
 Rotational temperatures (Kelvin)      0.07743     0.04328     0.03142
 Rotational constants (GHZ):           1.61335     0.90187     0.65468
    1 imaginary frequencies ignored.
 Zero-point vibrational energy     611059.3 (Joules/Mol)
                                  146.04668 (Kcal/Mol)
 Warning -- explicit consideration of  18 degrees of freedom as
           vibrations may cause significant error
 Vibrational temperatures:     79.15   104.36   137.67   186.33   187.22
          (Kelvin)            209.59   240.52   257.25   316.46   351.89
                              389.37   423.72   472.04   521.52   582.66
                              692.00   732.49   768.04   967.14  1050.65
                             1129.75  1190.76  1350.60  1427.71  1470.94
                             1495.69  1516.79  1533.62  1554.27  1591.21
                             1641.71  1653.04  1674.31  1734.52  1782.74
                             1818.88  1906.46  1947.47  1988.93  2016.61
                             2036.13  2082.68  2096.20  2113.85  2124.45
                             2138.79  2146.50  2148.82  2152.89  2159.50
                             2165.69  2177.59  2218.57  2335.11  2363.98
                             4295.38  4348.73  4380.15  4410.01  4422.04
                             4458.06  4471.14  4512.83  4514.61  4528.51
                             4532.78  4532.98  4570.74  5042.18  5164.27
                             5245.84

 Zero-point correction=                           0.232740 (Hartree/Particle)
 Thermal correction to Energy=                    0.245603
 Thermal correction to Enthalpy=                  0.246547
 Thermal correction to Gibbs Free Energy=         0.193851
 Sum of electronic and zero-point Energies=           -460.875679
 Sum of electronic and thermal Energies=              -460.862816
 Sum of electronic and thermal Enthalpies=            -460.861872
 Sum of electronic and thermal Free Energies=         -460.914568

                     E (Thermal)             CV                S
                      KCal/Mol        Cal/Mol-Kelvin    Cal/Mol-Kelvin
 Total                  154.118             45.220            110.908
 Electronic               0.000              0.000              0.000
 Translational            0.889              2.981             40.808
 Rotational               0.889              2.981             30.202
 Vibrational            152.341             39.259             39.898
 Vibration     1          0.596              1.976              4.629
 Vibration     2          0.599              1.967              4.083
 Vibration     3          0.603              1.952              3.540
 Vibration     4          0.612              1.924              2.953
 Vibration     5          0.612              1.923              2.944
 Vibration     6          0.617              1.907              2.728
 Vibration     7          0.624              1.883              2.467
 Vibration     8          0.629              1.868              2.341
 Vibration     9          0.647              1.811              1.959
 Vibration    10          0.660              1.772              1.769
 Vibration    11          0.674              1.727              1.592
 Vibration    12          0.689              1.684              1.448
 Vibration    13          0.711              1.619              1.269
 Vibration    14          0.736              1.550              1.111
 Vibration    15          0.770              1.459              0.945
 Vibration    16          0.837              1.292              0.707
 Vibration    17          0.864              1.230              0.636
 Vibration    18          0.889              1.175              0.579

 Optimization completed.
    -- Stationary point found.
 Normal termination of Gaussian 16 at Sat Feb 13 09:45:31 2021.
