 Gaussian 16, Revision A.03,
 Gaussian 16:  ES64L-G16RevA.03 25-Dec-2016

 ----------------------------------------------------------------------
 # wB97XD def2tzvp, opt=(ts, noeigen, calcfc, maxcycles=70, maxstep=1),
  freq=noraman, scrf=(iefpcm, solvent=water)
 ----------------------------------------------------------------------

 ------------------------
 0_iteration/TS-444-0.out
 ------------------------
 Symbolic Z-matrix:
 Charge =  0 Multiplicity = 1

 SCF Done:  E(RwB97XD) =  -672.721306900     A.U. after   14 cycles
 SCF Done:  E(RwB97XD) =  -672.721285355     A.U. after    9 cycles
 SCF Done:  E(RwB97XD) =  -672.721268310     A.U. after   10 cycles
 SCF Done:  E(RwB97XD) =  -672.721255799     A.U. after   10 cycles
 SCF Done:  E(RwB97XD) =  -672.721248112     A.U. after   10 cycles
 SCF Done:  E(RwB97XD) =  -672.721246698     A.U. after   10 cycles
 SCF Done:  E(RwB97XD) =  -672.721253994     A.U. after   10 cycles
 SCF Done:  E(RwB97XD) =  -672.721259573     A.U. after   10 cycles
 SCF Done:  E(RwB97XD) =  -672.721268429     A.U. after   10 cycles
 SCF Done:  E(RwB97XD) =  -672.721295603     A.U. after   11 cycles
 SCF Done:  E(RwB97XD) =  -672.721679192     A.U. after   10 cycles
 SCF Done:  E(RwB97XD) =  -672.721678247     A.U. after   10 cycles
 SCF Done:  E(RwB97XD) =  -672.721679470     A.U. after   10 cycles
 SCF Done:  E(RwB97XD) =  -672.721679624     A.U. after    8 cycles
 SCF Done:  E(RwB97XD) =  -672.721679437     A.U. after    8 cycles
 SCF Done:  E(RwB97XD) =  -672.721678144     A.U. after    9 cycles
 SCF Done:  E(RwB97XD) =  -672.721679162     A.U. after   10 cycles
 SCF Done:  E(RwB97XD) =  -672.721679417     A.U. after    9 cycles
 SCF Done:  E(RwB97XD) =  -672.721679557     A.U. after    7 cycles
 Optimization completed.
    -- Stationary point found.
 Normal termination of Gaussian 16 at Sat Feb 13 12:26:42 2021.

 ---------------------------------------------------------------------
 #N Geom=AllCheck Guess=TCheck SCRF=Check GenChk RwB97XD/def2TZVP Freq
 ---------------------------------------------------------------------

 Structure from the checkpoint file:  "/beegfs/scratch/user/q/tla25/Gau-75660.chk"
 ------------------------
 0_iteration/TS-444-0.out
 ------------------------
 Charge =  0 Multiplicity = 1

                         Standard orientation:
 ---------------------------------------------------------------------
 Center     Atomic      Atomic             Coordinates (Angstroms)
 Number     Number       Type             X           Y           Z
 ---------------------------------------------------------------------
      1          6           0       -0.399531    0.143795   -0.479929
      2          6           0       -0.900194    1.469799   -0.333193
      3          8           0       -2.087654    1.801214   -0.350411
      4          6           0       -1.360997   -0.850591   -0.733127
      5          6           0       -3.457125   -2.044431    0.904387
      6          1           0       -4.026719   -1.957376    1.830682
      7          1           0       -4.097126   -1.762109    0.068478
      8          1           0       -3.148592   -3.079786    0.777384
      9          7           0       -2.278209   -1.181727    0.907433
     10          1           0       -2.518024   -0.224150    1.138811
     11          1           0       -1.572838   -1.496085    1.563156
     12          6           0       -0.975241   -2.242032   -1.145136
     13          1           0       -0.578640   -2.215621   -2.161409
     14          1           0       -0.202882   -2.657630   -0.497894
     15          1           0       -1.836397   -2.908468   -1.146687
     16          1           0       -2.269855   -0.489175   -1.203632
     17          6           0        1.010810   -0.190431   -0.151419
     18          6           0        1.877406   -0.720941   -1.108497
     19          6           0        3.185999   -1.059535   -0.792239
     20          6           0        3.665980   -0.863007    0.494342
     21          6           0        2.823000   -0.329026    1.460102
     22          6           0        1.514012   -0.003789    1.139043
     23          1           0        1.518397   -0.864742   -2.120603
     24          1           0        3.834590   -1.470733   -1.556388
     25          1           0        4.687650   -1.122039    0.742795
     26          1           0        3.185035   -0.171896    2.469056
     27          1           0        0.861551    0.406275    1.901365
     28          8           0        0.068291    2.410425   -0.165295
     29          6           0       -0.372326    3.743565    0.031744
     30          1           0        0.527961    4.337504    0.173537
     31          1           0       -0.922945    4.111273   -0.835191
     32          1           0       -1.009549    3.823486    0.913685
 ---------------------------------------------------------------------

 SCF Done:  E(RwB97XD) =  -672.721679557     A.U. after    1 cycles

 The electronic state is 1-A.
 Alpha  occ. eigenvalues --  -19.27314 -19.20286 -14.47652 -10.38401 -10.33249
 Alpha  occ. eigenvalues --  -10.32212 -10.31648 -10.29189 -10.28414 -10.28399
 Alpha  occ. eigenvalues --  -10.28286 -10.28010 -10.28001 -10.27803 -10.24893
 Alpha  occ. eigenvalues --   -1.18446  -1.08718  -1.03238  -0.96060  -0.90539
 Alpha  occ. eigenvalues --   -0.85017  -0.84253  -0.82295  -0.79183  -0.77533
 Alpha  occ. eigenvalues --   -0.70176  -0.69594  -0.67625  -0.63367  -0.62389
 Alpha  occ. eigenvalues --   -0.60734  -0.58461  -0.56239  -0.56127  -0.55113
 Alpha  occ. eigenvalues --   -0.54346  -0.53202  -0.53101  -0.51323  -0.50178
 Alpha  occ. eigenvalues --   -0.49952  -0.48987  -0.48004  -0.46603  -0.46191
 Alpha  occ. eigenvalues --   -0.45628  -0.45105  -0.42975  -0.42184  -0.41192
 Alpha  occ. eigenvalues --   -0.40818  -0.37327  -0.35347  -0.33092  -0.32428
 Alpha  occ. eigenvalues --   -0.26094
 Alpha virt. eigenvalues --    0.05608   0.05820   0.07416   0.09946   0.12781
 Alpha virt. eigenvalues --    0.13375   0.14177   0.14776   0.15674   0.16318
 Alpha virt. eigenvalues --    0.16724   0.17675   0.18408   0.18510   0.18752

 Mulliken charges:
               1
     1  C   -0.251845
     2  C    0.422725
     3  O   -0.548467
     4  C   -0.029835
     5  C   -0.296372
     6  H    0.152439
     7  H    0.151639
     8  H    0.156762
     9  N   -0.318842
    10  H    0.277617
    11  H    0.276783
    12  C   -0.357278
    13  H    0.143320
    14  H    0.144230
    15  H    0.143823
    16  H    0.141127
    17  C    0.207016
    18  C   -0.256948
    19  C   -0.143942
    20  C   -0.158455
    21  C   -0.134485
    22  C   -0.279651
    23  H    0.141757
    24  H    0.136566
    25  H    0.139574
    26  H    0.136746
    27  H    0.133572
    28  O   -0.309864
    29  C   -0.194277
    30  H    0.133344
    31  H    0.121222
    32  H    0.119999
 Sum of Mulliken charges =  -0.00000

 Dipole moment (field-independent basis, Debye):
    X=             -2.6811    Y=             -5.5517    Z=              3.3158  Tot=              7.0003
 Quadrupole moment (field-independent basis, Debye-Ang):
   XX=            -83.7436   YY=            -84.4812   ZZ=            -82.9633
   XY=             12.6220   XZ=             -6.1967   YZ=              1.7512

  Exact polarizability: 251.205  -2.290 211.375  -2.239   8.371 199.396
 Approx polarizability: 194.990  -5.925 162.757  -0.697   7.665 171.054

 ******    1 imaginary frequencies (negative Signs) ******

                      1                      2                      3
                      A                      A                      A
 Frequencies --   -367.1775                34.6651                38.5913
 Red. masses --      6.1579                 3.6471                 3.4626
 Frc consts  --      0.4891                 0.0026                 0.0030
 IR Inten    --    856.0170                 1.2192                 2.2111

                      4                      5                      6
                      A                      A                      A
 Frequencies --     68.6504                76.7706                81.6487
 Red. masses --      3.6122                 2.4496                 3.3623
 Frc consts  --      0.0100                 0.0085                 0.0132
 IR Inten    --      6.7496                 2.5353                 2.7552

                      7                      8                      9
                      A                      A                      A
 Frequencies --     94.2191               130.2423               152.1384
 Red. masses --      2.7602                 3.0450                 1.7014
 Frc consts  --      0.0144                 0.0304                 0.0232
 IR Inten    --      4.5017                19.7080                 0.6283

                     10                     11                     12
                      A                      A                      A
 Frequencies --    174.3685               177.6114               214.8925
 Red. masses --      1.4722                 2.0158                 2.1486
 Frc consts  --      0.0264                 0.0375                 0.0585
 IR Inten    --      3.0296                 1.0963                 2.6404

                     13                     14                     15
                      A                      A                      A
 Frequencies --    252.3410               264.9987               289.0749
 Red. masses --      4.0396                 1.1319                 3.4779
 Frc consts  --      0.1516                 0.0468                 0.1712
 IR Inten    --      7.1473                 1.5813                75.7549

                     16                     17                     18
                      A                      A                      A
 Frequencies --    324.2150               335.2032               406.2663
 Red. masses --      4.2607                 2.3651                 7.3181
 Frc consts  --      0.2639                 0.1566                 0.7117
 IR Inten    --      7.8528                 7.4276                10.2198

                     19                     20                     21
                      A                      A                      A
 Frequencies --    423.2462               426.9501               502.0815
 Red. masses --      3.0362                 2.9577                 3.4240
 Frc consts  --      0.3205                 0.3177                 0.5085
 IR Inten    --     13.1819                 2.8065                27.6663

                     22                     23                     24
                      A                      A                      A
 Frequencies --    526.7882               613.5509               640.0754
 Red. masses --      5.8298                 3.2722                 5.5686
 Frc consts  --      0.9532                 0.7258                 1.3442
 IR Inten    --     61.3286                23.5672                 3.1601

                     25                     26                     27
                      A                      A                      A
 Frequencies --    668.3904               704.6952               729.1770
 Red. masses --      1.6752                 2.9619                 1.4964
 Frc consts  --      0.4409                 0.8666                 0.4688
 IR Inten    --     40.9931                 1.9307                93.3034

                     28                     29                     30
                      A                      A                      A
 Frequencies --    776.5092               799.1182               812.5830
 Red. masses --      4.6055                 4.7063                 3.3052
 Frc consts  --      1.6361                 1.7707                 1.2858
 IR Inten    --      5.4031                27.3977                85.4724

                     31                     32                     33
                      A                      A                      A
 Frequencies --    878.2447               945.5872               963.4829
 Red. masses --      1.2487                 1.8063                 1.8773
 Frc consts  --      0.5675                 0.9516                 1.0268
 IR Inten    --      1.1863                 7.2667                24.2220

                     34                     35                     36
                      A                      A                      A
 Frequencies --    967.6037              1005.8954              1010.3052
 Red. masses --      2.4108                 1.2499                 1.3712
 Frc consts  --      1.3298                 0.7451                 0.8246
 IR Inten    --     27.3317                 9.8481                 0.2966

                     37                     38                     39
                      A                      A                      A
 Frequencies --   1023.6824              1026.0591              1041.7523
 Red. masses --      1.3838                 4.6430                 1.5636
 Frc consts  --      0.8544                 2.8800                 0.9998
 IR Inten    --      0.4392                 1.0221                58.8126

                     40                     41                     42
                      A                      A                      A
 Frequencies --   1049.8532              1062.5143              1075.5773
 Red. masses --      1.1921                 1.9872                 3.4636
 Frc consts  --      0.7742                 1.3218                 2.3608
 IR Inten    --     82.7526                13.8732               214.3823

                     43                     44                     45
                      A                      A                      A
 Frequencies --   1106.7891              1117.8800              1144.9131
 Red. masses --      1.6436                 3.4189                 2.5074
 Frc consts  --      1.1862                 2.5173                 1.9365
 IR Inten    --     40.3841               287.7895                 2.3215

                     46                     47                     48
                      A                      A                      A
 Frequencies --   1180.0079              1180.5861              1200.6850
 Red. masses --      1.1382                 1.2737                 1.6066
 Frc consts  --      0.9337                 1.0460                 1.3646
 IR Inten    --      0.4236                 1.7631                21.4108

                     49                     50                     51
                      A                      A                      A
 Frequencies --   1206.1348              1209.5910              1222.3961
 Red. masses --      1.1439                 1.3128                 1.6060
 Frc consts  --      0.9804                 1.1317                 1.4139
 IR Inten    --     23.3926               176.9795                58.6243

                     52                     53                     54
                      A                      A                      A
 Frequencies --   1229.0756              1303.0272              1316.0932
 Red. masses --      1.5346                 3.7151                 2.9378
 Frc consts  --      1.3658                 3.7165                 2.9981
 IR Inten    --    110.6486               185.6668               422.2510

                     55                     56                     57
                      A                      A                      A
 Frequencies --   1351.3869              1357.0413              1392.0322
 Red. masses --      1.3149                 1.4496                 2.6234
 Frc consts  --      1.4148                 1.5728                 2.9951
 IR Inten    --     16.5802                 3.7576                59.3069

                     58                     59                     60
                      A                      A                      A
 Frequencies --   1411.7887              1452.9011              1469.3649
 Red. masses --      1.3762                 1.5476                 1.4556
 Frc consts  --      1.6161                 1.9247                 1.8517
 IR Inten    --     19.2086               191.4195               126.1729

                     61                     62                     63
                      A                      A                      A
 Frequencies --   1478.1816              1480.6183              1486.7071
 Red. masses --      1.2099                 1.0678                 1.7153
 Frc consts  --      1.5576                 1.3793                 2.2338
 IR Inten    --     71.8134                16.3684                21.4806

                     64                     65                     66
                      A                      A                      A
 Frequencies --   1487.1276              1493.0570              1496.7350
 Red. masses --      1.1030                 1.0914                 1.0684
 Frc consts  --      1.4373                 1.4335                 1.4102
 IR Inten    --      5.1101                39.0889                 8.0295

                     67                     68                     69
                      A                      A                      A
 Frequencies --   1501.9763              1512.6064              1544.4784
 Red. masses --      1.2446                 1.1310                 2.4912
 Frc consts  --      1.6543                 1.5246                 3.5013
 IR Inten    --    150.3316                23.8670                32.8809

                     70                     71                     72
                      A                      A                      A
 Frequencies --   1640.7320              1644.4408              1662.0498
 Red. masses --      3.9950                 1.3450                 5.0607
 Frc consts  --      6.3364                 2.1429                 8.2367
 IR Inten    --     86.1238                69.4801               692.3732

                     73                     74                     75
                      A                      A                      A
 Frequencies --   1672.9139              3055.3963              3062.7449
 Red. masses --      5.9355                 1.0309                 1.0349
 Frc consts  --      9.7872                 5.6705                 5.7195
 IR Inten    --     65.7682                77.1432                56.8201

                     76                     77                     78
                      A                      A                      A
 Frequencies --   3066.6870              3127.2291              3135.9240
 Red. masses --      1.0366                 1.1062                 1.1008
 Frc consts  --      5.7439                 6.3738                 6.3784
 IR Inten    --     16.8283                46.7391                11.8633

                     79                     80                     81
                      A                      A                      A
 Frequencies --   3136.1263              3148.8120              3161.2183
 Red. masses --      1.1038                 1.1003                 1.1048
 Frc consts  --      6.3961                 6.4275                 6.5048
 IR Inten    --     29.9929                12.7047                30.3123

                     82                     83                     84
                      A                      A                      A
 Frequencies --   3164.4451              3168.2303              3183.3630
 Red. masses --      1.0997                 1.0972                 1.0860
 Frc consts  --      6.4881                 6.4890                 6.4840
 IR Inten    --     36.1460                27.8067                10.4388

                     85                     86                     87
                      A                      A                      A
 Frequencies --   3187.7424              3198.1202              3203.9169
 Red. masses --      1.0874                 1.0914                 1.0949
 Frc consts  --      6.5102                 6.5771                 6.6220
 IR Inten    --      1.2783                16.7596                57.6334

                     88                     89                     90
                      A                      A                      A
 Frequencies --   3216.1712              3522.4824              3606.0275
 Red. masses --      1.0986                 1.0511                 1.0968
 Frc consts  --      6.6955                 7.6838                 8.4030
 IR Inten    --     20.9627                17.2068                51.5726

 - Thermochemistry -
 -------------------
 Temperature   298.150 Kelvin.  Pressure   1.00000 Atm.
 Atom     1 has atomic number  6 and mass  12.00000

 Molecular mass:   207.12593 amu.
 Principal axes and moments of inertia in atomic units:
                           1         2         3
     Eigenvalues --  2687.957533781.590625391.48204
           X            0.99816   0.06016  -0.00701
           Y           -0.06007   0.99812   0.01227
           Z            0.00773  -0.01182   0.99990
 This molecule is an asymmetric top.
 Rotational symmetry number  1.
 Warning -- assumption of classical behavior for rotation
           may cause significant error
 Rotational temperatures (Kelvin)      0.03222     0.02290     0.01606
 Rotational constants (GHZ):           0.67142     0.47724     0.33474
    1 imaginary frequencies ignored.
 Zero-point vibrational energy     718283.2 (Joules/Mol)
                                  171.67381 (Kcal/Mol)
 Warning -- explicit consideration of  22 degrees of freedom as
           vibrations may cause significant error
 Vibrational temperatures:     49.88    55.52    98.77   110.46   117.47
          (Kelvin)            135.56   187.39   218.89   250.88   255.54
                              309.18   363.06   381.27   415.91   466.47
                              482.28   584.53   608.96   614.29   722.38
                              757.93   882.76   920.93   961.66  1013.90
                             1049.12  1117.22  1149.75  1169.13  1263.60
                             1360.49  1386.24  1392.17  1447.26  1453.60
                             1472.85  1476.27  1498.85  1510.50  1528.72
                             1547.52  1592.42  1608.38  1647.27  1697.77
                             1698.60  1727.52  1735.36  1740.33  1758.76
                             1768.37  1874.77  1893.56  1944.34  1952.48
                             2002.82  2031.25  2090.40  2114.09  2126.77
                             2130.28  2139.04  2139.64  2148.18  2153.47
                             2161.01  2176.30  2222.16  2360.65  2365.98
                             2391.32  2406.95  4396.03  4406.61  4412.28
                             4499.39  4511.90  4512.19  4530.44  4548.29
                             4552.93  4558.38  4580.15  4586.45  4601.38
                             4609.72  4627.35  5068.07  5188.27

 Zero-point correction=                           0.273580 (Hartree/Particle)
 Thermal correction to Energy=                    0.289358
 Thermal correction to Enthalpy=                  0.290302
 Thermal correction to Gibbs Free Energy=         0.229213
 Sum of electronic and zero-point Energies=           -672.448100
 Sum of electronic and thermal Energies=              -672.432321
 Sum of electronic and thermal Enthalpies=            -672.431377
 Sum of electronic and thermal Free Energies=         -672.492467

                     E (Thermal)             CV                S
                      KCal/Mol        Cal/Mol-Kelvin    Cal/Mol-Kelvin
 Total                  181.575             57.204            128.574
 Electronic               0.000              0.000              0.000
 Translational            0.889              2.981             41.888
 Rotational               0.889              2.981             32.372
 Vibrational            179.798             51.243             54.314
 Vibration     1          0.594              1.983              5.543
 Vibration     2          0.594              1.981              5.330
 Vibration     3          0.598              1.969              4.192
 Vibration     4          0.599              1.965              3.972
 Vibration     5          0.600              1.962              3.851
 Vibration     6          0.603              1.953              3.571
 Vibration     7          0.612              1.923              2.942
 Vibration     8          0.619              1.900              2.645
 Vibration     9          0.627              1.874              2.388
 Vibration    10          0.628              1.870              2.353
 Vibration    11          0.645              1.818              2.002
 Vibration    12          0.664              1.759              1.714
 Vibration    13          0.671              1.737              1.629
 Vibration    14          0.686              1.694              1.479
 Vibration    15          0.709              1.627              1.289
 Vibration    16          0.716              1.605              1.235
 Vibration    17          0.771              1.457              0.940
 Vibration    18          0.785              1.420              0.881
 Vibration    19          0.789              1.412              0.869
 Vibration    20          0.857              1.245              0.653
 Vibration    21          0.882              1.191              0.594
 Vibration    22          0.973              1.003              0.427

 Optimization completed.
    -- Stationary point found.
 Normal termination of Gaussian 16 at Sat Feb 13 13:29:52 2021.
