 Gaussian 16, Revision A.03,
 Gaussian 16:  ES64L-G16RevA.03 25-Dec-2016

 ----------------------------------------------------------------------
 # wB97XD def2tzvp, opt=(ts, noeigen, calcfc, maxcycles=70, maxstep=1),
  freq=noraman, scrf=(iefpcm, solvent=water)
 ----------------------------------------------------------------------

 ------------------------
 0_iteration/TS-450-0.out
 ------------------------
 Symbolic Z-matrix:
 Charge =  0 Multiplicity = 1

 SCF Done:  E(RwB97XD) =  -366.428214914     A.U. after   14 cycles
 SCF Done:  E(RwB97XD) =  -366.428178487     A.U. after   10 cycles
 SCF Done:  E(RwB97XD) =  -366.428146359     A.U. after   10 cycles
 SCF Done:  E(RwB97XD) =  -366.428119055     A.U. after   10 cycles
 SCF Done:  E(RwB97XD) =  -366.428097127     A.U. after   10 cycles
 SCF Done:  E(RwB97XD) =  -366.428081040     A.U. after   10 cycles
 SCF Done:  E(RwB97XD) =  -366.428071236     A.U. after   10 cycles
 SCF Done:  E(RwB97XD) =  -366.428069111     A.U. after   10 cycles
 SCF Done:  E(RwB97XD) =  -366.428077794     A.U. after   10 cycles
 SCF Done:  E(RwB97XD) =  -366.428092067     A.U. after   10 cycles
 SCF Done:  E(RwB97XD) =  -366.428238406     A.U. after   10 cycles
 SCF Done:  E(RwB97XD) =  -366.428245779     A.U. after   10 cycles
 SCF Done:  E(RwB97XD) =  -366.428250100     A.U. after   10 cycles
 SCF Done:  E(RwB97XD) =  -366.428250598     A.U. after   10 cycles
 SCF Done:  E(RwB97XD) =  -366.428249565     A.U. after   10 cycles
 SCF Done:  E(RwB97XD) =  -366.428250767     A.U. after    9 cycles
 SCF Done:  E(RwB97XD) =  -366.428251127     A.U. after    9 cycles
 SCF Done:  E(RwB97XD) =  -366.428251142     A.U. after    7 cycles
 SCF Done:  E(RwB97XD) =  -366.428251145     A.U. after    6 cycles
 Optimization completed.
    -- Stationary point found.
 Normal termination of Gaussian 16 at Sat Feb 13 06:55:00 2021.

 ---------------------------------------------------------------------
 #N Geom=AllCheck Guess=TCheck SCRF=Check GenChk RwB97XD/def2TZVP Freq
 ---------------------------------------------------------------------

 Structure from the checkpoint file:  "/beegfs/scratch/user/q/tla25/Gau-38600.chk"
 ------------------------
 0_iteration/TS-450-0.out
 ------------------------
 Charge =  0 Multiplicity = 1

                         Standard orientation:
 ---------------------------------------------------------------------
 Center     Atomic      Atomic             Coordinates (Angstroms)
 Number     Number       Type             X           Y           Z
 ---------------------------------------------------------------------
      1          6           0        0.741770    0.839694   -0.240420
      2          6           0        1.855921   -0.017078   -0.081937
      3          8           0        2.948966    0.181280   -0.645013
      4          6           0       -0.509935    0.638657    0.354877
      5          6           0       -2.623250   -1.285548   -0.064984
      6          1           0       -2.186543   -1.853041    0.755549
      7          1           0       -3.358615   -0.592734    0.339647
      8          1           0       -3.124713   -1.973734   -0.746142
      9          7           0       -1.565166   -0.530255   -0.734224
     10          1           0       -0.864913   -1.143609   -1.133288
     11          1           0       -1.930424    0.040856   -1.488293
     12          6           0       -1.454385    1.803751    0.474685
     13          1           0       -2.469952    1.496412    0.722695
     14          1           0       -1.102111    2.456141    1.275632
     15          1           0       -1.474093    2.386254   -0.447557
     16          1           0       -0.548110   -0.040238    1.201996
     17          1           0        0.863047    1.679102   -0.918479
     18          6           0        1.731516   -1.237649    0.822874
     19          1           0        1.425886   -0.960067    1.833457
     20          1           0        0.990093   -1.943661    0.441715
     21          1           0        2.695059   -1.741101    0.872172
 ---------------------------------------------------------------------

 SCF Done:  E(RwB97XD) =  -366.428251145     A.U. after    1 cycles

 The electronic state is 1-A.
 Alpha  occ. eigenvalues --  -19.18900 -14.48065 -10.33821 -10.33546 -10.31851
 Alpha  occ. eigenvalues --  -10.27989 -10.26733 -10.23568  -1.09248  -1.03607
 Alpha  occ. eigenvalues --   -0.89774  -0.83038  -0.79054  -0.77723  -0.68719
 Alpha  occ. eigenvalues --   -0.62871  -0.61150  -0.56598  -0.54703  -0.54484
 Alpha  occ. eigenvalues --   -0.51852  -0.50757  -0.49511  -0.48814  -0.47587
 Alpha  occ. eigenvalues --   -0.46412  -0.44686  -0.43046  -0.42589  -0.41011
 Alpha  occ. eigenvalues --   -0.30954  -0.26862
 Alpha virt. eigenvalues --    0.06214   0.09732   0.13000   0.13720   0.14779
 Alpha virt. eigenvalues --    0.15416   0.16872   0.17505   0.18144   0.19210
 Alpha virt. eigenvalues --    0.19933   0.20317   0.20592   0.22051   0.23347

 Mulliken charges:
               1
     1  C   -0.387124
     2  C    0.249319
     3  O   -0.560014
     4  C   -0.021997
     5  C   -0.271569
     6  H    0.151174
     7  H    0.144881
     8  H    0.153690
     9  N   -0.320720
    10  H    0.271736
    11  H    0.279681
    12  C   -0.345628
    13  H    0.129404
    14  H    0.140922
    15  H    0.136578
    16  H    0.141433
    17  H    0.098497
    18  C   -0.369623
    19  H    0.136089
    20  H    0.124299
    21  H    0.118973
 Sum of Mulliken charges =   0.00000

 Dipole moment (field-independent basis, Debye):
    X=            -11.9878    Y=             -2.9013    Z=              0.7176  Tot=             12.3547
 Quadrupole moment (field-independent basis, Debye-Ang):
   XX=            -65.0134   YY=            -47.7785   ZZ=            -48.8984
   XY=             -1.1981   XZ=              8.8863   YZ=              1.0425

  Exact polarizability: 168.921   3.167 112.210  -4.878  -1.862  98.390
 Approx polarizability: 123.148   2.928  89.263  -4.976  -0.799  84.319

 ******    1 imaginary frequencies (negative Signs) ******

                      1                      2                      3
                      A                      A                      A
 Frequencies --   -362.5006                68.0376                91.0993
 Red. masses --      5.9222                 2.3159                 4.9526
 Frc consts  --      0.4585                 0.0063                 0.0242
 IR Inten    --    933.4790                 1.8265                 7.2779

                      4                      5                      6
                      A                      A                      A
 Frequencies --    107.0806               130.2675               170.8056
 Red. masses --      1.5750                 1.1683                 1.4053
 Frc consts  --      0.0106                 0.0117                 0.0242
 IR Inten    --      4.2185                 0.0872                 1.5547

                      7                      8                      9
                      A                      A                      A
 Frequencies --    209.3722               214.9977               233.2113
 Red. masses --      1.9190                 2.0703                 1.4786
 Frc consts  --      0.0496                 0.0564                 0.0474
 IR Inten    --      1.9234                 2.4420                 1.9702

                     10                     11                     12
                      A                      A                      A
 Frequencies --    332.4839               378.5033               452.7224
 Red. masses --      2.5153                 2.7981                 3.3096
 Frc consts  --      0.1638                 0.2362                 0.3997
 IR Inten    --     11.6897                27.5411               114.7719

                     13                     14                     15
                      A                      A                      A
 Frequencies --    540.7618               566.2181               592.0107
 Red. masses --      3.4105                 3.4285                 1.8692
 Frc consts  --      0.5876                 0.6476                 0.3860
 IR Inten    --      9.0272                31.5543                 5.1717

                     16                     17                     18
                      A                      A                      A
 Frequencies --    674.6164               763.4892               824.8096
 Red. masses --      1.2585                 1.4063                 3.0776
 Frc consts  --      0.3374                 0.4830                 1.2336
 IR Inten    --     46.7685               132.6305                 5.5588

                     19                     20                     21
                      A                      A                      A
 Frequencies --    954.6874              1000.4232              1001.8662
 Red. masses --      1.5232                 1.1712                 1.3739
 Frc consts  --      0.8179                 0.6906                 0.8125
 IR Inten    --     48.2822                23.2523               147.1394

                     22                     23                     24
                      A                      A                      A
 Frequencies --   1032.1409              1041.9704              1051.2066
 Red. masses --      1.3173                 1.4602                 1.5906
 Frc consts  --      0.8268                 0.9341                 1.0356
 IR Inten    --     54.8819                 2.2856                18.2156

                     25                     26                     27
                      A                      A                      A
 Frequencies --   1078.4553              1140.8706              1193.0454
 Red. masses --      3.2634                 2.2834                 1.1883
 Frc consts  --      2.2363                 1.7511                 0.9965
 IR Inten    --    115.6510                30.3184               250.2179

                     28                     29                     30
                      A                      A                      A
 Frequencies --   1227.3876              1277.2796              1293.4108
 Red. masses --      1.4471                 1.3986                 1.4100
 Frc consts  --      1.2844                 1.3444                 1.3897
 IR Inten    --     22.2594               143.5080                36.2071

                     31                     32                     33
                      A                      A                      A
 Frequencies --   1342.0566              1348.0580              1394.9667
 Red. masses --      1.3529                 2.1783                 1.6287
 Frc consts  --      1.4357                 2.3323                 1.8673
 IR Inten    --      2.8972                76.3440               100.6136

                     34                     35                     36
                      A                      A                      A
 Frequencies --   1416.2503              1463.9290              1468.4172
 Red. masses --      1.2575                 1.1919                 1.0889
 Frc consts  --      1.4861                 1.5049                 1.3833
 IR Inten    --      4.2741                16.1777                57.6601

                     37                     38                     39
                      A                      A                      A
 Frequencies --   1483.5436              1484.3946              1485.9716
 Red. masses --      1.0739                 1.0739                 1.0759
 Frc consts  --      1.3926                 1.3942                 1.3998
 IR Inten    --     24.7813                37.6863                 4.4403

                     40                     41                     42
                      A                      A                      A
 Frequencies --   1493.1691              1508.6617              1530.0552
 Red. masses --      1.0424                 1.0498                 2.4557
 Frc consts  --      1.3694                 1.4078                 3.3873
 IR Inten    --     15.7248                58.0274               453.0682

                     43                     44                     45
                      A                      A                      A
 Frequencies --   1617.2441              1649.6815              3054.3455
 Red. masses --      7.0217                 1.0872                 1.0376
 Frc consts  --     10.8203                 1.7432                 5.7029
 IR Inten    --   1146.9546                43.5952                13.3469

                     46                     47                     48
                      A                      A                      A
 Frequencies --   3060.2962              3067.3862              3120.9703
 Red. masses --      1.0362                 1.0342                 1.1002
 Frc consts  --      5.7176                 5.7331                 6.3140
 IR Inten    --     21.6706                50.0396                25.0482

                     49                     50                     51
                      A                      A                      A
 Frequencies --   3130.8257              3141.7265              3144.5623
 Red. masses --      1.1010                 1.1007                 1.1038
 Frc consts  --      6.3585                 6.4011                 6.4308
 IR Inten    --     17.2770                20.6514                17.3222

                     52                     53                     54
                      A                      A                      A
 Frequencies --   3155.6837              3158.2239              3164.3229
 Red. masses --      1.1022                 1.0928                 1.0995
 Frc consts  --      6.4669                 6.4220                 6.4866
 IR Inten    --     29.1683                13.1818                39.8080

                     55                     56                     57
                      A                      A                      A
 Frequencies --   3165.3187              3524.8829              3607.3723
 Red. masses --      1.0930                 1.0510                 1.0963
 Frc consts  --      6.4522                 7.6941                 8.4056
 IR Inten    --     46.5205                15.8298                36.2647

 - Thermochemistry -
 -------------------
 Temperature   298.150 Kelvin.  Pressure   1.00000 Atm.
 Atom     1 has atomic number  6 and mass  12.00000

 Molecular mass:   115.09971 amu.
 Principal axes and moments of inertia in atomic units:
                           1         2         3
     Eigenvalues --   606.480931642.601471956.04022
           X            0.99987  -0.01035   0.01206
           Y            0.01056   0.99979  -0.01769
           Z           -0.01188   0.01781   0.99977
 This molecule is an asymmetric top.
 Rotational symmetry number  1.
 Warning -- assumption of classical behavior for rotation
           may cause significant error
 Rotational temperatures (Kelvin)      0.14281     0.05273     0.04428
 Rotational constants (GHZ):           2.97576     1.09871     0.92265
    1 imaginary frequencies ignored.
 Zero-point vibrational energy     489425.5 (Joules/Mol)
                                  116.97549 (Kcal/Mol)
 Warning -- explicit consideration of  14 degrees of freedom as
           vibrations may cause significant error
 Vibrational temperatures:     97.89   131.07   154.07   187.43   245.75
          (Kelvin)            301.24   309.33   335.54   478.37   544.58
                              651.37   778.04   814.66   851.77   970.62
                             1098.49  1186.72  1373.58  1439.39  1441.46
                             1485.02  1499.16  1512.45  1551.66  1641.46
                             1716.53  1765.94  1837.72  1860.93  1930.92
                             1939.55  2007.05  2037.67  2106.27  2112.72
                             2134.49  2135.71  2137.98  2148.34  2170.63
                             2201.41  2326.85  2373.52  4394.52  4403.08
                             4413.28  4490.38  4504.56  4520.24  4524.32
                             4540.33  4543.98  4552.75  4554.19  5071.52
                             5190.20

 Zero-point correction=                           0.186412 (Hartree/Particle)
 Thermal correction to Energy=                    0.196589
 Thermal correction to Enthalpy=                  0.197533
 Thermal correction to Gibbs Free Energy=         0.150968
 Sum of electronic and zero-point Energies=           -366.241839
 Sum of electronic and thermal Energies=              -366.231662
 Sum of electronic and thermal Enthalpies=            -366.230718
 Sum of electronic and thermal Free Energies=         -366.277283

                     E (Thermal)             CV                S
                      KCal/Mol        Cal/Mol-Kelvin    Cal/Mol-Kelvin
 Total                  123.362             35.679             98.004
 Electronic               0.000              0.000              0.000
 Translational            0.889              2.981             40.137
 Rotational               0.889              2.981             29.056
 Vibrational            121.584             29.718             28.810
 Vibration     1          0.598              1.969              4.209
 Vibration     2          0.602              1.956              3.636
 Vibration     3          0.606              1.944              3.321
 Vibration     4          0.612              1.923              2.942
 Vibration     5          0.626              1.878              2.427
 Vibration     6          0.642              1.826              2.049
 Vibration     7          0.645              1.818              2.001
 Vibration     8          0.654              1.790              1.854
 Vibration     9          0.714              1.611              1.248
 Vibration    10          0.749              1.516              1.045
 Vibration    11          0.811              1.355              0.788
 Vibration    12          0.896              1.160              0.564
 Vibration    13          0.922              1.104              0.512
 Vibration    14          0.949              1.049              0.464

 Optimization completed.
    -- Stationary point found.
 Normal termination of Gaussian 16 at Sat Feb 13 07:03:44 2021.
