 Gaussian 16, Revision A.03,
 Gaussian 16:  ES64L-G16RevA.03 25-Dec-2016

 ----------------------------------------------------------------------
 # wB97XD def2tzvp, opt=(ts, noeigen, calcfc, maxcycles=70, maxstep=1),
  freq=noraman, scrf=(iefpcm, solvent=water)
 ----------------------------------------------------------------------

 ------------------------
 0_iteration/TS-493-0.out
 ------------------------
 Symbolic Z-matrix:
 Charge =  0 Multiplicity = 1

 SCF Done:  E(RwB97XD) =  -461.117765610     A.U. after   14 cycles
 SCF Done:  E(RwB97XD) =  -461.117748288     A.U. after   10 cycles
 SCF Done:  E(RwB97XD) =  -461.117736316     A.U. after   10 cycles
 SCF Done:  E(RwB97XD) =  -461.117730049     A.U. after   10 cycles
 SCF Done:  E(RwB97XD) =  -461.117729755     A.U. after   10 cycles
 SCF Done:  E(RwB97XD) =  -461.117734253     A.U. after    9 cycles
 SCF Done:  E(RwB97XD) =  -461.117744330     A.U. after   10 cycles
 SCF Done:  E(RwB97XD) =  -461.117757333     A.U. after   10 cycles
 SCF Done:  E(RwB97XD) =  -461.117771882     A.U. after   10 cycles
 SCF Done:  E(RwB97XD) =  -461.117787131     A.U. after   10 cycles
 SCF Done:  E(RwB97XD) =  -461.117802284     A.U. after   10 cycles
 SCF Done:  E(RwB97XD) =  -461.117815992     A.U. after   10 cycles
 SCF Done:  E(RwB97XD) =  -461.117826524     A.U. after   10 cycles
 SCF Done:  E(RwB97XD) =  -461.117832823     A.U. after   10 cycles
 SCF Done:  E(RwB97XD) =  -461.117833795     A.U. after    9 cycles
 SCF Done:  E(RwB97XD) =  -461.117833774     A.U. after    9 cycles
 SCF Done:  E(RwB97XD) =  -461.117834040     A.U. after    8 cycles
 Optimization completed.
    -- Stationary point found.
 Normal termination of Gaussian 16 at Sat Feb 13 08:26:30 2021.

 ---------------------------------------------------------------------
 #N Geom=AllCheck Guess=TCheck SCRF=Check GenChk RwB97XD/def2TZVP Freq
 ---------------------------------------------------------------------

 Structure from the checkpoint file:  "/beegfs/scratch/user/q/tla25/Gau-52963.chk"
 ------------------------
 0_iteration/TS-493-0.out
 ------------------------
 Charge =  0 Multiplicity = 1

                         Standard orientation:
 ---------------------------------------------------------------------
 Center     Atomic      Atomic             Coordinates (Angstroms)
 Number     Number       Type             X           Y           Z
 ---------------------------------------------------------------------
      1          6           0        0.052669   -0.482416   -0.768879
      2          6           0        1.221504   -0.160426   -0.018567
      3          8           0        1.229515    0.086333    1.210225
      4          6           0       -1.209990   -0.661093   -0.163949
      5          6           0       -1.626230    2.116511   -0.201970
      6          1           0       -0.836444    1.967116   -0.941944
      7          1           0       -2.588065    2.161092   -0.709201
      8          1           0       -1.451264    3.058582    0.318048
      9          7           0       -1.603222    0.980605    0.706096
     10          1           0       -0.771535    0.993437    1.294537
     11          1           0       -2.428252    0.938261    1.291773
     12          6           0       -2.373906   -0.805643   -1.116129
     13          1           0       -2.316999   -0.082702   -1.929942
     14          1           0       -2.352786   -1.806660   -1.551790
     15          1           0       -3.327994   -0.687051   -0.600915
     16          6           0       -1.343403   -1.549490    1.056888
     17          1           0       -2.308127   -1.416861    1.551006
     18          1           0       -1.284167   -2.588034    0.723917
     19          1           0       -0.540119   -1.368859    1.766664
     20          1           0        0.084040   -0.316445   -1.839651
     21          7           0        2.397594   -0.044156   -0.722193
     22          6           0        3.662300    0.158149   -0.059618
     23          1           0        2.419085   -0.454368   -1.638513
     24          1           0        3.613582    1.028566    0.594462
     25          1           0        3.965721   -0.701363    0.548348
     26          1           0        4.428938    0.335930   -0.812590
 ---------------------------------------------------------------------

 SCF Done:  E(RwB97XD) =  -461.117834040     A.U. after    1 cycles

 The electronic state is 1-A.
 Alpha  occ. eigenvalues --  -19.18624 -14.47001 -14.42916 -10.35622 -10.33642
 Alpha  occ. eigenvalues --  -10.30924 -10.29945 -10.27379 -10.26752 -10.22650
 Alpha  occ. eigenvalues --   -1.10693  -1.02860  -0.99507  -0.90564  -0.81581
 Alpha  occ. eigenvalues --   -0.79574  -0.77296  -0.75972  -0.66424  -0.62996
 Alpha  occ. eigenvalues --   -0.62059  -0.57503  -0.56376  -0.54758  -0.54698
 Alpha  occ. eigenvalues --   -0.52821  -0.51112  -0.49951  -0.49050  -0.47155
 Alpha  occ. eigenvalues --   -0.46814  -0.46272  -0.45069  -0.44951  -0.43466
 Alpha  occ. eigenvalues --   -0.42808  -0.39402  -0.32893  -0.32047  -0.25460
 Alpha virt. eigenvalues --    0.07984   0.10285   0.12905   0.13729   0.14154
 Alpha virt. eigenvalues --    0.15446   0.16211   0.16493   0.18155   0.18749
 Alpha virt. eigenvalues --    0.19010   0.19789   0.20464   0.21197   0.21962

 Mulliken charges:
               1
     1  C   -0.607895
     2  C    0.430084
     3  O   -0.622581
     4  C    0.221729
     5  C   -0.295443
     6  H    0.143511
     7  H    0.153994
     8  H    0.149576
     9  N   -0.313527
    10  H    0.267087
    11  H    0.275084
    12  C   -0.383239
    13  H    0.139516
    14  H    0.142532
    15  H    0.137311
    16  C   -0.371739
    17  H    0.121246
    18  H    0.128240
    19  H    0.144571
    20  H    0.119967
    21  N   -0.353711
    22  C   -0.244276
    23  H    0.249932
    24  H    0.122460
    25  H    0.112376
    26  H    0.133196
 Sum of Mulliken charges =  -0.00000

 Dipole moment (field-independent basis, Debye):
    X=             -4.7699    Y=              2.0186    Z=             -1.7900  Tot=              5.4801
 Quadrupole moment (field-independent basis, Debye-Ang):
   XX=            -50.6363   YY=            -60.8802   ZZ=            -63.8496
   XY=             -4.4196   XZ=             -9.0649   YZ=              1.5371

  Exact polarizability: 181.463  -3.591 135.501  -5.678   6.539 135.616
 Approx polarizability: 130.978  -1.931 109.067  -4.869   5.959 116.806

 ******    1 imaginary frequencies (negative Signs) ******

                      1                      2                      3
                      A                      A                      A
 Frequencies --   -398.1011                60.6724                87.3104
 Red. masses --      4.9342                 3.0921                 3.3389
 Frc consts  --      0.4607                 0.0067                 0.0150
 IR Inten    --    703.0084                 9.7461                27.6602

                      4                      5                      6
                      A                      A                      A
 Frequencies --    104.2999               132.5561               150.7363
 Red. masses --      2.9995                 1.9790                 1.2586
 Frc consts  --      0.0192                 0.0205                 0.0168
 IR Inten    --     24.9988                27.8181                 0.0359

                      7                      8                      9
                      A                      A                      A
 Frequencies --    176.4166               198.4929               215.8620
 Red. masses --      2.7627                 1.1136                 1.6556
 Frc consts  --      0.0507                 0.0258                 0.0455
 IR Inten    --     12.4219                 3.6697                 2.9021

                     10                     11                     12
                      A                      A                      A
 Frequencies --    234.7115               266.8229               280.7646
 Red. masses --      1.4321                 1.1764                 2.5491
 Frc consts  --      0.0465                 0.0493                 0.1184
 IR Inten    --      2.4669                 3.0551                29.3911

                     13                     14                     15
                      A                      A                      A
 Frequencies --    319.9011               337.3652               346.9094
 Red. masses --      2.8315                 2.6525                 2.6658
 Frc consts  --      0.1707                 0.1779                 0.1890
 IR Inten    --      4.0586                 2.0395                59.0117

                     16                     17                     18
                      A                      A                      A
 Frequencies --    404.6349               431.5593               494.6703
 Red. masses --      3.4800                 1.3201                 2.5267
 Frc consts  --      0.3357                 0.1449                 0.3643
 IR Inten    --      5.6456               130.5016                17.8818

                     19                     20                     21
                      A                      A                      A
 Frequencies --    505.3857               641.2987               706.5404
 Red. masses --      2.6194                 1.2829                 1.5026
 Frc consts  --      0.3942                 0.3109                 0.4419
 IR Inten    --      8.0376               173.2888                89.4719

                     22                     23                     24
                      A                      A                      A
 Frequencies --    754.4383               795.1156               859.6947
 Red. masses --      3.1051                 7.4931                 3.1600
 Frc consts  --      1.0413                 2.7911                 1.3760
 IR Inten    --     14.1096                48.7790                11.0306

                     25                     26                     27
                      A                      A                      A
 Frequencies --    951.3706               963.1758              1007.7568
 Red. masses --      1.4215                 2.6505                 1.1498
 Frc consts  --      0.7581                 1.4487                 0.6880
 IR Inten    --      3.3858                 8.7883                89.3291

                     28                     29                     30
                      A                      A                      A
 Frequencies --   1026.5883              1047.4862              1066.3572
 Red. masses --      1.3410                 1.6973                 1.3618
 Frc consts  --      0.8327                 1.0973                 0.9124
 IR Inten    --      6.1524                10.1966               193.8018

                     31                     32                     33
                      A                      A                      A
 Frequencies --   1080.6890              1120.4083              1144.0237
 Red. masses --      1.9083                 2.2010                 1.6923
 Frc consts  --      1.3131                 1.6279                 1.3049
 IR Inten    --     37.9900                15.7586                55.8261

                     34                     35                     36
                      A                      A                      A
 Frequencies --   1154.2469              1171.8449              1213.0055
 Red. masses --      1.5758                 1.5807                 1.7277
 Frc consts  --      1.2370                 1.2789                 1.4977
 IR Inten    --      7.7222               107.8383                37.3558

                     37                     38                     39
                      A                      A                      A
 Frequencies --   1225.2286              1284.6098              1355.1741
 Red. masses --      1.7078                 2.5333                 1.4697
 Frc consts  --      1.5105                 2.4631                 1.5903
 IR Inten    --    139.2654               275.6486                 9.3835

                     40                     41                     42
                      A                      A                      A
 Frequencies --   1363.2030              1407.1454              1416.4676
 Red. masses --      1.5810                 1.3908                 1.2845
 Frc consts  --      1.7311                 1.6225                 1.5184
 IR Inten    --     13.5604                47.5014                13.4223

                     43                     44                     45
                      A                      A                      A
 Frequencies --   1450.0352              1455.3019              1461.8052
 Red. masses --      1.2352                 1.2678                 1.4526
 Frc consts  --      1.5302                 1.5820                 1.8288
 IR Inten    --    124.0941                50.6085               202.2835

                     46                     47                     48
                      A                      A                      A
 Frequencies --   1479.0498              1480.0112              1483.7556
 Red. masses --      1.0888                 1.0699                 1.0526
 Frc consts  --      1.4033                 1.3808                 1.3653
 IR Inten    --     82.7778                 1.9663                 8.0584

                     49                     50                     51
                      A                      A                      A
 Frequencies --   1493.9147              1501.4909              1505.4199
 Red. masses --      1.0465                 1.0921                 1.0899
 Frc consts  --      1.3760                 1.4506                 1.4553
 IR Inten    --     11.4425                 5.6957                 6.4399

                     52                     53                     54
                      A                      A                      A
 Frequencies --   1509.0167              1522.0922              1540.0825
 Red. masses --      1.0661                 1.4591                 1.8442
 Frc consts  --      1.4304                 1.9917                 2.5772
 IR Inten    --     50.5672               144.9022               763.3223

                     55                     56                     57
                      A                      A                      A
 Frequencies --   1613.5387              1654.2953              3021.7842
 Red. masses --      3.7664                 1.1545                 1.0496
 Frc consts  --      5.7774                 1.8616                 5.6469
 IR Inten    --    461.9214                16.2642               124.0252

                     58                     59                     60
                      A                      A                      A
 Frequencies --   3052.6517              3053.7358              3056.6007
 Red. masses --      1.0382                 1.0347                 1.0365
 Frc consts  --      5.7003                 5.6849                 5.7058
 IR Inten    --     39.4352                52.4062                39.1437

                     61                     62                     63
                      A                      A                      A
 Frequencies --   3103.1006              3116.5390              3126.7646
 Red. masses --      1.0858                 1.1013                 1.1027
 Frc consts  --      6.1604                 6.3023                 6.3516
 IR Inten    --     49.4255                32.5083                14.8876

                     64                     65                     66
                      A                      A                      A
 Frequencies --   3128.0462              3142.2404              3148.0243
 Red. masses --      1.1011                 1.1035                 1.1035
 Frc consts  --      6.3477                 6.4194                 6.4430
 IR Inten    --     37.5217                34.9224                29.0476

                     67                     68                     69
                      A                      A                      A
 Frequencies --   3156.8552              3171.3988              3176.3131
 Red. masses --      1.1048                 1.1000                 1.0880
 Frc consts  --      6.4870                 6.5184                 6.4675
 IR Inten    --     19.3610                 7.0096                24.2043

                     70                     71                     72
                      A                      A                      A
 Frequencies --   3450.9971              3586.9874              3673.0912
 Red. masses --      1.0600                 1.0888                 1.0772
 Frc consts  --      7.4375                 8.2540                 8.5628
 IR Inten    --     68.0313                68.5557                45.3694

 - Thermochemistry -
 -------------------
 Temperature   298.150 Kelvin.  Pressure   1.00000 Atm.
 Atom     1 has atomic number  6 and mass  12.00000

 Molecular mass:   144.12626 amu.
 Principal axes and moments of inertia in atomic units:
                           1         2         3
     Eigenvalues --   885.229352346.518232525.47566
           X            1.00000   0.00141  -0.00138
           Y           -0.00145   0.99939  -0.03495
           Z            0.00133   0.03495   0.99939
 This molecule is an asymmetric top.
 Rotational symmetry number  1.
 Warning -- assumption of classical behavior for rotation
           may cause significant error
 Rotational temperatures (Kelvin)      0.09784     0.03691     0.03430
 Rotational constants (GHZ):           2.03873     0.76911     0.71461
    1 imaginary frequencies ignored.
 Zero-point vibrational energy     609018.1 (Joules/Mol)
                                  145.55883 (Kcal/Mol)
 Warning -- explicit consideration of  18 degrees of freedom as
           vibrations may cause significant error
 Vibrational temperatures:     87.29   125.62   150.06   190.72   216.88
          (Kelvin)            253.82   285.59   310.58   337.70   383.90
                              403.96   460.27   485.39   499.13   582.18
                              620.92   711.72   727.14   922.69  1016.55
                             1085.47  1143.99  1236.91  1368.81  1385.80
                             1449.94  1477.03  1507.10  1534.25  1554.87
                             1612.02  1645.99  1660.70  1686.02  1745.24
                             1762.83  1848.27  1949.79  1961.35  2024.57
                             2037.98  2086.28  2093.85  2103.21  2128.02
                             2129.41  2134.79  2149.41  2160.31  2165.96
                             2171.14  2189.95  2215.84  2321.52  2380.16
                             4347.67  4392.08  4393.64  4397.77  4464.67
                             4484.00  4498.72  4500.56  4520.98  4529.30
                             4542.01  4562.94  4570.01  4965.22  5160.87
                             5284.76

 Zero-point correction=                           0.231963 (Hartree/Particle)
 Thermal correction to Energy=                    0.244644
 Thermal correction to Enthalpy=                  0.245588
 Thermal correction to Gibbs Free Energy=         0.193922
 Sum of electronic and zero-point Energies=           -460.885871
 Sum of electronic and thermal Energies=              -460.873190
 Sum of electronic and thermal Enthalpies=            -460.872246
 Sum of electronic and thermal Free Energies=         -460.923912

                     E (Thermal)             CV                S
                      KCal/Mol        Cal/Mol-Kelvin    Cal/Mol-Kelvin
 Total                  153.516             45.799            108.740
 Electronic               0.000              0.000              0.000
 Translational            0.889              2.981             40.808
 Rotational               0.889              2.981             30.040
 Vibrational            151.739             39.838             37.892
 Vibration     1          0.597              1.973              4.435
 Vibration     2          0.601              1.958              3.719
 Vibration     3          0.605              1.946              3.372
 Vibration     4          0.613              1.921              2.909
 Vibration     5          0.618              1.902              2.663
 Vibration     6          0.628              1.871              2.366
 Vibration     7          0.637              1.842              2.147
 Vibration     8          0.645              1.817              1.994
 Vibration     9          0.655              1.788              1.843
 Vibration    10          0.672              1.734              1.617
 Vibration    11          0.680              1.709              1.529
 Vibration    12          0.706              1.635              1.311
 Vibration    13          0.718              1.601              1.225
 Vibration    14          0.725              1.582              1.180
 Vibration    15          0.770              1.460              0.946
 Vibration    16          0.793              1.401              0.854
 Vibration    17          0.850              1.262              0.672
 Vibration    18          0.861              1.238              0.645

 Optimization completed.
    -- Stationary point found.
 Normal termination of Gaussian 16 at Sat Feb 13 08:49:03 2021.
