 Gaussian 16, Revision A.03,
 Gaussian 16:  ES64L-G16RevA.03 25-Dec-2016

 ----------------------------------------------------------------------
 # wB97XD def2tzvp, opt=(ts, noeigen, calcfc, maxcycles=70, maxstep=5),
  freq=noraman, scrf=(iefpcm, solvent=water)
 ----------------------------------------------------------------------

 ------------------------
 2_iteration/TS-412-2.out
 ------------------------
 Symbolic Z-matrix:
 Charge =  0 Multiplicity = 1

 SCF Done:  E(RwB97XD) =  -672.718122344     A.U. after   14 cycles
 Optimization completed.
    -- Stationary point found.
 Normal termination of Gaussian 16 at Sun Feb 14 11:48:10 2021.

 ---------------------------------------------------------------------
 #N Geom=AllCheck Guess=TCheck SCRF=Check GenChk RwB97XD/def2TZVP Freq
 ---------------------------------------------------------------------

 Structure from the checkpoint file:  "/beegfs/scratch/user/q/tla25/Gau-49210.chk"
 ------------------------
 2_iteration/TS-412-2.out
 ------------------------
 Charge =  0 Multiplicity = 1

                         Standard orientation:
 ---------------------------------------------------------------------
 Center     Atomic      Atomic             Coordinates (Angstroms)
 Number     Number       Type             X           Y           Z
 ---------------------------------------------------------------------
      1          6           0        1.192450    0.310060    0.965021
      2          6           0        1.822900   -0.588920    0.074581
      3          8           0        1.428140   -0.915810   -1.047979
      4          6           0       -0.059120    0.894890    0.687291
      5          6           0        1.291901    2.807670   -0.907129
      6          1           0        1.722831    3.019280   -1.885909
      7          1           0        0.918571    3.732670   -0.472389
      8          1           0        2.070121    2.394750   -0.261349
      9          7           0        0.212550    1.835700   -0.989589
     10          1           0       -0.623319    2.231280   -1.399889
     11          1           0        0.488900    1.018370   -1.529299
     12          6           0       -0.451649    2.022760    1.616241
     13          1           0       -0.781280    1.594990    2.564991
     14          1           0        0.395441    2.678850    1.812991
     15          1           0       -1.273459    2.615171    1.217101
     16          6           0       -1.237460    0.044381    0.267231
     17          6           0       -1.242390   -1.322879    0.529521
     18          6           0       -2.343780   -2.107449    0.224251
     19          6           0       -3.472950   -1.537689   -0.344399
     20          6           0       -3.492060   -0.173549   -0.593569
     21          6           0       -2.388850    0.606371   -0.283939
     22          1           0       -0.371560   -1.771760    0.986701
     23          1           0       -2.318831   -3.169119    0.436061
     24          1           0       -4.333960   -2.148969   -0.583379
     25          1           0       -4.370130    0.289471   -1.025719
     26          1           0       -2.445550    1.671141   -0.472589
     27          1           0        1.799940    0.739560    1.749361
     28          8           0        3.009130   -1.064790    0.548561
     29          6           0        3.756400   -1.888481   -0.331619
     30          1           0        3.212159   -2.801030   -0.578959
     31          1           0        4.000200   -1.362041   -1.255689
     32          1           0        4.671570   -2.140701    0.199581
 ---------------------------------------------------------------------

 SCF Done:  E(RwB97XD) =  -672.718122344     A.U. after    1 cycles

 The electronic state is 1-A.
 Alpha  occ. eigenvalues --  -19.27293 -19.20603 -14.47329 -10.38496 -10.35056
 Alpha  occ. eigenvalues --  -10.32210 -10.31113 -10.30243 -10.29302 -10.29082
 Alpha  occ. eigenvalues --  -10.29010 -10.28914 -10.28807 -10.28067 -10.23968
 Alpha  occ. eigenvalues --   -1.18395  -1.08907  -1.03129  -0.97057  -0.91251
 Alpha  occ. eigenvalues --   -0.85328  -0.84558  -0.82857  -0.78434  -0.77897
 Alpha  occ. eigenvalues --   -0.71852  -0.70305  -0.66930  -0.63681  -0.62174
 Alpha  occ. eigenvalues --   -0.60997  -0.57782  -0.56954  -0.56265  -0.55549
 Alpha  occ. eigenvalues --   -0.54866  -0.53790  -0.53248  -0.51114  -0.50891
 Alpha  occ. eigenvalues --   -0.49550  -0.48956  -0.47664  -0.47015  -0.46359
 Alpha  occ. eigenvalues --   -0.46225  -0.45861  -0.42961  -0.42399  -0.42328
 Alpha  occ. eigenvalues --   -0.40535  -0.37458  -0.35122  -0.33730  -0.32724
 Alpha  occ. eigenvalues --   -0.27143
 Alpha virt. eigenvalues --    0.02955   0.05383   0.08247   0.10415   0.13061
 Alpha virt. eigenvalues --    0.13608   0.14152   0.15174   0.15885   0.16395
 Alpha virt. eigenvalues --    0.16704   0.16854   0.18036   0.18695   0.19551

 Mulliken charges:
               1
     1  C   -0.604923
     2  C    0.459770
     3  O   -0.552757
     4  C    0.332138
     5  C   -0.301288
     6  H    0.152567
     7  H    0.156492
     8  H    0.148395
     9  N   -0.324468
    10  H    0.266869
    11  H    0.273896
    12  C   -0.380253
    13  H    0.150266
    14  H    0.145498
    15  H    0.144433
    16  C    0.164392
    17  C   -0.228112
    18  C   -0.142087
    19  C   -0.144982
    20  C   -0.171155
    21  C   -0.278735
    22  H    0.153964
    23  H    0.141009
    24  H    0.143804
    25  H    0.142275
    26  H    0.158590
    27  H    0.125537
    28  O   -0.318486
    29  C   -0.187944
    30  H    0.120452
    31  H    0.120001
    32  H    0.134846
 Sum of Mulliken charges =   0.00000

 Dipole moment (field-independent basis, Debye):
    X=             -2.1966    Y=              5.5132    Z=             -1.4281  Tot=              6.1041
 Quadrupole moment (field-independent basis, Debye-Ang):
   XX=            -83.5677   YY=            -74.1270   ZZ=            -92.9321
   XY=              0.2709   XZ=              0.6377   YZ=             -5.7055

  Exact polarizability: 244.947  -6.942 235.542  16.948  -8.055 177.151
 Approx polarizability: 187.822  -5.351 189.072  16.511  -6.753 154.765

 ******    1 imaginary frequencies (negative Signs) ******

                      1                      2                      3
                      A                      A                      A
 Frequencies --   -381.9462                43.2576                57.9537
 Red. masses --      4.9487                 3.8201                 3.6987
 Frc consts  --      0.4253                 0.0042                 0.0073
 IR Inten    --    572.2874                 0.9128                 1.1216

                      4                      5                      6
                      A                      A                      A
 Frequencies --     80.8487                97.6915               115.7173
 Red. masses --      3.4317                 4.2687                 2.6321
 Frc consts  --      0.0132                 0.0240                 0.0208
 IR Inten    --      1.7939                 6.9520                 4.6635

                      7                      8                      9
                      A                      A                      A
 Frequencies --    132.7725               146.8260               178.7944
 Red. masses --      3.4601                 2.7666                 1.1990
 Frc consts  --      0.0359                 0.0351                 0.0226
 IR Inten    --     12.1310                29.8160                 0.3648

                     10                     11                     12
                      A                      A                      A
 Frequencies --    194.2134               204.2412               235.5101
 Red. masses --      1.7965                 1.5111                 1.3049
 Frc consts  --      0.0399                 0.0371                 0.0426
 IR Inten    --      1.4882                 1.1049                 1.0858

                     13                     14                     15
                      A                      A                      A
 Frequencies --    268.3351               281.3512               303.3546
 Red. masses --      2.3582                 3.4446                 3.2396
 Frc consts  --      0.1000                 0.1607                 0.1756
 IR Inten    --      7.4623                15.2492                 9.2867

                     16                     17                     18
                      A                      A                      A
 Frequencies --    317.2132               345.0734               376.1042
 Red. masses --      3.6041                 3.6952                 4.8740
 Frc consts  --      0.2137                 0.2592                 0.4062
 IR Inten    --      9.5311                 1.9600                43.7894

                     19                     20                     21
                      A                      A                      A
 Frequencies --    407.0614               423.7065               553.2511
 Red. masses --      3.6307                 2.9028                 3.3544
 Frc consts  --      0.3545                 0.3070                 0.6049
 IR Inten    --      1.4819                 0.1977                73.5971

                     22                     23                     24
                      A                      A                      A
 Frequencies --    560.0290               588.7480               638.4275
 Red. masses --      3.4586                 2.7191                 6.3738
 Frc consts  --      0.6391                 0.5553                 1.5306
 IR Inten    --     20.8448                14.0950                 0.5478

                     25                     26                     27
                      A                      A                      A
 Frequencies --    675.5936               693.7491               724.2467
 Red. masses --      1.3100                 1.7686                 1.6686
 Frc consts  --      0.3523                 0.5015                 0.5157
 IR Inten    --    111.6698                78.9151                93.7159

                     28                     29                     30
                      A                      A                      A
 Frequencies --    735.8684               780.1166               796.3114
 Red. masses --      3.5752                 3.8264                 2.0589
 Frc consts  --      1.1407                 1.3720                 0.7692
 IR Inten    --     16.6048                11.5337                59.4729

                     31                     32                     33
                      A                      A                      A
 Frequencies --    809.4641               876.0290               950.3071
 Red. masses --      6.9821                 1.2490                 3.5294
 Frc consts  --      2.6954                 0.5647                 1.8779
 IR Inten    --     75.0997                 0.8216                56.3753

                     34                     35                     36
                      A                      A                      A
 Frequencies --    960.9076               999.5218              1006.9721
 Red. masses --      1.5780                 1.7487                 1.3627
 Frc consts  --      0.8585                 1.0293                 0.8141
 IR Inten    --     15.7893                12.6594                60.8478

                     37                     38                     39
                      A                      A                      A
 Frequencies --   1018.9715              1026.7004              1030.8117
 Red. masses --      1.3261                 4.5438                 1.3185
 Frc consts  --      0.8112                 2.8220                 0.8254
 IR Inten    --     14.1394                 6.0426                 1.0312

                     40                     41                     42
                      A                      A                      A
 Frequencies --   1050.3263              1056.7508              1062.0432
 Red. masses --      1.5953                 1.3987                 1.8508
 Frc consts  --      1.0369                 0.9203                 1.2300
 IR Inten    --    159.5608                20.1637                23.0599

                     43                     44                     45
                      A                      A                      A
 Frequencies --   1090.7984              1110.0023              1119.2864
 Red. masses --      3.2968                 2.3277                 1.7663
 Frc consts  --      2.3112                 1.6897                 1.3038
 IR Inten    --     12.9924                67.0466                25.9059

                     46                     47                     48
                      A                      A                      A
 Frequencies --   1125.6869              1181.5425              1183.7555
 Red. masses --      3.1424                 1.2981                 1.1258
 Frc consts  --      2.3461                 1.0677                 0.9295
 IR Inten    --     57.5831                19.1334                 0.5694

                     49                     50                     51
                      A                      A                      A
 Frequencies --   1186.0517              1210.2517              1216.6837
 Red. masses --      1.8872                 1.1571                 1.5044
 Frc consts  --      1.5642                 0.9985                 1.3121
 IR Inten    --    493.7027                12.9733                19.2011

                     52                     53                     54
                      A                      A                      A
 Frequencies --   1220.8448              1260.0314              1324.4994
 Red. masses --      1.3831                 4.6990                 4.2906
 Frc consts  --      1.2146                 4.3956                 4.4348
 IR Inten    --     44.7951               408.0090                13.7315

                     55                     56                     57
                      A                      A                      A
 Frequencies --   1350.6744              1360.9708              1366.7838
 Red. masses --      1.4794                 1.3977                 2.3606
 Frc consts  --      1.5901                 1.5254                 2.5982
 IR Inten    --     12.5988                 2.8860                14.9402

                     58                     59                     60
                      A                      A                      A
 Frequencies --   1411.9687              1456.4078              1464.3276
 Red. masses --      1.2433                 1.4268                 1.2469
 Frc consts  --      1.4604                 1.7831                 1.5753
 IR Inten    --      8.8981               247.3581                58.3274

                     61                     62                     63
                      A                      A                      A
 Frequencies --   1481.4805              1482.5345              1486.6396
 Red. masses --      1.0587                 1.1890                 1.5432
 Frc consts  --      1.3691                 1.5397                 2.0095
 IR Inten    --     20.3835                16.4012               140.0176

                     64                     65                     66
                      A                      A                      A
 Frequencies --   1489.1475              1497.0966              1498.2710
 Red. masses --      1.0717                 1.2031                 1.0745
 Frc consts  --      1.4002                 1.5887                 1.4211
 IR Inten    --     20.1890                98.5021                10.2631

                     67                     68                     69
                      A                      A                      A
 Frequencies --   1508.5330              1512.3548              1543.0214
 Red. masses --      1.4873                 1.2344                 2.3044
 Frc consts  --      1.9942                 1.6635                 3.2326
 IR Inten    --    355.2300                85.5575                19.1203

                     70                     71                     72
                      A                      A                      A
 Frequencies --   1638.1723              1651.4734              1668.3267
 Red. masses --      1.5651                 4.5511                 3.0010
 Frc consts  --      2.4746                 7.3133                 4.9212
 IR Inten    --    360.0941                 8.0063               284.0677

                     73                     74                     75
                      A                      A                      A
 Frequencies --   1674.6634              3054.2304              3055.4829
 Red. masses --      5.9952                 1.0313                 1.0343
 Frc consts  --      9.9062                 5.6679                 5.6895
 IR Inten    --      3.9199                70.5906                50.2021

                     76                     77                     78
                      A                      A                      A
 Frequencies --   3064.7400              3125.7710              3127.0331
 Red. masses --      1.0365                 1.1061                 1.1028
 Frc consts  --      5.7362                 6.3675                 6.3538
 IR Inten    --     16.6337                46.1948                14.3850

                     79                     80                     81
                      A                      A                      A
 Frequencies --   3138.2514              3155.2483              3160.3354
 Red. masses --      1.1006                 1.1038                 1.1047
 Frc consts  --      6.3861                 6.4747                 6.5009
 IR Inten    --     20.2348                31.3386                16.5619

                     82                     83                     84
                      A                      A                      A
 Frequencies --   3161.1593              3193.3221              3199.6349
 Red. masses --      1.1046                 1.0857                 1.0884
 Frc consts  --      6.5035                 6.5232                 6.5653
 IR Inten    --     32.7704                 4.6922                 3.4880

                     85                     86                     87
                      A                      A                      A
 Frequencies --   3208.9976              3211.1207              3219.6019
 Red. masses --      1.0926                 1.0891                 1.0958
 Frc consts  --      6.6293                 6.6166                 6.6927
 IR Inten    --     30.3798                14.5737                24.7233

                     88                     89                     90
                      A                      A                      A
 Frequencies --   3226.7356              3479.8942              3602.9439
 Red. masses --      1.0958                 1.0582                 1.0893
 Frc consts  --      6.7221                 7.5498                 8.3314
 IR Inten    --     11.4002                50.4297                67.8350

 - Thermochemistry -
 -------------------
 Temperature   298.150 Kelvin.  Pressure   1.00000 Atm.
 Atom     1 has atomic number  6 and mass  12.00000

 Molecular mass:   207.12593 amu.
 Principal axes and moments of inertia in atomic units:
                           1         2         3
     Eigenvalues --  2175.803694058.305025273.67120
           X            0.99999  -0.00353  -0.00338
           Y            0.00353   0.99999   0.00174
           Z            0.00338  -0.00175   0.99999
 This molecule is an asymmetric top.
 Rotational symmetry number  1.
 Warning -- assumption of classical behavior for rotation
           may cause significant error
 Rotational temperatures (Kelvin)      0.03981     0.02134     0.01642
 Rotational constants (GHZ):           0.82946     0.44470     0.34222
    1 imaginary frequencies ignored.
 Zero-point vibrational energy     717531.9 (Joules/Mol)
                                  171.49423 (Kcal/Mol)
 Warning -- explicit consideration of  22 degrees of freedom as
           vibrations may cause significant error
 Vibrational temperatures:     62.24    83.38   116.32   140.56   166.49
          (Kelvin)            191.03   211.25   257.25   279.43   293.86
                              338.85   386.07   404.80   436.46   456.40
                              496.48   541.13   585.67   609.62   796.00
                              805.76   847.08   918.55   972.03   998.15
                             1042.03  1058.75  1122.41  1145.71  1164.64
                             1260.41  1367.28  1382.53  1438.09  1448.81
                             1466.07  1477.19  1483.11  1511.19  1520.43
                             1528.04  1569.42  1597.05  1610.40  1619.61
                             1699.98  1703.16  1706.46  1741.28  1750.54
                             1756.52  1812.90  1905.66  1943.32  1958.13
                             1966.50  2031.51  2095.45  2106.84  2131.52
                             2133.04  2138.94  2142.55  2153.99  2155.68
                             2170.44  2175.94  2220.06  2356.96  2376.10
                             2400.35  2409.47  4394.36  4396.16  4409.48
                             4497.29  4499.10  4515.24  4539.70  4547.02
                             4548.20  4594.48  4603.56  4617.03  4620.09
                             4632.29  4642.55  5006.79  5183.83

 Zero-point correction=                           0.273293 (Hartree/Particle)
 Thermal correction to Energy=                    0.288652
 Thermal correction to Enthalpy=                  0.289596
 Thermal correction to Gibbs Free Energy=         0.230760
 Sum of electronic and zero-point Energies=           -672.444829
 Sum of electronic and thermal Energies=              -672.429470
 Sum of electronic and thermal Enthalpies=            -672.428526
 Sum of electronic and thermal Free Energies=         -672.487362

                     E (Thermal)             CV                S
                      KCal/Mol        Cal/Mol-Kelvin    Cal/Mol-Kelvin
 Total                  181.132             57.405            123.831
 Electronic               0.000              0.000              0.000
 Translational            0.889              2.981             41.888
 Rotational               0.889              2.981             32.210
 Vibrational            179.355             51.443             49.733
 Vibration     1          0.595              1.980              5.104
 Vibration     2          0.596              1.974              4.526
 Vibration     3          0.600              1.962              3.870
 Vibration     4          0.603              1.951              3.500
 Vibration     5          0.608              1.936              3.171
 Vibration     6          0.613              1.921              2.905
 Vibration     7          0.617              1.906              2.713
 Vibration     8          0.629              1.868              2.341
 Vibration     9          0.635              1.848              2.187
 Vibration    10          0.640              1.834              2.095
 Vibration    11          0.655              1.786              1.837
 Vibration    12          0.673              1.731              1.607
 Vibration    13          0.681              1.708              1.525
 Vibration    14          0.695              1.667              1.398
 Vibration    15          0.704              1.641              1.324
 Vibration    16          0.723              1.585              1.189
 Vibration    17          0.747              1.521              1.055
 Vibration    18          0.772              1.455              0.937
 Vibration    19          0.786              1.419              0.879
 Vibration    20          0.909              1.133              0.537
 Vibration    21          0.916              1.118              0.524
 Vibration    22          0.946              1.056              0.469

 Optimization completed.
    -- Stationary point found.
 Normal termination of Gaussian 16 at Sun Feb 14 12:52:58 2021.
