 Gaussian 16, Revision A.03,
 Gaussian 16:  ES64L-G16RevA.03 25-Dec-2016

 ----------------------------------------------------------------------
 # wB97XD def2tzvp, opt=(ts, noeigen, calcfc, maxcycles=70, maxstep=5),
  freq=noraman, scrf=(iefpcm, solvent=water)
 ----------------------------------------------------------------------

 ------------------------
 2_iteration/TS-414-2.out
 ------------------------
 Symbolic Z-matrix:
 Charge =  0 Multiplicity = 1

 SCF Done:  E(RwB97XD) =  -692.149669353     A.U. after   14 cycles
 Optimization completed.
    -- Stationary point found.
 Normal termination of Gaussian 16 at Sun Feb 14 15:39:26 2021.

 ---------------------------------------------------------------------
 #N Geom=AllCheck Guess=TCheck SCRF=Check GenChk RwB97XD/def2TZVP Freq
 ---------------------------------------------------------------------

 Structure from the checkpoint file:  "/beegfs/scratch/user/q/tla25/Gau-25336.chk"
 ------------------------
 2_iteration/TS-414-2.out
 ------------------------
 Charge =  0 Multiplicity = 1

                         Standard orientation:
 ---------------------------------------------------------------------
 Center     Atomic      Atomic             Coordinates (Angstroms)
 Number     Number       Type             X           Y           Z
 ---------------------------------------------------------------------
      1          6           0        0.958100    0.426300    0.744330
      2          6           0        1.685290   -0.424491   -0.144390
      3          8           0        1.359140   -0.604460   -1.344010
      4          6           0       -0.332800    0.947200    0.496250
      5          6           0        0.706440    2.944860   -1.224510
      6          1           0        1.553680    2.675060   -0.588060
      7          1           0        1.077820    3.148330   -2.229580
      8          1           0        0.232371    3.841520   -0.831180
      9          7           0       -0.232480    1.835360   -1.211010
     10          1           0       -1.141200    2.079680   -1.583920
     11          1           0        0.154990    1.040380   -1.717950
     12          6           0       -0.680830    2.118460    1.394250
     13          1           0       -0.808120    1.781160    2.423290
     14          1           0        0.131980    2.842160    1.391630
     15          1           0       -1.597370    2.616200    1.079160
     16          6           0       -1.505300    0.031310    0.198700
     17          6           0       -1.560661   -0.833380   -0.897280
     18          6           0       -2.645231   -1.674769   -1.093870
     19          6           0       -3.706011   -1.683479   -0.201210
     20          6           0       -3.666961   -0.834709    0.893010
     21          6           0       -2.585570    0.012601    1.084750
     22          1           0       -0.732381   -0.868030   -1.588040
     23          1           0       -2.656421   -2.330629   -1.955840
     24          1           0       -4.551471   -2.341599   -0.357040
     25          1           0       -4.483141   -0.824049    1.604770
     26          1           0       -2.593650    0.659071    1.950600
     27          1           0        1.530220    0.941170    1.505100
     28          7           0        2.830689   -1.022881    0.327330
     29          6           0        3.261329   -0.895541    1.699030
     30          6           0        3.815799   -1.542531   -0.592680
     31          1           0        2.406979   -0.933111    2.372720
     32          1           0        3.923759   -1.728301    1.939440
     33          1           0        3.810110    0.036769    1.883220
     34          1           0        3.396499   -1.556481   -1.593700
     35          1           0        4.720059   -0.922501   -0.592280
     36          1           0        4.103129   -2.559451   -0.312730
 ---------------------------------------------------------------------

 SCF Done:  E(RwB97XD) =  -692.149669353     A.U. after    1 cycles

 The electronic state is 1-A.
 Alpha  occ. eigenvalues --  -19.18873 -14.46797 -14.44183 -10.36131 -10.34643
 Alpha  occ. eigenvalues --  -10.31007 -10.30164 -10.30137 -10.29680 -10.28790
 Alpha  occ. eigenvalues --  -10.28733 -10.28684 -10.28625 -10.28141 -10.27699
 Alpha  occ. eigenvalues --  -10.23564  -1.11206  -1.02805  -1.01626  -0.96624
 Alpha  occ. eigenvalues --   -0.90710  -0.84833  -0.84029  -0.81878  -0.79696
 Alpha  occ. eigenvalues --   -0.78227  -0.76048  -0.71320  -0.69837  -0.65861
 Alpha  occ. eigenvalues --   -0.62529  -0.61898  -0.60145  -0.57912  -0.56393
 Alpha  occ. eigenvalues --   -0.55548  -0.55257  -0.55023  -0.53429  -0.52842
 Alpha  occ. eigenvalues --   -0.50789  -0.50623  -0.49618  -0.48489  -0.47785
 Alpha  occ. eigenvalues --   -0.47387  -0.46979  -0.46451  -0.45849  -0.45598
 Alpha  occ. eigenvalues --   -0.44917  -0.44294  -0.42254  -0.42066  -0.39981
 Alpha  occ. eigenvalues --   -0.33535  -0.33071  -0.32812  -0.30843  -0.25804
 Alpha virt. eigenvalues --    0.03920   0.05557   0.08563   0.10439   0.12089
 Alpha virt. eigenvalues --    0.13392   0.13922   0.14561   0.16004   0.16055
 Alpha virt. eigenvalues --    0.16931   0.17389   0.17739   0.17887   0.18645

 Mulliken charges:
               1
     1  C   -0.655610
     2  C    0.390166
     3  O   -0.633846
     4  C    0.345157
     5  C   -0.318471
     6  H    0.145530
     7  H    0.151285
     8  H    0.158924
     9  N   -0.310209
    10  H    0.273331
    11  H    0.268982
    12  C   -0.436574
    13  H    0.154166
    14  H    0.152937
    15  H    0.160388
    16  C    0.152878
    17  C   -0.265031
    18  C   -0.156276
    19  C   -0.158766
    20  C   -0.149296
    21  C   -0.253300
    22  H    0.167144
    23  H    0.138527
    24  H    0.140891
    25  H    0.140017
    26  H    0.149932
    27  H    0.144889
    28  N   -0.114691
    29  C   -0.304233
    30  C   -0.276892
    31  H    0.145593
    32  H    0.136828
    33  H    0.128816
    34  H    0.140966
    35  H    0.118380
    36  H    0.127469
 Sum of Mulliken charges =  -0.00000

 Dipole moment (field-independent basis, Debye):
    X=             -0.9657    Y=              5.0437    Z=              0.6048  Tot=              5.1708
 Quadrupole moment (field-independent basis, Debye-Ang):
   XX=            -87.4910   YY=            -87.3000   ZZ=            -94.6511
   XY=             -0.5024   XZ=              3.8684   YZ=             -3.6308

  Exact polarizability: 285.638  -2.097 229.463  -2.222  11.103 229.426
 Approx polarizability: 211.364   1.498 183.321  -3.058  11.551 196.402

 ******    1 imaginary frequencies (negative Signs) ******

                      1                      2                      3
                      A                      A                      A
 Frequencies --   -411.0193                26.2839                44.4227
 Red. masses --      4.8109                 3.7513                 3.2370
 Frc consts  --      0.4789                 0.0015                 0.0038
 IR Inten    --    807.8412                 0.3244                 4.6431

                      4                      5                      6
                      A                      A                      A
 Frequencies --     76.8146                84.8857               101.8394
 Red. masses --      2.9017                 2.9867                 1.5325
 Frc consts  --      0.0101                 0.0127                 0.0094
 IR Inten    --      2.2227                 1.8882                 3.0851

                      7                      8                      9
                      A                      A                      A
 Frequencies --    134.0196               138.8400               162.2106
 Red. masses --      2.8210                 2.5552                 2.9594
 Frc consts  --      0.0299                 0.0290                 0.0459
 IR Inten    --     20.3208                21.6064                23.2781

                     10                     11                     12
                      A                      A                      A
 Frequencies --    180.8585               213.6654               220.4028
 Red. masses --      1.3795                 2.9792                 2.4035
 Frc consts  --      0.0266                 0.0801                 0.0688
 IR Inten    --      6.4021                 2.8107                 2.5766

                     13                     14                     15
                      A                      A                      A
 Frequencies --    227.1129               246.4561               268.9654
 Red. masses --      1.4788                 1.8243                 2.5057
 Frc consts  --      0.0449                 0.0653                 0.1068
 IR Inten    --      2.4384                 5.8726                 1.9508

                     16                     17                     18
                      A                      A                      A
 Frequencies --    303.2321               324.9812               332.8763
 Red. masses --      3.7259                 1.9237                 1.4837
 Frc consts  --      0.2019                 0.1197                 0.0969
 IR Inten    --     35.7638                 2.2507                 2.3689

                     19                     20                     21
                      A                      A                      A
 Frequencies --    352.0181               370.9206               411.5214
 Red. masses --      3.3769                 3.5030                 2.7455
 Frc consts  --      0.2465                 0.2840                 0.2739
 IR Inten    --      3.1948                28.2828                 7.6034

                     22                     23                     24
                      A                      A                      A
 Frequencies --    422.7359               467.9523               494.4153
 Red. masses --      2.9204                 3.3494                 3.6752
 Frc consts  --      0.3075                 0.4321                 0.5293
 IR Inten    --      1.3707                20.8732                 4.7820

                     25                     26                     27
                      A                      A                      A
 Frequencies --    581.4564               601.2451               636.1431
 Red. masses --      2.9247                 2.9319                 4.0821
 Frc consts  --      0.5826                 0.6245                 0.9733
 IR Inten    --    117.0972                 7.7693                28.0609

                     28                     29                     30
                      A                      A                      A
 Frequencies --    640.2596               660.6500               702.1092
 Red. masses --      5.5888                 1.3326                 1.7968
 Frc consts  --      1.3498                 0.3427                 0.5219
 IR Inten    --      6.0826               165.2666                51.7352

                     31                     32                     33
                      A                      A                      A
 Frequencies --    726.3589               779.5853               789.5431
 Red. masses --      1.6289                 4.1949                 4.2219
 Frc consts  --      0.5063                 1.5021                 1.5506
 IR Inten    --    101.8907                44.5447                62.9869

                     34                     35                     36
                      A                      A                      A
 Frequencies --    801.7627               879.6554               886.8766
 Red. masses --      2.1790                 1.2480                 4.6867
 Frc consts  --      0.8253                 0.5690                 2.1719
 IR Inten    --      4.8782                 3.7236                 3.9170

                     37                     38                     39
                      A                      A                      A
 Frequencies --    963.0020               987.1691               999.1544
 Red. masses --      1.4378                 2.1436                 1.0907
 Frc consts  --      0.7856                 1.2308                 0.6415
 IR Inten    --      3.7343                43.1363                70.3351

                     40                     41                     42
                      A                      A                      A
 Frequencies --   1015.6470              1025.5386              1032.3485
 Red. masses --      1.4468                 3.2696                 1.4977
 Frc consts  --      0.8793                 2.0261                 0.9404
 IR Inten    --      4.6581                 0.8489                15.2129

                     43                     44                     45
                      A                      A                      A
 Frequencies --   1039.1451              1057.5070              1066.6650
 Red. masses --      1.8950                 1.9100                 2.2161
 Frc consts  --      1.2057                 1.2585                 1.4856
 IR Inten    --     94.3154                53.6211                59.3221

                     46                     47                     48
                      A                      A                      A
 Frequencies --   1073.0539              1082.3995              1097.1781
 Red. masses --      1.3502                 1.4046                 2.8928
 Frc consts  --      0.9160                 0.9696                 2.0517
 IR Inten    --     79.5422                13.9930                12.5412

                     49                     50                     51
                      A                      A                      A
 Frequencies --   1118.6981              1129.9383              1132.1345
 Red. masses --      1.8508                 1.6925                 1.2381
 Frc consts  --      1.3647                 1.2732                 0.9350
 IR Inten    --     43.1019                 9.6406                 6.0857

                     52                     53                     54
                      A                      A                      A
 Frequencies --   1167.9651              1186.5840              1202.0109
 Red. masses --      1.4842                 1.1263                 1.8316
 Frc consts  --      1.1929                 0.9343                 1.5592
 IR Inten    --    172.7498                 0.5643               300.2403

                     55                     56                     57
                      A                      A                      A
 Frequencies --   1209.3355              1231.4766              1233.5930
 Red. masses --      1.5271                 2.5526                 1.1640
 Frc consts  --      1.3158                 2.2808                 1.0437
 IR Inten    --     50.9145                37.0339                 7.2525

                     58                     59                     60
                      A                      A                      A
 Frequencies --   1311.7277              1319.2220              1359.6914
 Red. masses --      5.8179                 5.1725                 1.8488
 Frc consts  --      5.8980                 5.3038                 2.0138
 IR Inten    --     14.7618                16.4354               223.0226

                     61                     62                     63
                      A                      A                      A
 Frequencies --   1365.6241              1383.2703              1413.5446
 Red. masses --      1.5623                 1.3310                 1.3301
 Frc consts  --      1.7166                 1.5006                 1.5658
 IR Inten    --    131.6258                59.5295                13.8089

                     64                     65                     66
                      A                      A                      A
 Frequencies --   1416.6066              1426.5683              1450.0663
 Red. masses --      2.2683                 1.2080                 1.1930
 Frc consts  --      2.6820                 1.4485                 1.4780
 IR Inten    --     60.6583                23.4852                26.5806

                     67                     68                     69
                      A                      A                      A
 Frequencies --   1462.6368              1476.8175              1487.4926
 Red. masses --      1.2868                 1.4760                 1.2144
 Frc consts  --      1.6220                 1.8966                 1.5831
 IR Inten    --     48.9301               331.4418                 1.0791

                     70                     71                     72
                      A                      A                      A
 Frequencies --   1489.1572              1492.4865              1494.1001
 Red. masses --      1.0909                 1.0791                 1.0471
 Frc consts  --      1.4254                 1.4162                 1.3772
 IR Inten    --     27.0336                33.4167                16.2562

                     73                     74                     75
                      A                      A                      A
 Frequencies --   1500.0872              1508.9038              1511.5431
 Red. masses --      1.2273                 1.0936                 1.1322
 Frc consts  --      1.6272                 1.4669                 1.5241
 IR Inten    --     86.5699                78.4313                17.6735

                     76                     77                     78
                      A                      A                      A
 Frequencies --   1516.3228              1534.0129              1547.4399
 Red. masses --      1.4643                 1.4890                 2.0915
 Frc consts  --      1.9836                 2.0644                 2.9508
 IR Inten    --    178.8148               338.1244                98.7622

                     79                     80                     81
                      A                      A                      A
 Frequencies --   1584.1354              1647.8937              1648.7980
 Red. masses --      4.1270                 1.2108                 4.3420
 Frc consts  --      6.1020                 1.9372                 6.9546
 IR Inten    --    511.1804                22.1482                 5.5571

                     82                     83                     84
                      A                      A                      A
 Frequencies --   1675.0962              3006.2663              3014.0751
 Red. masses --      5.7006                 1.0502                 1.0481
 Frc consts  --      9.4243                 5.5919                 5.6097
 IR Inten    --      7.8870                89.6518               176.0697

                     85                     86                     87
                      A                      A                      A
 Frequencies --   3047.8712              3071.4993              3073.8254
 Red. masses --      1.0366                 1.0369                 1.0954
 Frc consts  --      5.6733                 5.7633                 6.0978
 IR Inten    --     58.3197                16.6522                80.4210

                     88                     89                     90
                      A                      A                      A
 Frequencies --   3094.9024              3117.6472              3144.4055
 Red. masses --      1.0853                 1.1016                 1.1020
 Frc consts  --      6.1250                 6.3086                 6.4196
 IR Inten    --     46.3584                17.9536                20.9615

                     91                     92                     93
                      A                      A                      A
 Frequencies --   3144.4998              3158.2559              3161.9424
 Red. masses --      1.1018                 1.1035                 1.1032
 Frc consts  --      6.4189                 6.4850                 6.4983
 IR Inten    --     18.6216                34.0531                16.2213

                     94                     95                     96
                      A                      A                      A
 Frequencies --   3184.2901              3192.2433              3194.9355
 Red. masses --      1.0952                 1.0862                 1.0870
 Frc consts  --      6.5426                 6.5216                 6.5375
 IR Inten    --      5.4664                 1.1224                15.4649

                     97                     98                     99
                      A                      A                      A
 Frequencies --   3200.6724              3216.1209              3234.2614
 Red. masses --      1.0908                 1.0963                 1.0923
 Frc consts  --      6.5835                 6.6809                 6.7321
 IR Inten    --     22.7771                28.3063                13.6822

                    100                    101                    102
                      A                      A                      A
 Frequencies --   3244.7941              3440.7737              3592.7848
 Red. masses --      1.0928                 1.0605                 1.0883
 Frc consts  --      6.7789                 7.3972                 8.2766
 IR Inten    --     22.9953                95.4626                82.6536

 - Thermochemistry -
 -------------------
 Temperature   298.150 Kelvin.  Pressure   1.00000 Atm.
 Atom     1 has atomic number  6 and mass  12.00000

 Molecular mass:   220.15756 amu.
 Principal axes and moments of inertia in atomic units:
                           1         2         3
     Eigenvalues --  2455.912785156.786195888.11011
           X            0.99995  -0.00899   0.00376
           Y            0.00897   0.99995   0.00384
           Z           -0.00379  -0.00381   0.99999
 This molecule is an asymmetric top.
 Rotational symmetry number  1.
 Warning -- assumption of classical behavior for rotation
           may cause significant error
 Rotational temperatures (Kelvin)      0.03527     0.01680     0.01471
 Rotational constants (GHZ):           0.73486     0.34997     0.30651
    1 imaginary frequencies ignored.
 Zero-point vibrational energy     824842.7 (Joules/Mol)
                                  197.14214 (Kcal/Mol)
 Warning -- explicit consideration of  25 degrees of freedom as
           vibrations may cause significant error
 Vibrational temperatures:     37.82    63.91   110.52   122.13   146.52
          (Kelvin)            192.82   199.76   233.38   260.22   307.42
                              317.11   326.76   354.60   386.98   436.28
                              467.58   478.93   506.48   533.67   592.09
                              608.22   673.28   711.35   836.59   865.06
                              915.27   921.19   950.53  1010.18  1045.07
                             1121.65  1135.98  1153.56  1265.63  1276.02
                             1385.55  1420.32  1437.56  1461.29  1475.52
                             1485.32  1495.10  1521.52  1534.69  1543.89
                             1557.33  1578.59  1609.56  1625.73  1628.89
                             1680.44  1707.23  1729.43  1739.96  1771.82
                             1774.87  1887.28  1898.07  1956.29  1964.83
                             1990.22  2033.78  2038.18  2052.51  2086.32
                             2104.41  2124.81  2140.17  2142.57  2147.36
                             2149.68  2158.29  2170.98  2174.77  2181.65
                             2207.10  2226.42  2279.22  2370.95  2372.25
                             2410.09  4325.35  4336.58  4385.21  4419.20
                             4422.55  4452.87  4485.60  4524.10  4524.23
                             4544.03  4549.33  4581.48  4592.93  4596.80
                             4605.05  4627.28  4653.38  4668.53  4950.51
                             5169.22

 Zero-point correction=                           0.314166 (Hartree/Particle)
 Thermal correction to Energy=                    0.331052
 Thermal correction to Enthalpy=                  0.331996
 Thermal correction to Gibbs Free Energy=         0.269497
 Sum of electronic and zero-point Energies=           -691.835503
 Sum of electronic and thermal Energies=              -691.818617
 Sum of electronic and thermal Enthalpies=            -691.817673
 Sum of electronic and thermal Free Energies=         -691.880173

                     E (Thermal)             CV                S
                      KCal/Mol        Cal/Mol-Kelvin    Cal/Mol-Kelvin
 Total                  207.738             63.510            131.541
 Electronic               0.000              0.000              0.000
 Translational            0.889              2.981             42.070
 Rotational               0.889              2.981             32.678
 Vibrational            205.961             57.549             56.793
 Vibration     1          0.593              1.985              6.092
 Vibration     2          0.595              1.980              5.051
 Vibration     3          0.599              1.965              3.971
 Vibration     4          0.601              1.960              3.775
 Vibration     5          0.604              1.948              3.419
 Vibration     6          0.613              1.919              2.888
 Vibration     7          0.614              1.915              2.820
 Vibration     8          0.622              1.889              2.524
 Vibration     9          0.630              1.866              2.320
 Vibration    10          0.644              1.820              2.012
 Vibration    11          0.647              1.810              1.956
 Vibration    12          0.651              1.800              1.902
 Vibration    13          0.661              1.769              1.756
 Vibration    14          0.673              1.730              1.603
 Vibration    15          0.695              1.668              1.399
 Vibration    16          0.709              1.626              1.285
 Vibration    17          0.715              1.610              1.246
 Vibration    18          0.729              1.571              1.157
 Vibration    19          0.743              1.532              1.076
 Vibration    20          0.775              1.445              0.921
 Vibration    21          0.785              1.421              0.883
 Vibration    22          0.825              1.321              0.743
 Vibration    23          0.850              1.262              0.672
 Vibration    24          0.938              1.071              0.483
 Vibration    25          0.959              1.029              0.448

 Optimization completed.
    -- Stationary point found.
 Normal termination of Gaussian 16 at Sun Feb 14 17:04:00 2021.
