 Gaussian 16, Revision A.03,
 Gaussian 16:  ES64L-G16RevA.03 25-Dec-2016

 ----------------------------------------------------------------------
 # wB97XD def2tzvp, opt=(ts, noeigen, calcfc, maxcycles=70, maxstep=3),
  freq=noraman, scrf=(iefpcm, solvent=water)
 ----------------------------------------------------------------------

 ------------------------
 0_iteration/TS-424-0.out
 ------------------------
 Symbolic Z-matrix:
 Charge =  0 Multiplicity = 1

 SCF Done:  E(RwB97XD) =  -828.527033158     A.U. after   15 cycles
 SCF Done:  E(RwB97XD) =  -828.527042761     A.U. after   10 cycles
 SCF Done:  E(RwB97XD) =  -828.527048109     A.U. after   10 cycles
 SCF Done:  E(RwB97XD) =  -828.527050026     A.U. after   10 cycles
 SCF Done:  E(RwB97XD) =  -828.527050089     A.U. after    7 cycles
 Optimization completed.
    -- Stationary point found.
 Normal termination of Gaussian 16 at Wed Apr 14 05:52:25 2021.

 ---------------------------------------------------------------------
 #N Geom=AllCheck Guess=TCheck SCRF=Check GenChk RwB97XD/def2TZVP Freq
 ---------------------------------------------------------------------

 Structure from the checkpoint file:  "/beegfs/scratch/user/q/tla25/Gau-345595.chk"
 ------------------------
 0_iteration/TS-424-0.out
 ------------------------
 Charge =  0 Multiplicity = 1

                         Standard orientation:
 ---------------------------------------------------------------------
 Center     Atomic      Atomic             Coordinates (Angstroms)
 Number     Number       Type             X           Y           Z
 ---------------------------------------------------------------------
      1          6           0        0.126801    0.770401    0.713436
      2          6           0        0.821540    0.165465   -0.364124
      3          8           0        0.300169   -0.074107   -1.478240
      4          6           0       -1.283915    0.868084    0.630312
      5          6           0       -0.786948    3.246267   -0.946384
      6          1           0        0.191537    3.007085   -0.526719
      7          1           0       -0.640239    3.678709   -1.937806
      8          1           0       -1.278009    3.980332   -0.309401
      9          7           0       -1.574895    2.026776   -0.993513
     10          1           0       -2.535792    2.204565   -1.251287
     11          1           0       -1.161253    1.344245   -1.626641
     12          6           0       -1.989600    1.689278    1.679862
     13          1           0       -1.910075    1.175005    2.641233
     14          1           0       -1.543074    2.675561    1.792700
     15          1           0       -3.047061    1.803314    1.450048
     16          6           0       -2.097642   -0.328975    0.200338
     17          6           0       -3.392520   -0.207490   -0.301060
     18          6           0       -4.155474   -1.325490   -0.601000
     19          6           0       -3.646051   -2.596781   -0.384567
     20          6           0       -2.370644   -2.734156    0.143021
     21          6           0       -1.610348   -1.613361    0.435533
     22          1           0       -3.830792    0.769045   -0.459382
     23          1           0       -5.154312   -1.199210   -0.999373
     24          1           0       -4.241313   -3.471221   -0.614955
     25          1           0       -1.963859   -3.719691    0.332536
     26          1           0       -0.621035   -1.729545    0.857140
     27          6           0        0.859043    1.485792    1.827603
     28          1           0        0.636143    2.556803    1.847061
     29          1           0        0.606005    1.093568    2.817783
     30          1           0        1.936551    1.397169    1.709839
     31          6           0        2.272545   -0.207151   -0.215354
     32          6           0        2.721211   -0.939698    0.879538
     33          6           0        4.045163   -1.344928    0.963431
     34          6           0        4.940695   -1.004333   -0.040726
     35          6           0        4.502458   -0.269867   -1.134846
     36          6           0        3.173479    0.114544   -1.225922
     37          1           0        2.024480   -1.198325    1.668173
     38          1           0        4.378595   -1.925700    1.814415
     39          1           0        5.976478   -1.312502    0.027452
     40          1           0        5.197615   -0.000758   -1.920427
     41          1           0        2.823567    0.671367   -2.086431
 ---------------------------------------------------------------------

 SCF Done:  E(RwB97XD) =  -828.527050089     A.U. after    1 cycles

 The electronic state is 1-A.
 Alpha  occ. eigenvalues --  -19.20080 -14.45991 -10.34847 -10.34423 -10.30823
 Alpha  occ. eigenvalues --  -10.30275 -10.29197 -10.29164 -10.29013 -10.29002
 Alpha  occ. eigenvalues --  -10.28971 -10.28925 -10.28923 -10.28903 -10.28857
 Alpha  occ. eigenvalues --  -10.28836 -10.28755 -10.28054 -10.26799 -10.25541
 Alpha  occ. eigenvalues --   -1.10445  -1.01967  -0.97039  -0.96422  -0.91922
 Alpha  occ. eigenvalues --   -0.86863  -0.85203  -0.85000  -0.84652  -0.81949
 Alpha  occ. eigenvalues --   -0.77829  -0.76273  -0.73166  -0.70555  -0.70219
 Alpha  occ. eigenvalues --   -0.69788  -0.66337  -0.63220  -0.61642  -0.61022
 Alpha  occ. eigenvalues --   -0.57936  -0.56501  -0.56165  -0.55008  -0.54440
 Alpha  occ. eigenvalues --   -0.53711  -0.53350  -0.52699  -0.51915  -0.50996
 Alpha  occ. eigenvalues --   -0.50731  -0.49639  -0.49131  -0.48279  -0.47935
 Alpha  occ. eigenvalues --   -0.46825  -0.46392  -0.46019  -0.45675  -0.45054
 Alpha  occ. eigenvalues --   -0.44145  -0.43441  -0.42665  -0.42059  -0.41640
 Alpha  occ. eigenvalues --   -0.39421  -0.34331  -0.33702  -0.33594  -0.32870
 Alpha  occ. eigenvalues --   -0.31221  -0.26483
 Alpha virt. eigenvalues --    0.01572   0.04528   0.05326   0.05495   0.08131
 Alpha virt. eigenvalues --    0.10179   0.12283   0.13330   0.13519   0.14839
 Alpha virt. eigenvalues --    0.15194   0.15741   0.16287   0.16418   0.17098

 Mulliken charges:
               1
     1  C   -0.340897
     2  C    0.316388
     3  O   -0.564456
     4  C    0.266349
     5  C   -0.306675
     6  H    0.150046
     7  H    0.148191
     8  H    0.152585
     9  N   -0.351457
    10  H    0.260044
    11  H    0.270310
    12  C   -0.365430
    13  H    0.152253
    14  H    0.134689
    15  H    0.146715
    16  C    0.208427
    17  C   -0.265103
    18  C   -0.175581
    19  C   -0.135558
    20  C   -0.170264
    21  C   -0.199826
    22  H    0.148932
    23  H    0.140900
    24  H    0.142790
    25  H    0.138128
    26  H    0.164166
    27  C   -0.401551
    28  H    0.124753
    29  H    0.124839
    30  H    0.146478
    31  C    0.141634
    32  C   -0.258287
    33  C   -0.129124
    34  C   -0.136337
    35  C   -0.149955
    36  C   -0.250737
    37  H    0.160575
    38  H    0.141179
    39  H    0.144069
    40  H    0.140751
    41  H    0.136046
 Sum of Mulliken charges =  -0.00000

 Dipole moment (field-independent basis, Debye):
    X=             -3.4535    Y=              4.4416    Z=              1.7214  Tot=              5.8837
 Quadrupole moment (field-independent basis, Debye-Ang):
   XX=           -101.8064   YY=           -104.9303   ZZ=           -120.9601
   XY=             -8.4865   XZ=              5.0157   YZ=             -7.9258

  Exact polarizability: 374.787 -21.843 298.137  10.153 -16.079 267.523
 Approx polarizability: 280.506 -16.106 242.321  10.745 -14.489 232.090

 ******    1 imaginary frequencies (negative Signs) ******

                      1                      2                      3
                      A                      A                      A
 Frequencies --   -381.9033                32.2892                47.5242
 Red. masses --      5.0567                 4.7628                 3.7883
 Frc consts  --      0.4345                 0.0029                 0.0050
 IR Inten    --    648.0719                 0.8477                 1.7339

                      4                      5                      6
                      A                      A                      A
 Frequencies --     52.8964                78.3886                87.5336
 Red. masses --      3.8039                 3.2550                 2.7113
 Frc consts  --      0.0063                 0.0118                 0.0122
 IR Inten    --      0.0433                 2.0990                 5.8126

                      7                      8                      9
                      A                      A                      A
 Frequencies --    100.6678               121.6002               142.0275
 Red. masses --      4.1084                 2.2493                 3.3975
 Frc consts  --      0.0245                 0.0196                 0.0404
 IR Inten    --      5.3928                 9.4857                 7.2144

                     10                     11                     12
                      A                      A                      A
 Frequencies --    165.9002               182.2166               208.5333
 Red. masses --      1.5526                 2.5900                 3.2765
 Frc consts  --      0.0252                 0.0507                 0.0839
 IR Inten    --      3.7379                21.1845                 1.6422

                     13                     14                     15
                      A                      A                      A
 Frequencies --    219.6398               230.8132               260.2658
 Red. masses --      3.4476                 1.3124                 1.6060
 Frc consts  --      0.0980                 0.0412                 0.0641
 IR Inten    --      2.3113                 2.0312                 1.7508

                     16                     17                     18
                      A                      A                      A
 Frequencies --    267.8170               282.3156               288.4511
 Red. masses --      1.9341                 3.8466                 2.6966
 Frc consts  --      0.0817                 0.1806                 0.1322
 IR Inten    --      1.2141                 4.0912                 6.5324

                     19                     20                     21
                      A                      A                      A
 Frequencies --    320.4245               358.2744               382.1786
 Red. masses --      3.8798                 3.8633                 3.6341
 Frc consts  --      0.2347                 0.2922                 0.3127
 IR Inten    --     38.2688                 1.4997                 6.1616

                     22                     23                     24
                      A                      A                      A
 Frequencies --    399.1315               421.5722               425.1945
 Red. masses --      2.9568                 3.1728                 3.1120
 Frc consts  --      0.2775                 0.3322                 0.3315
 IR Inten    --      9.6008                 4.1422                 2.3363

                     25                     26                     27
                      A                      A                      A
 Frequencies --    430.9024               500.5078               560.2884
 Red. masses --      3.2469                 3.7476                 3.1088
 Frc consts  --      0.3552                 0.5531                 0.5750
 IR Inten    --      1.4101                18.6726                17.4206

                     28                     29                     30
                      A                      A                      A
 Frequencies --    570.2346               603.9446               635.9685
 Red. masses --      3.4767                 2.7515                 5.9157
 Frc consts  --      0.6661                 0.5913                 1.4097
 IR Inten    --    134.9866                27.3393                 8.2241

                     31                     32                     33
                      A                      A                      A
 Frequencies --    638.8686               642.1288               671.5539
 Red. masses --      6.2864                 4.0024                 2.0014
 Frc consts  --      1.5117                 0.9723                 0.5318
 IR Inten    --      2.1361                82.5314                20.5959

                     34                     35                     36
                      A                      A                      A
 Frequencies --    706.6464               726.3626               728.5472
 Red. masses --      5.0155                 1.6179                 1.6376
 Frc consts  --      1.4756                 0.5029                 0.5121
 IR Inten    --      3.1313                82.2261                68.8674

                     37                     38                     39
                      A                      A                      A
 Frequencies --    759.9307               785.8217               796.4192
 Red. masses --      3.2767                 2.7903                 2.4081
 Frc consts  --      1.1149                 1.0152                 0.8999
 IR Inten    --     92.2227                20.2297                48.2714

                     40                     41                     42
                      A                      A                      A
 Frequencies --    828.5374               880.2475               881.3614
 Red. masses --      3.0289                 1.2442                 1.2499
 Frc consts  --      1.2251                 0.5680                 0.5720
 IR Inten    --     26.4646                 0.9137                 0.5139

                     43                     44                     45
                      A                      A                      A
 Frequencies --    933.1021               960.2324               966.8196
 Red. masses --      2.6807                 1.3902                 1.5137
 Frc consts  --      1.3752                 0.7552                 0.8337
 IR Inten    --     12.8042                34.4109                12.7253

                     46                     47                     48
                      A                      A                      A
 Frequencies --    986.5213              1014.7365              1018.6299
 Red. masses --      1.1530                 1.3862                 1.4575
 Frc consts  --      0.6611                 0.8410                 0.8910
 IR Inten    --     89.0135                 4.1260                10.9884

                     49                     50                     51
                      A                      A                      A
 Frequencies --   1025.6275              1026.3078              1028.5851
 Red. masses --      3.5293                 5.0693                 1.5498
 Frc consts  --      2.1873                 3.1460                 0.9661
 IR Inten    --     28.9573                 6.0604                94.5878

                     52                     53                     54
                      A                      A                      A
 Frequencies --   1029.2114              1031.3934              1035.5903
 Red. masses --      1.4855                 1.5234                 1.4189
 Frc consts  --      0.9271                 0.9548                 0.8966
 IR Inten    --     19.6686                68.3247                91.3055

                     55                     56                     57
                      A                      A                      A
 Frequencies --   1049.1823              1060.1580              1061.9634
 Red. masses --      1.1981                 2.0343                 2.0424
 Frc consts  --      0.7771                 1.3471                 1.3571
 IR Inten    --     34.1089                18.9411                 5.3396

                     58                     59                     60
                      A                      A                      A
 Frequencies --   1070.6371              1094.7017              1099.9980
 Red. masses --      1.4490                 2.5960                 2.2473
 Frc consts  --      0.9786                 1.8329                 1.6021
 IR Inten    --     12.3097                 8.4728                28.0630

                     61                     62                     63
                      A                      A                      A
 Frequencies --   1108.6440              1117.9922              1149.4819
 Red. masses --      1.5253                 1.6960                 2.6461
 Frc consts  --      1.1045                 1.2489                 2.0600
 IR Inten    --     12.7793                14.9098                 0.6271

                     64                     65                     66
                      A                      A                      A
 Frequencies --   1182.3798              1182.8614              1198.1170
 Red. masses --      1.1366                 1.1283                 1.3817
 Frc consts  --      0.9362                 0.9301                 1.1686
 IR Inten    --      0.2934                 0.0225                33.0394

                     67                     68                     69
                      A                      A                      A
 Frequencies --   1201.3729              1214.9003              1222.7726
 Red. masses --      1.1366                 1.1963                 3.6673
 Frc consts  --      0.9665                 1.0404                 3.2307
 IR Inten    --      8.2080                 5.7707                39.4249

                     70                     71                     72
                      A                      A                      A
 Frequencies --   1272.0852              1321.2896              1324.4854
 Red. masses --      4.2955                 4.3078                 3.9588
 Frc consts  --      4.0954                 4.4310                 4.0917
 IR Inten    --     22.8865                 5.2303                10.0795

                     73                     74                     75
                      A                      A                      A
 Frequencies --   1351.8984              1353.2130              1368.4747
 Red. masses --      1.5287                 1.5453                 1.3352
 Frc consts  --      1.6461                 1.6673                 1.4733
 IR Inten    --     26.0873                 3.8851                 5.3461

                     76                     77                     78
                      A                      A                      A
 Frequencies --   1378.0714              1406.0310              1419.5222
 Red. masses --      3.9556                 2.0322                 1.7118
 Frc consts  --      4.4260                 2.3670                 2.0323
 IR Inten    --    148.4019               415.9619               412.5281

                     79                     80                     81
                      A                      A                      A
 Frequencies --   1431.1367              1458.9490              1477.3727
 Red. masses --      1.3126                 1.1995                 1.0957
 Frc consts  --      1.5839                 1.5042                 1.4090
 IR Inten    --    175.0491                19.4240                 9.2973

                     82                     83                     84
                      A                      A                      A
 Frequencies --   1485.4138              1488.2819              1490.8136
 Red. masses --      1.1553                 1.9892                 1.9298
 Frc consts  --      1.5019                 2.5959                 2.5271
 IR Inten    --     29.5924                11.1391                25.3659

                     85                     86                     87
                      A                      A                      A
 Frequencies --   1494.5023              1504.0201              1509.6761
 Red. masses --      1.0839                 1.1167                 1.0643
 Frc consts  --      1.4263                 1.4883                 1.4291
 IR Inten    --     38.5093               106.1805                53.5461

                     88                     89                     90
                      A                      A                      A
 Frequencies --   1514.4227              1539.6066              1541.7534
 Red. masses --      1.0513                 2.3773                 2.2658
 Frc consts  --      1.4205                 3.3201                 3.1732
 IR Inten    --     10.2135                 8.9313                27.4290

                     91                     92                     93
                      A                      A                      A
 Frequencies --   1581.3937              1642.8333              1650.1439
 Red. masses --      6.3702                 1.1816                 5.7205
 Frc consts  --      9.3860                 1.8789                 9.1776
 IR Inten    --    445.2626                38.6418                 2.2826

                     94                     95                     96
                      A                      A                      A
 Frequencies --   1653.1251              1673.5173              1673.6242
 Red. masses --      5.1700                 5.9384                 5.9320
 Frc consts  --      8.3244                 9.7990                 9.7897
 IR Inten    --     11.7959                 2.3101                 4.5275

                     97                     98                     99
                      A                      A                      A
 Frequencies --   3026.5038              3055.1696              3060.7688
 Red. masses --      1.0432                 1.0341                 1.0425
 Frc consts  --      5.6299                 5.6868                 5.7542
 IR Inten    --    103.1878                60.3669                19.9244

                    100                    101                    102
                      A                      A                      A
 Frequencies --   3069.6597              3123.1669              3135.3974
 Red. masses --      1.0990                 1.1028                 1.0945
 Frc consts  --      6.1015                 6.3377                 6.3394
 IR Inten    --     54.0448                17.7611                21.6881

                    103                    104                    105
                      A                      A                      A
 Frequencies --   3152.2333              3153.3208              3165.8570
 Red. masses --      1.1027                 1.0954                 1.1036
 Frc consts  --      6.4558                 6.4174                 6.5170
 IR Inten    --     40.5656                13.4213                24.6631

                    106                    107                    108
                      A                      A                      A
 Frequencies --   3190.0399              3194.4057              3195.1474
 Red. masses --      1.0861                 1.0857                 1.0878
 Frc consts  --      6.5117                 6.5273                 6.5429
 IR Inten    --      3.8359                 1.0280                 0.2319

                    109                    110                    111
                      A                      A                      A
 Frequencies --   3202.3052              3203.6336              3210.7351
 Red. masses --      1.0888                 1.0914                 1.0950
 Frc consts  --      6.5786                 6.5996                 6.6507
 IR Inten    --      6.1483                 9.6336                40.4789

                    112                    113                    114
                      A                      A                      A
 Frequencies --   3212.8614              3220.2156              3220.3900
 Red. masses --      1.0920                 1.0987                 1.0937
 Frc consts  --      6.6416                 6.7130                 6.6829
 IR Inten    --     30.1234                29.8589                31.3497

                    115                    116                    117
                      A                      A                      A
 Frequencies --   3225.1273              3446.5812              3612.6184
 Red. masses --      1.0974                 1.0616                 1.0864
 Frc consts  --      6.7250                 7.4301                 8.3541
 IR Inten    --      8.5970                75.8232                68.3492

 - Thermochemistry -
 -------------------
 Temperature   298.150 Kelvin.  Pressure   1.00000 Atm.
 Atom     1 has atomic number  6 and mass  12.00000

 Molecular mass:   267.16231 amu.
 Principal axes and moments of inertia in atomic units:
                           1         2         3
     Eigenvalues --  3211.726267997.410839335.27367
           X            0.99996  -0.00854   0.00257
           Y            0.00854   0.99996  -0.00170
           Z           -0.00255   0.00173   1.00000
 This molecule is an asymmetric top.
 Rotational symmetry number  1.
 Warning -- assumption of classical behavior for rotation
           may cause significant error
 Rotational temperatures (Kelvin)      0.02697     0.01083     0.00928
 Rotational constants (GHZ):           0.56192     0.22567     0.19332
    1 imaginary frequencies ignored.
 Zero-point vibrational energy     918598.3 (Joules/Mol)
                                  219.55026 (Kcal/Mol)
 Warning -- explicit consideration of  28 degrees of freedom as
           vibrations may cause significant error
 Vibrational temperatures:     46.46    68.38    76.11   112.78   125.94
          (Kelvin)            144.84   174.96   204.35   238.69   262.17
                              300.03   316.01   332.09   374.46   385.33
                              406.19   415.02   461.02   515.48   549.87
                              574.26   606.55   611.76   619.97   720.12
                              806.13   820.44   868.94   915.02   919.19
                              923.88   966.22  1016.71  1045.07  1048.22
                             1093.37  1130.62  1145.87  1192.08  1266.48
                             1268.08  1342.53  1381.56  1391.04  1419.38
                             1459.98  1465.58  1475.65  1476.63  1479.90
                             1480.81  1483.95  1489.98  1509.54  1525.33
                             1527.93  1540.41  1575.03  1582.65  1595.09
                             1608.54  1653.85  1701.18  1701.87  1723.82
                             1728.51  1747.97  1759.30  1830.25  1901.04
                             1905.64  1945.08  1946.97  1968.93  1982.74
                             2022.96  2042.38  2059.09  2099.10  2125.61
                             2137.18  2141.31  2144.95  2150.26  2163.95
                             2172.09  2178.92  2215.15  2218.24  2275.27
                             2363.67  2374.19  2378.48  2407.82  2407.97
                             4354.46  4395.71  4403.76  4416.56  4493.54
                             4511.14  4535.36  4536.93  4554.96  4589.76
                             4596.04  4597.10  4607.40  4609.31  4619.53
                             4622.59  4633.17  4633.42  4640.24  4958.86
                             5197.75

 Zero-point correction=                           0.349876 (Hartree/Particle)
 Thermal correction to Energy=                    0.368690
 Thermal correction to Enthalpy=                  0.369634
 Thermal correction to Gibbs Free Energy=         0.302783
 Sum of electronic and zero-point Energies=           -828.177174
 Sum of electronic and thermal Energies=              -828.158360
 Sum of electronic and thermal Enthalpies=            -828.157416
 Sum of electronic and thermal Free Energies=         -828.224267

                     E (Thermal)             CV                S
                      KCal/Mol        Cal/Mol-Kelvin    Cal/Mol-Kelvin
 Total                  231.356             73.015            140.700
 Electronic               0.000              0.000              0.000
 Translational            0.889              2.981             42.647
 Rotational               0.889              2.981             33.838
 Vibrational            229.579             67.053             64.214
 Vibration     1          0.594              1.983              5.684
 Vibration     2          0.595              1.979              4.918
 Vibration     3          0.596              1.976              4.706
 Vibration     4          0.600              1.964              3.931
 Vibration     5          0.601              1.958              3.714
 Vibration     6          0.604              1.949              3.441
 Vibration     7          0.609              1.931              3.075
 Vibration     8          0.615              1.911              2.776
 Vibration     9          0.624              1.884              2.481
 Vibration    10          0.630              1.864              2.306
 Vibration    11          0.642              1.828              2.056
 Vibration    12          0.647              1.811              1.962
 Vibration    13          0.653              1.794              1.873
 Vibration    14          0.668              1.745              1.660
 Vibration    15          0.673              1.732              1.610
 Vibration    16          0.681              1.706              1.520
 Vibration    17          0.685              1.695              1.483
 Vibration    18          0.706              1.634              1.308
 Vibration    19          0.733              1.558              1.130
 Vibration    20          0.752              1.508              1.031
 Vibration    21          0.765              1.472              0.966
 Vibration    22          0.784              1.423              0.887
 Vibration    23          0.787              1.415              0.875
 Vibration    24          0.792              1.403              0.856
 Vibration    25          0.856              1.249              0.657
 Vibration    26          0.916              1.117              0.523
 Vibration    27          0.926              1.096              0.504
 Vibration    28          0.962              1.023              0.443

 Optimization completed.
    -- Stationary point found.
 Normal termination of Gaussian 16 at Wed Apr 14 07:04:48 2021.
