 Gaussian 16, Revision A.03,
 Gaussian 16:  ES64L-G16RevA.03 25-Dec-2016

 ----------------------------------------------------------------------
 # wB97XD def2tzvp, opt=(ts, noeigen, calcfc, maxcycles=70, maxstep=3),
  freq=noraman, scrf=(iefpcm, solvent=water)
 ----------------------------------------------------------------------

 ------------------------
 0_iteration/TS-480-0.out
 ------------------------
 Symbolic Z-matrix:
 Charge =  0 Multiplicity = 1

 SCF Done:  E(RwB97XD) =  -1017.77241941     A.U. after   15 cycles
 SCF Done:  E(RwB97XD) =  -1017.77241730     A.U. after   10 cycles
 SCF Done:  E(RwB97XD) =  -1017.77242810     A.U. after    8 cycles
 SCF Done:  E(RwB97XD) =  -1017.77247089     A.U. after    9 cycles
 SCF Done:  E(RwB97XD) =  -1017.77262758     A.U. after   10 cycles
 SCF Done:  E(RwB97XD) =  -1017.77287028     A.U. after   10 cycles
 SCF Done:  E(RwB97XD) =  -1017.77317799     A.U. after   10 cycles
 SCF Done:  E(RwB97XD) =  -1017.77352475     A.U. after   10 cycles
 SCF Done:  E(RwB97XD) =  -1017.77387916     A.U. after   10 cycles
 SCF Done:  E(RwB97XD) =  -1017.77420910     A.U. after   10 cycles
 SCF Done:  E(RwB97XD) =  -1017.77483446     A.U. after   11 cycles
 SCF Done:  E(RwB97XD) =  -1017.77492815     A.U. after   11 cycles
 SCF Done:  E(RwB97XD) =  -1017.77500551     A.U. after   11 cycles
 SCF Done:  E(RwB97XD) =  -1017.77506238     A.U. after   11 cycles
 SCF Done:  E(RwB97XD) =  -1017.77507826     A.U. after   11 cycles
 SCF Done:  E(RwB97XD) =  -1017.77508053     A.U. after   10 cycles
 SCF Done:  E(RwB97XD) =  -1017.77507926     A.U. after   10 cycles
 SCF Done:  E(RwB97XD) =  -1017.77508413     A.U. after    9 cycles
 SCF Done:  E(RwB97XD) =  -1017.77508439     A.U. after    8 cycles
 Optimization completed.
    -- Stationary point found.
 Normal termination of Gaussian 16 at Fri Mar 26 11:44:28 2021.

 ---------------------------------------------------------------------
 #N Geom=AllCheck Guess=TCheck SCRF=Check GenChk RwB97XD/def2TZVP Freq
 ---------------------------------------------------------------------

 Structure from the checkpoint file:  "/beegfs/scratch/user/q/tla25/Gau-40128.chk"
 ------------------------
 0_iteration/TS-480-0.out
 ------------------------
 Charge =  0 Multiplicity = 1

                         Standard orientation:
 ---------------------------------------------------------------------
 Center     Atomic      Atomic             Coordinates (Angstroms)
 Number     Number       Type             X           Y           Z
 ---------------------------------------------------------------------
      1          6           0        0.823352    0.489671   -0.231086
      2          6           0       -0.115027   -0.558440   -0.485130
      3          8           0        0.260012   -1.651543   -0.934697
      4          6           0        2.141319    0.350363   -0.634535
      5          6           0        4.339510   -1.475802    0.284100
      6          1           0        4.625266   -2.345895    0.878847
      7          1           0        4.363672   -1.750643   -0.770714
      8          1           0        5.066864   -0.683790    0.452761
      9          7           0        3.006495   -0.988834    0.616999
     10          1           0        2.306695   -1.717364    0.539188
     11          1           0        2.960418   -0.596864    1.548869
     12          6           0        3.141786    1.458379   -0.578204
     13          1           0        2.838094    2.241457   -1.277102
     14          1           0        3.197563    1.903268    0.414283
     15          1           0        4.129596    1.110327   -0.873283
     16          1           0        2.265515   -0.356541   -1.446133
     17         17           0        0.400600    1.813604    0.851021
     18          6           0       -1.579983   -0.365214   -0.224336
     19          6           0       -2.263286    0.758094   -0.680197
     20          6           0       -3.632848    0.867754   -0.494417
     21          6           0       -4.328084   -0.134725    0.167954
     22          6           0       -3.651568   -1.255642    0.629273
     23          6           0       -2.286131   -1.375117    0.421842
     24          1           0       -1.722903    1.544385   -1.192075
     25          1           0       -4.158399    1.738487   -0.865713
     26          1           0       -5.396034   -0.043769    0.321412
     27          1           0       -4.189695   -2.040288    1.146015
     28          1           0       -1.756654   -2.255775    0.763299
 ---------------------------------------------------------------------

 SCF Done:  E(RwB97XD) =  -1017.77508439     A.U. after    1 cycles

 The electronic state is 1-A.
 Alpha  occ. eigenvalues -- -101.68756 -19.21644 -14.46432 -10.36431 -10.34038
 Alpha  occ. eigenvalues --  -10.31327 -10.30912 -10.29794 -10.29348 -10.29267
 Alpha  occ. eigenvalues --  -10.29245 -10.29119 -10.29102 -10.28395  -9.57293
 Alpha  occ. eigenvalues --   -7.31913  -7.31087  -7.31074  -1.12373  -1.02152
 Alpha  occ. eigenvalues --   -0.97080  -0.96137  -0.88031  -0.86431  -0.85303
 Alpha  occ. eigenvalues --   -0.80313  -0.78052  -0.73672  -0.70627  -0.67957
 Alpha  occ. eigenvalues --   -0.63135  -0.62055  -0.60137  -0.57157  -0.55786
 Alpha  occ. eigenvalues --   -0.55131  -0.54260  -0.53505  -0.52994  -0.51197
 Alpha  occ. eigenvalues --   -0.49987  -0.49673  -0.48795  -0.47874  -0.46860
 Alpha  occ. eigenvalues --   -0.45934  -0.44809  -0.44151  -0.43098  -0.41978
 Alpha  occ. eigenvalues --   -0.39944  -0.39349  -0.34626  -0.33784  -0.32528
 Alpha  occ. eigenvalues --   -0.27628
 Alpha virt. eigenvalues --    0.01636   0.05246   0.06562   0.10017   0.11802
 Alpha virt. eigenvalues --    0.13241   0.14135   0.14436   0.15138   0.15560
 Alpha virt. eigenvalues --    0.16502   0.17629   0.18573   0.18962   0.19555

 Mulliken charges:
               1
     1  C   -0.174312
     2  C    0.325113
     3  O   -0.516129
     4  C   -0.016477
     5  C   -0.285041
     6  H    0.146097
     7  H    0.147504
     8  H    0.152966
     9  N   -0.387046
    10  H    0.273604
    11  H    0.274467
    12  C   -0.346168
    13  H    0.152062
    14  H    0.138116
    15  H    0.145109
    16  H    0.158144
    17  Cl  -0.171267
    18  C    0.166127
    19  C   -0.257471
    20  C   -0.137663
    21  C   -0.137038
    22  C   -0.144322
    23  C   -0.238856
    24  H    0.158335
    25  H    0.143872
    26  H    0.146057
    27  H    0.143492
    28  H    0.140725
 Sum of Mulliken charges =  -0.00000

 Dipole moment (field-independent basis, Debye):
    X=              5.9251    Y=             -0.1856    Z=              2.1244  Tot=              6.2972
 Quadrupole moment (field-independent basis, Debye-Ang):
   XX=            -57.2969   YY=            -92.3628   ZZ=            -91.3384
   XY=             -5.6950   XZ=              1.8235   YZ=            -10.1229

  Exact polarizability: 290.203  -8.571 213.580  -3.895 -12.216 157.021
 Approx polarizability: 205.410  -7.448 182.952  -4.846  -8.370 140.593

 ******    1 imaginary frequencies (negative Signs) ******

                      1                      2                      3
                      A                      A                      A
 Frequencies --   -342.3119                36.3900                38.4046
 Red. masses --      5.8715                 4.7910                 4.1503
 Frc consts  --      0.4054                 0.0037                 0.0036
 IR Inten    --    859.0474                 5.4582                 5.9036

                      4                      5                      6
                      A                      A                      A
 Frequencies --     48.0997                68.1362                97.6067
 Red. masses --      4.2035                 1.9445                 5.0257
 Frc consts  --      0.0057                 0.0053                 0.0282
 IR Inten    --      1.0437                15.1600                 1.2070

                      7                      8                      9
                      A                      A                      A
 Frequencies --    109.1958               161.9455               191.2456
 Red. masses --      4.5080                 1.2309                 4.1239
 Frc consts  --      0.0317                 0.0190                 0.0889
 IR Inten    --     21.2435                 0.5504                 7.0206

                     10                     11                     12
                      A                      A                      A
 Frequencies --    201.8636               214.5163               224.0138
 Red. masses --      2.9028                 3.0229                 1.8899
 Frc consts  --      0.0697                 0.0820                 0.0559
 IR Inten    --      9.2398                13.7453                 1.2284

                     13                     14                     15
                      A                      A                      A
 Frequencies --    238.7338               275.5054               344.3504
 Red. masses --      2.3703                 3.3291                 4.0120
 Frc consts  --      0.0796                 0.1489                 0.2803
 IR Inten    --      4.1072                 3.3609                 0.3988

                     16                     17                     18
                      A                      A                      A
 Frequencies --    390.8754               421.3567               448.9012
 Red. masses --      4.6154                 2.9084                 4.7424
 Frc consts  --      0.4155                 0.3042                 0.5631
 IR Inten    --     18.9487                 0.9453                16.3978

                     19                     20                     21
                      A                      A                      A
 Frequencies --    472.8387               547.7071               585.0807
 Red. masses --      5.7349                 3.7176                 2.1482
 Frc consts  --      0.7554                 0.6571                 0.4333
 IR Inten    --    125.3856                19.4691                29.6285

                     22                     23                     24
                      A                      A                      A
 Frequencies --    630.6392               634.7874               690.0214
 Red. masses --      1.9828                 6.3405                 5.9892
 Frc consts  --      0.4646                 1.5053                 1.6801
 IR Inten    --      9.5805                 0.2499                30.4891

                     25                     26                     27
                      A                      A                      A
 Frequencies --    725.5423               748.6357               821.6787
 Red. masses --      1.7022                 3.3012                 2.9700
 Frc consts  --      0.5279                 1.0901                 1.1814
 IR Inten    --     73.8618                91.3746                36.2502

                     28                     29                     30
                      A                      A                      A
 Frequencies --    876.0295               882.1690               951.9178
 Red. masses --      5.9190                 1.2530                 1.3776
 Frc consts  --      2.6763                 0.5745                 0.7355
 IR Inten    --     33.3087                 0.8786                65.5388

                     31                     32                     33
                      A                      A                      A
 Frequencies --    969.0848               991.2504              1003.1515
 Red. masses --      1.4469                 1.2076                 1.1220
 Frc consts  --      0.8006                 0.6991                 0.6653
 IR Inten    --     21.2424                83.2960                81.4792

                     34                     35                     36
                      A                      A                      A
 Frequencies --   1015.5508              1026.1927              1028.8754
 Red. masses --      1.3718                 5.8833                 1.3785
 Frc consts  --      0.8336                 3.6503                 0.8598
 IR Inten    --      1.0434                 1.1413                45.4882

                     37                     38                     39
                      A                      A                      A
 Frequencies --   1031.8553              1058.7836              1071.8404
 Red. masses --      1.3180                 2.2759                 3.1632
 Frc consts  --      0.8268                 1.5032                 2.1411
 IR Inten    --      3.8540                44.5640               199.3880

                     40                     41                     42
                      A                      A                      A
 Frequencies --   1111.5673              1124.4673              1152.6860
 Red. masses --      1.5536                 2.2609                 1.5306
 Frc consts  --      1.1310                 1.6843                 1.1982
 IR Inten    --     16.6745                57.4677                70.7398

                     43                     44                     45
                      A                      A                      A
 Frequencies --   1181.5096              1184.1191              1192.9466
 Red. masses --      2.2199                 1.3087                 1.4198
 Frc consts  --      1.8258                 1.0811                 1.1905
 IR Inten    --      7.9025                 1.9195                25.1247

                     46                     47                     48
                      A                      A                      A
 Frequencies --   1206.2447              1266.4255              1323.3907
 Red. masses --      1.1340                 1.4496                 4.1725
 Frc consts  --      0.9721                 1.3698                 4.3055
 IR Inten    --      4.5874               110.4253                55.0537

                     49                     50                     51
                      A                      A                      A
 Frequencies --   1346.3508              1353.6692              1363.1543
 Red. masses --      1.3383                 2.5229                 2.1129
 Frc consts  --      1.4293                 2.7238                 2.3132
 IR Inten    --      4.1424               216.3931               220.1862

                     52                     53                     54
                      A                      A                      A
 Frequencies --   1408.0168              1453.1956              1472.1665
 Red. masses --      1.2851                 1.4344                 1.2780
 Frc consts  --      1.5010                 1.7848                 1.6319
 IR Inten    --     75.8988               289.5663               150.7264

                     55                     56                     57
                      A                      A                      A
 Frequencies --   1480.9384              1488.9378              1492.8564
 Red. masses --      1.0917                 1.8348                 1.0949
 Frc consts  --      1.4107                 2.3966                 1.4377
 IR Inten    --     31.8518                28.3861                17.6925

                     58                     59                     60
                      A                      A                      A
 Frequencies --   1499.4904              1510.7529              1541.5618
 Red. masses --      1.6386                 1.1048                 2.3354
 Frc consts  --      2.1707                 1.4857                 3.2699
 IR Inten    --    442.6433                37.0024                 4.5281

                     61                     62                     63
                      A                      A                      A
 Frequencies --   1626.0854              1650.4416              1655.4378
 Red. masses --      8.2548                 1.1646                 4.8811
 Frc consts  --     12.8601                 1.8691                 7.8812
 IR Inten    --    305.2538                40.7881                49.4625

                     64                     65                     66
                      A                      A                      A
 Frequencies --   1674.2761              3054.7741              3064.9277
 Red. masses --      5.8586                 1.0360                 1.0393
 Frc consts  --      9.6760                 5.6959                 5.7523
 IR Inten    --      8.2194                77.0728                12.0946

                     67                     68                     69
                      A                      A                      A
 Frequencies --   3125.8456              3135.6223              3156.4933
 Red. masses --      1.1026                 1.0969                 1.1043
 Frc consts  --      6.3476                 6.3545                 6.4826
 IR Inten    --     26.1428                18.3857                23.4078

                     70                     71                     72
                      A                      A                      A
 Frequencies --   3163.4363              3192.6709              3194.3306
 Red. masses --      1.1028                 1.0906                 1.0858
 Frc consts  --      6.5026                 6.5495                 6.5274
 IR Inten    --     13.4895                 9.6547                 0.6020

                     73                     74                     75
                      A                      A                      A
 Frequencies --   3201.4129              3208.8166              3215.6365
 Red. masses --      1.0881                 1.0918                 1.0952
 Frc consts  --      6.5708                 6.6232                 6.6722
 IR Inten    --      1.3394                14.8932                35.5419

                     76                     77                     78
                      A                      A                      A
 Frequencies --   3222.8437              3529.0554              3617.2818
 Red. masses --      1.0988                 1.0511                 1.0962
 Frc consts  --      6.7244                 7.7130                 8.4512
 IR Inten    --     15.8618                14.0939                47.0485

 - Thermochemistry -
 -------------------
 Temperature   298.150 Kelvin.  Pressure   1.00000 Atm.
 Atom     1 has atomic number  6 and mass  12.00000

 Molecular mass:   211.07639 amu.
 Principal axes and moments of inertia in atomic units:
                           1         2         3
     Eigenvalues --  1485.370785414.504626281.57400
           X            0.99996  -0.00883  -0.00180
           Y            0.00871   0.99826  -0.05840
           Z            0.00231   0.05838   0.99829
 This molecule is an asymmetric top.
 Rotational symmetry number  1.
 Warning -- assumption of classical behavior for rotation
           may cause significant error
 Rotational temperatures (Kelvin)      0.05831     0.01600     0.01379
 Rotational constants (GHZ):           1.21501     0.33332     0.28731
    1 imaginary frequencies ignored.
 Zero-point vibrational energy     604823.6 (Joules/Mol)
                                  144.55631 (Kcal/Mol)
 Warning -- explicit consideration of  20 degrees of freedom as
           vibrations may cause significant error
 Vibrational temperatures:     52.36    55.26    69.20    98.03   140.43
          (Kelvin)            157.11   233.00   275.16   290.44   308.64
                              322.31   343.48   396.39   495.44   562.38
                              606.24   645.87   680.31   788.03   841.80
                              907.35   913.32   992.79  1043.89  1077.12
                             1182.21  1260.41  1269.24  1369.60  1394.30
                             1426.19  1443.31  1461.15  1476.46  1480.32
                             1484.61  1523.35  1542.14  1599.30  1617.86
                             1658.46  1699.93  1703.68  1716.38  1735.52
                             1822.10  1904.06  1937.10  1947.63  1961.27
                             2025.82  2090.82  2118.12  2130.74  2142.25
                             2147.89  2157.43  2173.64  2217.96  2339.57
                             2374.62  2381.81  2408.91  4395.14  4409.75
                             4497.39  4511.46  4541.49  4551.48  4593.54
                             4595.93  4606.12  4616.77  4626.58  4636.95
                             5077.52  5204.46

 Zero-point correction=                           0.230365 (Hartree/Particle)
 Thermal correction to Energy=                    0.245014
 Thermal correction to Enthalpy=                  0.245958
 Thermal correction to Gibbs Free Energy=         0.186887
 Sum of electronic and zero-point Energies=          -1017.544719
 Sum of electronic and thermal Energies=             -1017.530070
 Sum of electronic and thermal Enthalpies=           -1017.529126
 Sum of electronic and thermal Free Energies=        -1017.588197

                     E (Thermal)             CV                S
                      KCal/Mol        Cal/Mol-Kelvin    Cal/Mol-Kelvin
 Total                  153.749             52.627            124.326
 Electronic               0.000              0.000              0.000
 Translational            0.889              2.981             41.945
 Rotational               0.889              2.981             32.291
 Vibrational            151.971             46.666             50.090
 Vibration     1          0.594              1.982              5.447
 Vibration     2          0.594              1.982              5.340
 Vibration     3          0.595              1.978              4.894
 Vibration     4          0.598              1.969              4.206
 Vibration     5          0.603              1.951              3.502
 Vibration     6          0.606              1.942              3.283
 Vibration     7          0.622              1.889              2.527
 Vibration     8          0.634              1.852              2.216
 Vibration     9          0.639              1.837              2.116
 Vibration    10          0.644              1.819              2.005
 Vibration    11          0.649              1.804              1.926
 Vibration    12          0.657              1.781              1.812
 Vibration    13          0.677              1.719              1.561
 Vibration    14          0.723              1.587              1.192
 Vibration    15          0.759              1.490              0.997
 Vibration    16          0.784              1.424              0.887
 Vibration    17          0.808              1.363              0.799
 Vibration    18          0.830              1.310              0.730
 Vibration    19          0.903              1.145              0.549
 Vibration    20          0.942              1.064              0.476

 Optimization completed.
    -- Stationary point found.
 Normal termination of Gaussian 16 at Fri Mar 26 12:27:08 2021.
