 Gaussian 16, Revision A.03,
 Gaussian 16:  ES64L-G16RevA.03 25-Dec-2016

 ----------------------------------------------------------------------
 # wB97XD def2tzvp, opt=(ts, noeigen, calcfc, maxcycles=70, maxstep=8),
  freq=noraman, scrf=(iefpcm, solvent=water)
 ----------------------------------------------------------------------

 ------------------------
 1_iteration/TS-485-1.out
 ------------------------
 Symbolic Z-matrix:
 Charge =  0 Multiplicity = 1

 SCF Done:  E(RwB97XD) =  -692.168125668     A.U. after   14 cycles
 SCF Done:  E(RwB97XD) =  -692.168218994     A.U. after   12 cycles
 SCF Done:  E(RwB97XD) =  -692.168268507     A.U. after   12 cycles
 SCF Done:  E(RwB97XD) =  -692.168179228     A.U. after   12 cycles
 SCF Done:  E(RwB97XD) =  -692.168284364     A.U. after   12 cycles
 SCF Done:  E(RwB97XD) =  -692.168286600     A.U. after   10 cycles
 SCF Done:  E(RwB97XD) =  -692.168286728     A.U. after    8 cycles
 Optimization completed on the basis of negligible forces.
    -- Stationary point found.
 Normal termination of Gaussian 16 at Sun Feb 14 06:41:33 2021.

 ---------------------------------------------------------------------
 #N Geom=AllCheck Guess=TCheck SCRF=Check GenChk RwB97XD/def2TZVP Freq
 ---------------------------------------------------------------------

 Structure from the checkpoint file:  "/beegfs/scratch/user/q/tla25/Gau-20926.chk"
 ------------------------
 1_iteration/TS-485-1.out
 ------------------------
 Charge =  0 Multiplicity = 1

                         Standard orientation:
 ---------------------------------------------------------------------
 Center     Atomic      Atomic             Coordinates (Angstroms)
 Number     Number       Type             X           Y           Z
 ---------------------------------------------------------------------
      1          6           0       -0.264835    0.121944   -0.426714
      2          6           0       -0.646941    1.499714   -0.290617
      3          8           0       -1.822116    1.887678   -0.082779
      4          6           0       -1.273800   -0.874174   -0.560607
      5          6           0       -3.440553   -1.502946    1.395389
      6          1           0       -3.798895   -1.281789    2.402653
      7          1           0       -4.219353   -1.236675    0.683868
      8          1           0       -3.244243   -2.571626    1.320686
      9          7           0       -2.225205   -0.756197    1.083232
     10          1           0       -2.385810    0.250549    1.029868
     11          1           0       -1.495495   -0.923891    1.765094
     12          6           0       -0.843961   -2.323003   -0.538800
     13          1           0       -0.362676   -2.574152   -1.485393
     14          1           0       -0.135108   -2.531043    0.261606
     15          1           0       -1.709538   -2.976291   -0.428600
     16          6           0       -2.421163   -0.652110   -1.523562
     17          1           0       -2.036758   -0.820043   -2.532388
     18          1           0       -3.229337   -1.366448   -1.360831
     19          1           0       -2.808530    0.360144   -1.461769
     20          6           0        1.143488   -0.263283   -0.132221
     21          6           0        1.949447   -0.879913   -1.093089
     22          6           0        3.258240   -1.249057   -0.816922
     23          6           0        3.807100   -0.992245    0.431416
     24          6           0        3.031995   -0.366844    1.398631
     25          6           0        1.720126   -0.014564    1.118691
     26          1           0        1.536593   -1.068694   -2.077126
     27          1           0        3.854893   -1.729183   -1.583222
     28          1           0        4.830138   -1.273467    0.647918
     29          1           0        3.447652   -0.161365    2.377758
     30          1           0        1.120427    0.465653    1.884058
     31          7           0        0.339792    2.448949   -0.377370
     32          6           0        0.128211    3.805261    0.066392
     33          1           0        1.288275    2.123318   -0.423528
     34          1           0       -0.687525    4.272106   -0.485444
     35          1           0       -0.111235    3.863135    1.133595
     36          1           0        1.037220    4.376392   -0.115528
 ---------------------------------------------------------------------

 SCF Done:  E(RwB97XD) =  -692.168286728     A.U. after    1 cycles

 The electronic state is 1-A.
 Alpha  occ. eigenvalues --  -19.18783 -14.46836 -14.43145 -10.35929 -10.34174
 Alpha  occ. eigenvalues --  -10.31313 -10.30040 -10.29143 -10.28502 -10.28477
 Alpha  occ. eigenvalues --  -10.28367 -10.28107 -10.27999 -10.27434 -10.26660
 Alpha  occ. eigenvalues --  -10.23973  -1.11011  -1.02671  -0.99821  -0.96020
 Alpha  occ. eigenvalues --   -0.91245  -0.85697  -0.84362  -0.80853  -0.78906
 Alpha  occ. eigenvalues --   -0.78675  -0.76025  -0.69626  -0.68744  -0.66405
 Alpha  occ. eigenvalues --   -0.63363  -0.62011  -0.60832  -0.57998  -0.55713
 Alpha  occ. eigenvalues --   -0.55446  -0.54798  -0.53510  -0.52751  -0.52514
 Alpha  occ. eigenvalues --   -0.51426  -0.50745  -0.50198  -0.49276  -0.47494
 Alpha  occ. eigenvalues --   -0.47138  -0.46721  -0.46271  -0.45585  -0.45027
 Alpha  occ. eigenvalues --   -0.44247  -0.43270  -0.42016  -0.41364  -0.39536
 Alpha  occ. eigenvalues --   -0.34266  -0.33418  -0.32293  -0.31717  -0.24732
 Alpha virt. eigenvalues --    0.05302   0.05690   0.07749   0.09934   0.12549
 Alpha virt. eigenvalues --    0.13192   0.13779   0.14045   0.15062   0.16074
 Alpha virt. eigenvalues --    0.16583   0.16905   0.17530   0.18345   0.18634

 Mulliken charges:
               1
     1  C   -0.230198
     2  C    0.365281
     3  O   -0.616766
     4  C    0.127262
     5  C   -0.298296
     6  H    0.150252
     7  H    0.154487
     8  H    0.147656
     9  N   -0.307854
    10  H    0.267678
    11  H    0.269071
    12  C   -0.367584
    13  H    0.143655
    14  H    0.145989
    15  H    0.138306
    16  C   -0.401522
    17  H    0.131393
    18  H    0.126487
    19  H    0.152351
    20  C    0.099690
    21  C   -0.239764
    22  C   -0.162101
    23  C   -0.144363
    24  C   -0.137558
    25  C   -0.259605
    26  H    0.145586
    27  H    0.135451
    28  H    0.140185
    29  H    0.137114
    30  H    0.135624
    31  N   -0.319502
    32  C   -0.250255
    33  H    0.251064
    34  H    0.122371
    35  H    0.113657
    36  H    0.134758
 Sum of Mulliken charges =  -0.00000

 Dipole moment (field-independent basis, Debye):
    X=             -0.4161    Y=             -4.5287    Z=              3.1455  Tot=              5.5296
 Quadrupole moment (field-independent basis, Debye-Ang):
   XX=            -89.5343   YY=            -97.6897   ZZ=            -91.1947
   XY=             14.1917   XZ=             -5.4853   YZ=              1.5700

  Exact polarizability: 283.214  -1.416 235.564  -5.011  10.874 222.658
 Approx polarizability: 216.354  -5.587 182.460  -3.731  10.089 189.499

 ******    1 imaginary frequencies (negative Signs) ******

                      1                      2                      3
                      A                      A                      A
 Frequencies --   -380.5982                41.5318                47.1989
 Red. masses --      5.8736                 3.6032                 3.5826
 Frc consts  --      0.5013                 0.0037                 0.0047
 IR Inten    --    804.7625                 4.1894                 2.5260

                      4                      5                      6
                      A                      A                      A
 Frequencies --     62.6908                67.4527                84.4346
 Red. masses --      3.0236                 2.3015                 2.3812
 Frc consts  --      0.0070                 0.0062                 0.0100
 IR Inten    --     11.9420                 1.2010                 3.6611

                      7                      8                      9
                      A                      A                      A
 Frequencies --     91.0367               128.8665               136.3091
 Red. masses --      1.6016                 2.3508                 2.2758
 Frc consts  --      0.0078                 0.0230                 0.0249
 IR Inten    --      1.2397                36.7311                 6.9795

                     10                     11                     12
                      A                      A                      A
 Frequencies --    177.5434               179.2457               204.5100
 Red. masses --      3.9020                 1.1541                 2.9100
 Frc consts  --      0.0725                 0.0218                 0.0717
 IR Inten    --     10.8294                 0.5354                 4.9258

                     13                     14                     15
                      A                      A                      A
 Frequencies --    256.3519               262.8184               284.7456
 Red. masses --      1.6096                 3.3709                 1.1217
 Frc consts  --      0.0623                 0.1372                 0.0536
 IR Inten    --     23.2103                 0.2447                 6.5121

                     16                     17                     18
                      A                      A                      A
 Frequencies --    294.7680               300.7156               318.2968
 Red. masses --      1.9283                 3.4828                 3.1618
 Frc consts  --      0.0987                 0.1856                 0.1887
 IR Inten    --      0.4389                65.3934                25.7397

                     19                     20                     21
                      A                      A                      A
 Frequencies --    348.9168               382.7048               406.1187
 Red. masses --      3.0362                 2.5597                 3.5541
 Frc consts  --      0.2178                 0.2209                 0.3454
 IR Inten    --      9.5587                 5.4491                36.0655

                     22                     23                     24
                      A                      A                      A
 Frequencies --    415.1127               427.5178               455.5249
 Red. masses --      4.1933                 2.8726                 1.2913
 Frc consts  --      0.4257                 0.3093                 0.1579
 IR Inten    --      6.0439                 0.9056                73.4017

                     25                     26                     27
                      A                      A                      A
 Frequencies --    509.8515               542.0241               584.9095
 Red. masses --      3.5059                 3.6364                 3.3153
 Frc consts  --      0.5370                 0.6294                 0.6683
 IR Inten    --     25.6731                79.9511                35.5582

                     28                     29                     30
                      A                      A                      A
 Frequencies --    638.2464               682.2995               708.0627
 Red. masses --      6.2393                 5.0772                 1.2761
 Frc consts  --      1.4975                 1.3926                 0.3769
 IR Inten    --      2.0670                29.8616                19.3589

                     31                     32                     33
                      A                      A                      A
 Frequencies --    729.8251               770.0855               792.4456
 Red. masses --      1.5386                 2.9469                 7.2676
 Frc consts  --      0.4829                 1.0296                 2.6889
 IR Inten    --     91.9273                 7.8501                77.4030

                     34                     35                     36
                      A                      A                      A
 Frequencies --    815.3920               879.6408               897.8373
 Red. masses --      2.9540                 1.2491                 2.9021
 Frc consts  --      1.1571                 0.5695                 1.3784
 IR Inten    --     33.3671                 1.9255                15.4446

                     37                     38                     39
                      A                      A                      A
 Frequencies --    950.9117               957.6195               987.9365
 Red. masses --      1.3906                 1.4932                 2.8635
 Frc consts  --      0.7409                 0.8068                 1.6467
 IR Inten    --      0.3598                 4.4902                13.6950

                     40                     41                     42
                      A                      A                      A
 Frequencies --   1012.9966              1017.3409              1024.1006
 Red. masses --      1.3806                 1.3173                 2.8088
 Frc consts  --      0.8347                 0.8033                 1.7356
 IR Inten    --      0.7905                14.6074                 0.6381

                     43                     44                     45
                      A                      A                      A
 Frequencies --   1025.0725              1044.6566              1046.6728
 Red. masses --      1.7108                 1.2429                 2.3297
 Frc consts  --      1.0591                 0.7991                 1.5037
 IR Inten    --      0.0765                30.4441                19.2791

                     46                     47                     48
                      A                      A                      A
 Frequencies --   1057.0365              1068.9504              1078.5938
 Red. masses --      2.7361                 1.7766                 1.1930
 Frc consts  --      1.8012                 1.1960                 0.8177
 IR Inten    --    141.8602                48.2260               201.0265

                     49                     50                     51
                      A                      A                      A
 Frequencies --   1105.5635              1118.1818              1148.7626
 Red. masses --      1.5568                 2.0146                 1.3392
 Frc consts  --      1.1211                 1.4841                 1.0413
 IR Inten    --     17.0223                14.0769                 4.5756

                     52                     53                     54
                      A                      A                      A
 Frequencies --   1168.7531              1179.5253              1192.7131
 Red. masses --      1.6648                 1.1308                 2.7930
 Frc consts  --      1.3398                 0.9269                 2.3410
 IR Inten    --     78.5724                 0.6431                 5.2516

                     55                     56                     57
                      A                      A                      A
 Frequencies --   1204.7034              1223.4404              1240.9861
 Red. masses --      1.1220                 1.3758                 3.2709
 Frc consts  --      0.9594                 1.2133                 2.9679
 IR Inten    --      0.4801                68.5721                 7.3711

                     58                     59                     60
                      A                      A                      A
 Frequencies --   1291.0810              1299.8366              1339.8129
 Red. masses --      2.6128                 4.2556                 3.0364
 Frc consts  --      2.5660                 4.2363                 3.2114
 IR Inten    --    172.1128                45.1194               328.8160

                     61                     62                     63
                      A                      A                      A
 Frequencies --   1354.7298              1356.5935              1392.7394
 Red. masses --      1.3758                 1.5692                 1.7868
 Frc consts  --      1.4877                 1.7015                 2.0420
 IR Inten    --     10.2332                31.9204               229.2177

                     64                     65                     66
                      A                      A                      A
 Frequencies --   1407.9468              1423.4370              1451.4419
 Red. masses --      1.5835                 1.4342                 1.2597
 Frc consts  --      1.8494                 1.7122                 1.5636
 IR Inten    --     89.6344               179.0383                47.8540

                     67                     68                     69
                      A                      A                      A
 Frequencies --   1463.9983              1474.9569              1478.6498
 Red. masses --      1.2309                 1.0664                 1.0810
 Frc consts  --      1.5544                 1.3668                 1.3925
 IR Inten    --     27.4844                41.0020                30.8806

                     70                     71                     72
                      A                      A                      A
 Frequencies --   1479.4383              1484.5695              1493.0586
 Red. masses --      1.0533                 2.1285                 1.0521
 Frc consts  --      1.3583                 2.7640                 1.3819
 IR Inten    --      3.0900                 2.3111                16.4151

                     73                     74                     75
                      A                      A                      A
 Frequencies --   1501.7132              1506.0398              1509.6082
 Red. masses --      1.0524                 1.1219                 1.1773
 Frc consts  --      1.3984                 1.4992                 1.5808
 IR Inten    --     23.0611                18.3539                82.5864

                     76                     77                     78
                      A                      A                      A
 Frequencies --   1512.9011              1536.4179              1538.1161
 Red. masses --      1.0330                 1.8231                 2.3334
 Frc consts  --      1.3931                 2.5355                 3.2524
 IR Inten    --      8.2746               506.8809                38.4116

                     79                     80                     81
                      A                      A                      A
 Frequencies --   1606.6803              1638.6693              1659.4729
 Red. masses --      4.6490                 5.6261                 1.1025
 Frc consts  --      7.0708                 8.9010                 1.7889
 IR Inten    --    714.5656                 8.1186                46.4739

                     82                     83                     84
                      A                      A                      A
 Frequencies --   1667.1529              3025.6713              3059.0925
 Red. masses --      5.4768                 1.0480                 1.0392
 Frc consts  --      8.9686                 5.6526                 5.7299
 IR Inten    --     12.1297               116.1642                32.3539

                     85                     86                     87
                      A                      A                      A
 Frequencies --   3060.6183              3065.8165              3104.0727
 Red. masses --      1.0378                 1.0368                 1.0884
 Frc consts  --      5.7275                 5.7414                 6.1787
 IR Inten    --     64.7677                35.7586                52.9609

                     88                     89                     90
                      A                      A                      A
 Frequencies --   3121.0726              3134.5252              3136.8028
 Red. masses --      1.1000                 1.1009                 1.1004
 Frc consts  --      6.3134                 6.3729                 6.3794
 IR Inten    --     36.2382                23.4291                35.4387

                     91                     92                     93
                      A                      A                      A
 Frequencies --   3149.7239              3151.0399              3165.9554
 Red. masses --      1.1030                 1.1036                 1.1047
 Frc consts  --      6.4472                 6.4561                 6.5241
 IR Inten    --     28.4395                39.8471                19.8543

                     94                     95                     96
                      A                      A                      A
 Frequencies --   3181.3807              3185.8439              3190.1702
 Red. masses --      1.0869                 1.0871                 1.0988
 Frc consts  --      6.4815                 6.5011                 6.5886
 IR Inten    --     13.2875                 4.9385                 4.7172

                     97                     98                     99
                      A                      A                      A
 Frequencies --   3196.7039              3203.2802              3216.3834
 Red. masses --      1.0909                 1.0948                 1.0986
 Frc consts  --      6.5679                 6.6187                 6.6961
 IR Inten    --     10.6448                55.6041                23.8355

                    100                    101                    102
                      A                      A                      A
 Frequencies --   3423.3395              3581.6166              3672.9318
 Red. masses --      1.0642                 1.0856                 1.0770
 Frc consts  --      7.3478                 8.2052                 8.5601
 IR Inten    --    129.7678                46.4330                53.9656

 - Thermochemistry -
 -------------------
 Temperature   298.150 Kelvin.  Pressure   1.00000 Atm.
 Atom     1 has atomic number  6 and mass  12.00000

 Molecular mass:   220.15756 amu.
 Principal axes and moments of inertia in atomic units:
                           1         2         3
     Eigenvalues --  2796.691264287.942835749.13906
           X            0.99883   0.04821  -0.00318
           Y           -0.04817   0.99878   0.01109
           Z            0.00371  -0.01093   0.99993
 This molecule is an asymmetric top.
 Rotational symmetry number  1.
 Warning -- assumption of classical behavior for rotation
           may cause significant error
 Rotational temperatures (Kelvin)      0.03097     0.02020     0.01507
 Rotational constants (GHZ):           0.64531     0.42089     0.31392
    1 imaginary frequencies ignored.
 Zero-point vibrational energy     823477.3 (Joules/Mol)
                                  196.81580 (Kcal/Mol)
 Warning -- explicit consideration of  26 degrees of freedom as
           vibrations may cause significant error
 Vibrational temperatures:     59.76    67.91    90.20    97.05   121.48
          (Kelvin)            130.98   185.41   196.12   255.45   257.89
                              294.24   368.83   378.14   409.69   424.11
                              432.66   457.96   502.01   550.63   584.31
                              597.25   615.10   655.40   733.56   779.85
                              841.55   918.29   981.68  1018.74  1050.06
                             1107.98  1140.15  1173.17  1265.61  1291.79
                             1368.15  1377.80  1421.42  1457.48  1463.73
                             1473.45  1474.85  1503.03  1505.93  1520.84
                             1537.98  1551.86  1590.66  1608.81  1652.81
                             1681.58  1697.07  1716.05  1733.30  1760.26
                             1785.50  1857.58  1870.17  1927.69  1949.15
                             1951.84  2003.84  2025.72  2048.01  2088.30
                             2106.37  2122.13  2127.45  2128.58  2135.96
                             2148.18  2160.63  2166.86  2171.99  2176.73
                             2210.56  2213.01  2311.65  2357.68  2387.61
                             2398.66  4353.27  4401.35  4403.55  4411.03
                             4466.07  4490.53  4509.88  4513.16  4531.75
                             4533.64  4555.10  4577.30  4583.72  4589.94
                             4599.34  4608.81  4627.66  4925.42  5153.15
                             5284.53

 Zero-point correction=                           0.313646 (Hartree/Particle)
 Thermal correction to Energy=                    0.330981
 Thermal correction to Enthalpy=                  0.331925
 Thermal correction to Gibbs Free Energy=         0.268345
 Sum of electronic and zero-point Energies=           -691.854641
 Sum of electronic and thermal Energies=              -691.837306
 Sum of electronic and thermal Enthalpies=            -691.836362
 Sum of electronic and thermal Free Energies=         -691.899942

                     E (Thermal)             CV                S
                      KCal/Mol        Cal/Mol-Kelvin    Cal/Mol-Kelvin
 Total                  207.694             64.422            133.816
 Electronic               0.000              0.000              0.000
 Translational            0.889              2.981             42.070
 Rotational               0.889              2.981             32.600
 Vibrational            205.916             58.460             59.146
 Vibration     1          0.594              1.981              5.185
 Vibration     2          0.595              1.979              4.931
 Vibration     3          0.597              1.972              4.371
 Vibration     4          0.598              1.970              4.226
 Vibration     5          0.601              1.960              3.785
 Vibration     6          0.602              1.956              3.638
 Vibration     7          0.611              1.924              2.963
 Vibration     8          0.614              1.917              2.855
 Vibration     9          0.628              1.870              2.354
 Vibration    10          0.629              1.868              2.336
 Vibration    11          0.640              1.833              2.092
 Vibration    12          0.666              1.752              1.686
 Vibration    13          0.670              1.741              1.643
 Vibration    14          0.683              1.702              1.505
 Vibration    15          0.689              1.683              1.446
 Vibration    16          0.693              1.672              1.413
 Vibration    17          0.705              1.639              1.319
 Vibration    18          0.726              1.577              1.171
 Vibration    19          0.752              1.507              1.028
 Vibration    20          0.771              1.457              0.940
 Vibration    21          0.779              1.437              0.909
 Vibration    22          0.789              1.410              0.867
 Vibration    23          0.814              1.349              0.779
 Vibration    24          0.865              1.228              0.634
 Vibration    25          0.897              1.157              0.561
 Vibration    26          0.942              1.064              0.476

 Optimization completed on the basis of negligible forces.
    -- Stationary point found.
 Normal termination of Gaussian 16 at Sun Feb 14 08:11:05 2021.
