 Gaussian 16, Revision A.03,
 Gaussian 16:  ES64L-G16RevA.03 25-Dec-2016

 ----------------------------------------------------------------------
 # wB97XD def2tzvp, opt=(ts, noeigen, calcfc, maxcycles=70, maxstep=5),
  freq=noraman, scrf=(iefpcm, solvent=water)
 ----------------------------------------------------------------------

 ------------------------
 2_iteration/TS-486-2.out
 ------------------------
 Symbolic Z-matrix:
 Charge =  0 Multiplicity = 1

 SCF Done:  E(RwB97XD) =  -731.455211431     A.U. after   15 cycles
 SCF Done:  E(RwB97XD) =  -731.455234840     A.U. after   11 cycles
 SCF Done:  E(RwB97XD) =  -731.455231781     A.U. after   11 cycles
 SCF Done:  E(RwB97XD) =  -731.455226038     A.U. after   11 cycles
 SCF Done:  E(RwB97XD) =  -731.455240472     A.U. after   11 cycles
 SCF Done:  E(RwB97XD) =  -731.455236980     A.U. after   10 cycles
 SCF Done:  E(RwB97XD) =  -731.455238132     A.U. after   10 cycles
 Optimization completed on the basis of negligible forces.
    -- Stationary point found.
 Normal termination of Gaussian 16 at Tue Mar 30 11:51:26 2021.

 ---------------------------------------------------------------------
 #N Geom=AllCheck Guess=TCheck SCRF=Check GenChk RwB97XD/def2TZVP Freq
 ---------------------------------------------------------------------

 Structure from the checkpoint file:  "/beegfs/scratch/user/q/tla25/Gau-118482.chk"
 ------------------------
 2_iteration/TS-486-2.out
 ------------------------
 Charge =  0 Multiplicity = 1

                         Standard orientation:
 ---------------------------------------------------------------------
 Center     Atomic      Atomic             Coordinates (Angstroms)
 Number     Number       Type             X           Y           Z
 ---------------------------------------------------------------------
      1          6           0       -0.091132   -0.164294    0.277244
      2          6           0       -0.823457   -1.269538   -0.238611
      3          8           0       -0.294555   -2.201682   -0.867291
      4          6           0       -0.619712    1.124281    0.637697
      5          6           0       -1.622934    3.255328   -1.131606
      6          1           0       -1.804544    3.505380   -2.177375
      7          1           0       -2.561190    3.317682   -0.585539
      8          1           0       -0.916762    3.970139   -0.714761
      9          7           0       -1.075163    1.902282   -1.000953
     10          1           0       -1.722297    1.206207   -1.356952
     11          1           0       -0.215407    1.806177   -1.529404
     12          6           0        0.390707    2.134825    1.148477
     13          1           0        0.741181    1.812127    2.130325
     14          1           0        1.261099    2.221948    0.500888
     15          1           0       -0.066123    3.116784    1.266108
     16          6           0       -1.939351    1.299381    1.358250
     17          1           0       -1.835072    0.903162    2.369395
     18          1           0       -2.187677    2.356767    1.449909
     19          1           0       -2.752216    0.775024    0.866636
     20          6           0        1.392859   -0.275580    0.100663
     21          6           0        2.006743   -0.077300   -1.137651
     22          6           0        3.384206   -0.147676   -1.283985
     23          6           0        4.187719   -0.429018   -0.186832
     24          6           0        3.597702   -0.643594    1.050065
     25          6           0        2.217604   -0.568085    1.185727
     26          1           0        1.390792    0.124078   -2.007223
     27          1           0        3.832373    0.015097   -2.256860
     28          1           0        5.263663   -0.483964   -0.296986
     29          1           0        4.212867   -0.869439    1.912867
     30          1           0        1.763610   -0.731516    2.156592
     31          7           0       -2.246619   -1.301143   -0.054660
     32          6           0       -2.640836   -1.756370    1.272069
     33          6           0       -2.955361   -2.039054   -1.084195
     34          1           0       -2.014111   -1.297959    2.032588
     35          1           0       -3.680574   -1.485452    1.469447
     36          1           0       -2.547676   -2.848592    1.364777
     37          1           0       -2.663256   -1.680544   -2.070733
     38          1           0       -2.772186   -3.120378   -1.043127
     39          1           0       -4.026124   -1.867081   -0.956824
 ---------------------------------------------------------------------

 SCF Done:  E(RwB97XD) =  -731.455238132     A.U. after    1 cycles

 The electronic state is 1-A.
 Alpha  occ. eigenvalues --  -19.18710 -14.48780 -14.42517 -10.35486 -10.35163
 Alpha  occ. eigenvalues --  -10.31938 -10.29754 -10.29153 -10.28716 -10.28336
 Alpha  occ. eigenvalues --  -10.28309 -10.28207 -10.27915 -10.27745 -10.27621
 Alpha  occ. eigenvalues --  -10.27176 -10.24534  -1.10871  -1.04346  -1.00367
 Alpha  occ. eigenvalues --   -0.95878  -0.91576  -0.85456  -0.84170  -0.80823
 Alpha  occ. eigenvalues --   -0.79990  -0.79034  -0.78722  -0.74111  -0.69436
 Alpha  occ. eigenvalues --   -0.68322  -0.65834  -0.63276  -0.61577  -0.59064
 Alpha  occ. eigenvalues --   -0.58841  -0.56372  -0.55387  -0.55125  -0.54099
 Alpha  occ. eigenvalues --   -0.53284  -0.52878  -0.51054  -0.50742  -0.50051
 Alpha  occ. eigenvalues --   -0.49681  -0.48652  -0.47729  -0.47460  -0.47206
 Alpha  occ. eigenvalues --   -0.46090  -0.45380  -0.45312  -0.44371  -0.43529
 Alpha  occ. eigenvalues --   -0.43102  -0.41880  -0.40912  -0.40251  -0.33384
 Alpha  occ. eigenvalues --   -0.32878  -0.32319  -0.29710  -0.25777
 Alpha virt. eigenvalues --    0.05784   0.06098   0.07136   0.09166   0.12424
 Alpha virt. eigenvalues --    0.12757   0.12858   0.13821   0.15058   0.15726
 Alpha virt. eigenvalues --    0.15838   0.16534   0.17356   0.18105   0.18250

 Mulliken charges:
               1
     1  C   -0.262885
     2  C    0.225353
     3  O   -0.528016
     4  C    0.067646
     5  C   -0.305374
     6  H    0.159038
     7  H    0.161341
     8  H    0.158204
     9  N   -0.282081
    10  H    0.280364
    11  H    0.269672
    12  C   -0.370313
    13  H    0.147407
    14  H    0.153012
    15  H    0.141019
    16  C   -0.404330
    17  H    0.144968
    18  H    0.141369
    19  H    0.157478
    20  C    0.291653
    21  C   -0.286737
    22  C   -0.162560
    23  C   -0.141849
    24  C   -0.164057
    25  C   -0.255744
    26  H    0.137410
    27  H    0.134912
    28  H    0.138765
    29  H    0.134226
    30  H    0.135559
    31  N   -0.192136
    32  C   -0.303053
    33  C   -0.271042
    34  H    0.142120
    35  H    0.139171
    36  H    0.114376
    37  H    0.127085
    38  H    0.101735
    39  H    0.126293
 Sum of Mulliken charges =  -0.00000

 Dipole moment (field-independent basis, Debye):
    X=             -4.2456    Y=             10.1085    Z=             -0.2221  Tot=             10.9661
 Quadrupole moment (field-independent basis, Debye-Ang):
   XX=            -95.0288   YY=           -105.4946   ZZ=            -96.2218
   XY=             -4.0643   XZ=              2.1679   YZ=            -11.6157

  Exact polarizability: 278.462  -5.977 254.609   0.334  -5.431 246.298
 Approx polarizability: 215.287  -6.555 198.107   0.068  -3.639 209.819

 ******    1 imaginary frequencies (negative Signs) ******

                      1                      2                      3
                      A                      A                      A
 Frequencies --   -349.2412                21.6418                43.1941
 Red. masses --      5.9547                 3.3910                 2.8645
 Frc consts  --      0.4279                 0.0009                 0.0031
 IR Inten    --    792.8361                 4.1761                 0.3882

                      4                      5                      6
                      A                      A                      A
 Frequencies --     52.9116                55.2492                72.8144
 Red. masses --      2.4412                 3.5305                 4.0750
 Frc consts  --      0.0040                 0.0063                 0.0127
 IR Inten    --      5.6002                 1.8603                 1.4198

                      7                      8                      9
                      A                      A                      A
 Frequencies --     94.0790               111.8573               154.0915
 Red. masses --      4.1466                 2.7874                 2.1308
 Frc consts  --      0.0216                 0.0205                 0.0298
 IR Inten    --      9.9648                 3.4263                 2.8621

                     10                     11                     12
                      A                      A                      A
 Frequencies --    195.9286               209.3124               240.4159
 Red. masses --      1.2135                 3.0870                 2.9603
 Frc consts  --      0.0274                 0.0797                 0.1008
 IR Inten    --      1.1974                 9.2208                 0.0941

                     13                     14                     15
                      A                      A                      A
 Frequencies --    241.6971               246.2411               272.1794
 Red. masses --      1.9755                 1.2381                 2.0263
 Frc consts  --      0.0680                 0.0442                 0.0884
 IR Inten    --      1.1858                 2.4919                12.6706

                     16                     17                     18
                      A                      A                      A
 Frequencies --    289.1912               294.1800               313.9988
 Red. masses --      1.4333                 2.3765                 2.3983
 Frc consts  --      0.0706                 0.1212                 0.1393
 IR Inten    --      1.0244                 8.9784                42.6791

                     19                     20                     21
                      A                      A                      A
 Frequencies --    318.6212               349.3056               363.7621
 Red. masses --      1.3814                 1.6132                 3.4573
 Frc consts  --      0.0826                 0.1160                 0.2695
 IR Inten    --      0.4441                25.1616                26.8831

                     22                     23                     24
                      A                      A                      A
 Frequencies --    380.1373               404.7183               423.0595
 Red. masses --      2.7618                 2.2954                 2.8918
 Frc consts  --      0.2351                 0.2215                 0.3049
 IR Inten    --      5.4763                 6.8988                 3.2784

                     25                     26                     27
                      A                      A                      A
 Frequencies --    426.9579               458.7031               530.8383
 Red. masses --      2.9115                 2.6688                 3.4648
 Frc consts  --      0.3127                 0.3309                 0.5752
 IR Inten    --      0.9544                 5.1406                16.9041

                     28                     29                     30
                      A                      A                      A
 Frequencies --    581.4150               595.3564               642.4144
 Red. masses --      4.5732                 3.6792                 6.4102
 Frc consts  --      0.9108                 0.7684                 1.5587
 IR Inten    --     57.9212                80.6829                 4.4355

                     31                     32                     33
                      A                      A                      A
 Frequencies --    661.3150               700.3397               707.4038
 Red. masses --      4.8791                 1.4648                 3.5140
 Frc consts  --      1.2572                 0.4233                 1.0361
 IR Inten    --     29.9609                14.4668                 6.0397

                     34                     35                     36
                      A                      A                      A
 Frequencies --    730.7489               787.9481               830.1597
 Red. masses --      1.5228                 2.4000                 7.8892
 Frc consts  --      0.4791                 0.8779                 3.2034
 IR Inten    --     91.1617                13.9296                38.1225

                     37                     38                     39
                      A                      A                      A
 Frequencies --    878.8105               880.4122               911.1872
 Red. masses --      2.7094                 1.5289                 2.5178
 Frc consts  --      1.2329                 0.6982                 1.2317
 IR Inten    --     11.2893                 7.5734                36.5501

                     40                     41                     42
                      A                      A                      A
 Frequencies --    950.1583               961.2919              1000.6249
 Red. masses --      1.4009                 1.5275                 2.4677
 Frc consts  --      0.7452                 0.8316                 1.4558
 IR Inten    --      0.3963                 8.2330               125.1076

                     43                     44                     45
                      A                      A                      A
 Frequencies --   1010.3064              1016.7575              1023.3942
 Red. masses --      1.3842                 1.2204                 1.3405
 Frc consts  --      0.8325                 0.7433                 0.8272
 IR Inten    --      0.6567                11.5794                 0.1468

                     46                     47                     48
                      A                      A                      A
 Frequencies --   1026.4491              1047.2622              1048.9432
 Red. masses --      5.1463                 1.4730                 2.0283
 Frc consts  --      3.1946                 0.9519                 1.3149
 IR Inten    --      1.1400                28.5110                46.3086

                     49                     50                     51
                      A                      A                      A
 Frequencies --   1061.1455              1068.9780              1079.7969
 Red. masses --      2.0070                 1.2713                 1.4596
 Frc consts  --      1.3315                 0.8559                 1.0027
 IR Inten    --     43.7702               242.5389                24.0905

                     52                     53                     54
                      A                      A                      A
 Frequencies --   1094.5079              1105.5210              1122.5508
 Red. masses --      1.9153                 1.5596                 1.2981
 Frc consts  --      1.3518                 1.1230                 0.9638
 IR Inten    --     49.4441                22.1283                 4.4632

                     55                     56                     57
                      A                      A                      A
 Frequencies --   1124.9797              1179.4676              1183.1741
 Red. masses --      1.8445                 1.1317                 1.4729
 Frc consts  --      1.3753                 0.9276                 1.2149
 IR Inten    --     29.6662                 0.0427                21.5011

                     58                     59                     60
                      A                      A                      A
 Frequencies --   1203.9034              1211.7636              1236.1581
 Red. masses --      1.1242                 3.2365                 3.2943
 Frc consts  --      0.9600                 2.8001                 2.9659
 IR Inten    --      0.1412                51.7931                11.8128

                     61                     62                     63
                      A                      A                      A
 Frequencies --   1247.2695              1252.1784              1303.4419
 Red. masses --      2.3091                 1.8203                 4.3489
 Frc consts  --      2.1165                 1.6816                 4.3533
 IR Inten    --      1.5560                85.2928                 1.1203

                     64                     65                     66
                      A                      A                      A
 Frequencies --   1314.3019              1349.8233              1356.2485
 Red. masses --      2.7025                 1.4322                 1.3799
 Frc consts  --      2.7505                 1.5375                 1.4955
 IR Inten    --     30.2799                27.8779                12.0419

                     67                     68                     69
                      A                      A                      A
 Frequencies --   1382.2551              1395.9092              1411.8467
 Red. masses --      3.5719                 1.9865                 1.8093
 Frc consts  --      4.0210                 2.2807                 2.1249
 IR Inten    --    751.4885                94.2721               118.7986

                     70                     71                     72
                      A                      A                      A
 Frequencies --   1424.6659              1441.6375              1460.9766
 Red. masses --      1.2898                 1.1582                 1.2095
 Frc consts  --      1.5424                 1.4182                 1.5211
 IR Inten    --     99.6193                 1.8598                14.4777

                     73                     74                     75
                      A                      A                      A
 Frequencies --   1471.3816              1476.9931              1481.8476
 Red. masses --      1.1847                 1.0467                 1.1038
 Frc consts  --      1.5112                 1.3453                 1.4280
 IR Inten    --     37.6082                11.4718                 2.1946

                     76                     77                     78
                      A                      A                      A
 Frequencies --   1484.5037              1486.3284              1492.7768
 Red. masses --      1.8854                 1.0998                 1.0629
 Frc consts  --      2.4481                 1.4316                 1.3955
 IR Inten    --      4.0207                11.0153                23.2780

                     79                     80                     81
                      A                      A                      A
 Frequencies --   1498.1709              1500.4778              1507.4699
 Red. masses --      1.0598                 1.0985                 1.1231
 Frc consts  --      1.4015                 1.4572                 1.5037
 IR Inten    --     11.9700                 7.1167               123.5009

                     82                     83                     84
                      A                      A                      A
 Frequencies --   1509.9716              1511.3229              1526.1900
 Red. masses --      1.0468                 1.0536                 1.0607
 Frc consts  --      1.4062                 1.4179                 1.4556
 IR Inten    --     30.9949                12.1253                27.8602

                     85                     86                     87
                      A                      A                      A
 Frequencies --   1540.8555              1593.9950              1640.9257
 Red. masses --      2.4329                 8.9572                 1.5667
 Frc consts  --      3.4033                13.4089                 2.4856
 IR Inten    --     47.1958               982.6314                25.6180

                     88                     89                     90
                      A                      A                      A
 Frequencies --   1642.8707              1670.1513              2977.9846
 Red. masses --      2.2005                 5.9791                 1.0562
 Frc consts  --      3.4992                 9.8265                 5.5190
 IR Inten    --      7.3769                30.8895               148.5548

                     91                     92                     93
                      A                      A                      A
 Frequencies --   3002.6538              3066.9563              3071.0473
 Red. masses --      1.0491                 1.0373                 1.0378
 Frc consts  --      5.5729                 5.7487                 5.7667
 IR Inten    --    140.8443                10.7746                26.8883

                     94                     95                     96
                      A                      A                      A
 Frequencies --   3073.6923              3079.5936              3086.8836
 Red. masses --      1.0361                 1.0833                 1.0867
 Frc consts  --      5.7673                 6.0534                 6.1010
 IR Inten    --     57.4644                75.4277                43.7288

                     97                     98                     99
                      A                      A                      A
 Frequencies --   3133.2490              3136.8740              3140.5552
 Red. masses --      1.1015                 1.1021                 1.1003
 Frc consts  --      6.3714                 6.3897                 6.3941
 IR Inten    --     13.7431                39.1841                54.4949

                    100                    101                    102
                      A                      A                      A
 Frequencies --   3152.0009              3159.4362              3168.5943
 Red. masses --      1.1023                 1.1032                 1.0959
 Frc consts  --      6.4525                 6.4881                 6.4827
 IR Inten    --      9.7362                39.5537                27.4901

                    103                    104                    105
                      A                      A                      A
 Frequencies --   3177.4762              3178.1995              3182.1652
 Red. masses --      1.0874                 1.1059                 1.0871
 Frc consts  --      6.4687                 6.5818                 6.4859
 IR Inten    --     19.7518                13.2398                 7.3638

                    106                    107                    108
                      A                      A                      A
 Frequencies --   3185.3935              3193.9610              3201.2335
 Red. masses --      1.1010                 1.0904                 1.0946
 Frc consts  --      6.5823                 6.5537                 6.6091
 IR Inten    --      2.3541                10.7200                58.6787

                    109                    110                    111
                      A                      A                      A
 Frequencies --   3214.7582              3514.1509              3594.9750
 Red. masses --      1.0986                 1.0522                 1.0959
 Frc consts  --      6.6891                 7.6554                 8.3446
 IR Inten    --     24.8803                15.7808                57.6679

 - Thermochemistry -
 -------------------
 Temperature   298.150 Kelvin.  Pressure   1.00000 Atm.
 Atom     1 has atomic number  6 and mass  12.00000

 Molecular mass:   234.17321 amu.
 Principal axes and moments of inertia in atomic units:
                           1         2         3
     Eigenvalues --  2960.545954987.320576217.02179
           X            0.99999   0.00377  -0.00116
           Y           -0.00379   0.99988  -0.01471
           Z            0.00110   0.01471   0.99989
 This molecule is an asymmetric top.
 Rotational symmetry number  1.
 Warning -- assumption of classical behavior for rotation
           may cause significant error
 Rotational temperatures (Kelvin)      0.02926     0.01737     0.01393
 Rotational constants (GHZ):           0.60960     0.36187     0.29029
    1 imaginary frequencies ignored.
 Zero-point vibrational energy     898983.8 (Joules/Mol)
                                  214.86228 (Kcal/Mol)
 Warning -- explicit consideration of  28 degrees of freedom as
           vibrations may cause significant error
 Vibrational temperatures:     31.14    62.15    76.13    79.49   104.76
          (Kelvin)            135.36   160.94   221.70   281.90   301.15
                              345.90   347.75   354.29   391.61   416.08
                              423.26   451.77   458.42   502.57   523.37
                              546.93   582.30   608.69   614.30   659.97
                              763.76   836.53   856.59   924.29   951.48
                             1007.63  1017.80  1051.38  1133.68  1194.41
                             1264.41  1266.72  1311.00  1367.07  1383.08
                             1439.68  1453.61  1462.89  1472.44  1476.83
                             1506.78  1509.20  1526.75  1538.02  1553.59
                             1574.75  1590.60  1615.10  1618.59  1696.99
                             1702.32  1732.15  1743.46  1778.56  1794.54
                             1801.61  1875.36  1890.99  1942.09  1951.34
                             1988.76  2008.40  2031.33  2049.78  2074.19
                             2102.02  2116.99  2125.06  2132.05  2135.87
                             2138.50  2147.77  2155.53  2158.85  2168.91
                             2172.51  2174.46  2195.85  2216.95  2293.40
                             2360.93  2363.72  2402.98  4284.66  4320.15
                             4412.67  4418.55  4422.36  4430.85  4441.34
                             4508.05  4513.26  4518.56  4535.03  4545.72
                             4558.90  4571.68  4572.72  4578.43  4583.07
                             4595.40  4605.86  4625.32  5056.08  5172.37

 Zero-point correction=                           0.342405 (Hartree/Particle)
 Thermal correction to Energy=                    0.360624
 Thermal correction to Enthalpy=                  0.361568
 Thermal correction to Gibbs Free Energy=         0.295542
 Sum of electronic and zero-point Energies=           -731.112833
 Sum of electronic and thermal Energies=              -731.094614
 Sum of electronic and thermal Enthalpies=            -731.093670
 Sum of electronic and thermal Free Energies=         -731.159696

                     E (Thermal)             CV                S
                      KCal/Mol        Cal/Mol-Kelvin    Cal/Mol-Kelvin
 Total                  226.295             68.644            138.964
 Electronic               0.000              0.000              0.000
 Translational            0.889              2.981             42.254
 Rotational               0.889              2.981             32.884
 Vibrational            224.518             62.682             63.825
 Vibration     1          0.593              1.985              6.478
 Vibration     2          0.595              1.980              5.107
 Vibration     3          0.596              1.976              4.705
 Vibration     4          0.596              1.975              4.620
 Vibration     5          0.599              1.967              4.076
 Vibration     6          0.603              1.953              3.573
 Vibration     7          0.607              1.940              3.236
 Vibration     8          0.620              1.898              2.621
 Vibration     9          0.636              1.846              2.171
 Vibration    10          0.642              1.827              2.050
 Vibration    11          0.657              1.779              1.800
 Vibration    12          0.658              1.776              1.790
 Vibration    13          0.661              1.769              1.757
 Vibration    14          0.675              1.725              1.582
 Vibration    15          0.686              1.694              1.479
 Vibration    16          0.689              1.685              1.450
 Vibration    17          0.702              1.647              1.341
 Vibration    18          0.705              1.638              1.317
 Vibration    19          0.727              1.577              1.169
 Vibration    20          0.737              1.547              1.106
 Vibration    21          0.750              1.513              1.039
 Vibration    22          0.770              1.460              0.945
 Vibration    23          0.785              1.420              0.882
 Vibration    24          0.789              1.412              0.869
 Vibration    25          0.817              1.342              0.770
 Vibration    26          0.886              1.182              0.585
 Vibration    27          0.938              1.072              0.483
 Vibration    28          0.953              1.042              0.458

 Optimization completed.
    -- Stationary point found.
 Normal termination of Gaussian 16 at Tue Mar 30 13:50:06 2021.
