 Gaussian 16, Revision A.03,
 Gaussian 16:  ES64L-G16RevA.03 25-Dec-2016

 ----------------------------------------------------------------------
 # wB97XD def2tzvp, opt=(ts, noeigen, calcfc, maxcycles=70, maxstep=5),
  freq=noraman, scrf=(iefpcm, solvent=water)
 ----------------------------------------------------------------------

 ------------------------
 2_iteration/TS-423-2.out
 ------------------------
 Symbolic Z-matrix:
 Charge =  0 Multiplicity = 1

 SCF Done:  E(RwB97XD) =  -883.901605773     A.U. after   14 cycles
 SCF Done:  E(RwB97XD) =  -883.901632357     A.U. after   10 cycles
 SCF Done:  E(RwB97XD) =  -883.901633195     A.U. after    9 cycles
 SCF Done:  E(RwB97XD) =  -883.901633205     A.U. after    6 cycles
 Optimization completed.
    -- Stationary point found.
 Normal termination of Gaussian 16 at Sun Apr 18 01:19:19 2021.

 ---------------------------------------------------------------------
 #N Geom=AllCheck Guess=TCheck SCRF=Check GenChk RwB97XD/def2TZVP Freq
 ---------------------------------------------------------------------

 Structure from the checkpoint file:  "/beegfs/scratch/user/q/tla25/Gau-364480.chk"
 ------------------------
 2_iteration/TS-423-2.out
 ------------------------
 Charge =  0 Multiplicity = 1

                         Standard orientation:
 ---------------------------------------------------------------------
 Center     Atomic      Atomic             Coordinates (Angstroms)
 Number     Number       Type             X           Y           Z
 ---------------------------------------------------------------------
      1          6           0       -0.542797   -1.160509   -0.768290
      2          6           0        0.472610   -0.409273   -0.110998
      3          8           0        0.293489    0.251960    0.935132
      4          6           0       -1.882256   -0.976081   -0.329536
      5          6           0       -1.340970   -2.835682    1.708633
      6          1           0       -0.556623   -3.003596    0.967855
      7          1           0       -0.915593   -2.967734    2.703872
      8          1           0       -2.137114   -3.562837    1.561619
      9          7           0       -1.857728   -1.489626    1.518915
     10          1           0       -2.716161   -1.338733    2.031599
     11          1           0       -1.167250   -0.784552    1.782768
     12          6           0       -2.940974   -1.910318   -0.876043
     13          1           0       -3.093631   -1.703814   -1.937228
     14          1           0       -2.655871   -2.955736   -0.770138
     15          1           0       -3.892135   -1.758150   -0.369210
     16          6           0       -2.425169    0.435223   -0.185379
     17          6           0       -3.553353    0.728227    0.579651
     18          6           0       -4.083049    2.009111    0.621536
     19          6           0       -3.505071    3.028203   -0.119773
     20          6           0       -2.399112    2.746788   -0.907978
     21          6           0       -1.871758    1.465611   -0.941708
     22          1           0       -4.050133   -0.045137    1.151463
     23          1           0       -4.955281    2.206520    1.232018
     24          1           0       -3.918472    4.028394   -0.090985
     25          1           0       -1.943474    3.527852   -1.503979
     26          1           0       -1.014537    1.252077   -1.565878
     27          6           0       -0.152036   -2.214635   -1.778985
     28          1           0       -0.993353   -2.844212   -2.057902
     29          1           0        0.213235   -1.779729   -2.718863
     30          1           0        0.632485   -2.885641   -1.412355
     31          7           0        1.742922   -0.475877   -0.675864
     32          6           0        2.952601    0.036934   -0.215991
     33          6           0        3.157766    0.527362    1.076732
     34          6           0        4.410060    0.995053    1.449242
     35          6           0        5.477743    0.986140    0.564691
     36          6           0        5.277100    0.495124   -0.718879
     37          6           0        4.034107    0.028701   -1.105795
     38          1           0        1.788461   -0.892954   -1.589048
     39          1           0        2.335503    0.542277    1.772709
     40          1           0        4.547379    1.371313    2.455975
     41          1           0        6.449081    1.354485    0.867975
     42          1           0        6.094490    0.475936   -1.429254
     43          1           0        3.892073   -0.349060   -2.112222
 ---------------------------------------------------------------------

 SCF Done:  E(RwB97XD) =  -883.901633205     A.U. after    1 cycles

 The electronic state is 1-A.
 Alpha  occ. eigenvalues --  -19.19428 -14.46946 -14.45313 -10.36717 -10.34811
 Alpha  occ. eigenvalues --  -10.33398 -10.31018 -10.30078 -10.29094 -10.28945
 Alpha  occ. eigenvalues --  -10.28834 -10.28787 -10.28766 -10.28627 -10.28566
 Alpha  occ. eigenvalues --  -10.28442 -10.27983 -10.27897 -10.27769 -10.27070
 Alpha  occ. eigenvalues --  -10.24665  -1.11934  -1.03265  -1.02576  -0.96866
 Alpha  occ. eigenvalues --   -0.95033  -0.91452  -0.86147  -0.84995  -0.84744
 Alpha  occ. eigenvalues --   -0.83772  -0.81526  -0.78272  -0.76310  -0.73197
 Alpha  occ. eigenvalues --   -0.70969  -0.70335  -0.69617  -0.66422  -0.63601
 Alpha  occ. eigenvalues --   -0.62499  -0.61944  -0.60546  -0.57899  -0.57001
 Alpha  occ. eigenvalues --   -0.56342  -0.55126  -0.53724  -0.53578  -0.53154
 Alpha  occ. eigenvalues --   -0.52042  -0.51985  -0.51212  -0.50520  -0.50165
 Alpha  occ. eigenvalues --   -0.49103  -0.48742  -0.48235  -0.47363  -0.46631
 Alpha  occ. eigenvalues --   -0.46073  -0.45542  -0.45313  -0.44991  -0.44275
 Alpha  occ. eigenvalues --   -0.42523  -0.42410  -0.41824  -0.40300  -0.38874
 Alpha  occ. eigenvalues --   -0.34098  -0.33611  -0.33397  -0.31947  -0.29651
 Alpha  occ. eigenvalues --   -0.24993
 Alpha virt. eigenvalues --    0.03239   0.05513   0.05657   0.05849   0.09594
 Alpha virt. eigenvalues --    0.10058   0.11831   0.13407   0.13569   0.14561
 Alpha virt. eigenvalues --    0.14915   0.15809   0.16087   0.16836   0.17029

 Mulliken charges:
               1
     1  C   -0.381269
     2  C    0.407711
     3  O   -0.611853
     4  C    0.324712
     5  C   -0.310620
     6  H    0.152694
     7  H    0.151678
     8  H    0.155987
     9  N   -0.304097
    10  H    0.260725
    11  H    0.273294
    12  C   -0.421418
    13  H    0.159663
    14  H    0.147511
    15  H    0.146587
    16  C    0.210789
    17  C   -0.278830
    18  C   -0.176161
    19  C   -0.141679
    20  C   -0.155434
    21  C   -0.228344
    22  H    0.148038
    23  H    0.140583
    24  H    0.142486
    25  H    0.139351
    26  H    0.157793
    27  C   -0.468456
    28  H    0.139195
    29  H    0.129578
    30  H    0.135253
    31  N   -0.265543
    32  C    0.298903
    33  C   -0.301856
    34  C   -0.107603
    35  C   -0.205299
    36  C   -0.098468
    37  C   -0.320486
    38  H    0.245475
    39  H    0.153581
    40  H    0.138633
    41  H    0.138141
    42  H    0.140774
    43  H    0.138283
 Sum of Mulliken charges =  -0.00000

 Dipole moment (field-independent basis, Debye):
    X=             -5.0501    Y=             -4.7358    Z=              0.1281  Tot=              6.9244
 Quadrupole moment (field-independent basis, Debye-Ang):
   XX=           -113.6923   YY=           -116.9754   ZZ=           -115.7957
   XY=              5.8769   XZ=            -13.5580   YZ=             -4.1815

  Exact polarizability: 402.244  20.755 296.369 -29.252   9.318 294.452
 Approx polarizability: 293.132  13.504 240.359 -24.993   8.727 253.820

 ******    1 imaginary frequencies (negative Signs) ******

                      1                      2                      3
                      A                      A                      A
 Frequencies --   -409.5742                20.6672                33.2364
 Red. masses --      5.2414                 4.5471                 4.0077
 Frc consts  --      0.5180                 0.0011                 0.0026
 IR Inten    --    869.4548                 0.7792                 0.4242

                      4                      5                      6
                      A                      A                      A
 Frequencies --     49.5463                66.6552                78.6916
 Red. masses --      3.9014                 3.7766                 3.8923
 Frc consts  --      0.0056                 0.0099                 0.0142
 IR Inten    --      1.4064                 1.6290                 0.9250

                      7                      8                      9
                      A                      A                      A
 Frequencies --     92.5409               108.7484               134.0967
 Red. masses --      2.6518                 3.1951                 2.9402
 Frc consts  --      0.0134                 0.0223                 0.0312
 IR Inten    --      3.6050                15.9805                 3.7499

                     10                     11                     12
                      A                      A                      A
 Frequencies --    149.0336               169.0305               178.9394
 Red. masses --      1.6288                 2.1091                 1.8631
 Frc consts  --      0.0213                 0.0355                 0.0351
 IR Inten    --      9.4682                 5.5835                27.3875

                     13                     14                     15
                      A                      A                      A
 Frequencies --    214.4657               222.1503               227.2641
 Red. masses --      2.0760                 2.6818                 3.4540
 Frc consts  --      0.0563                 0.0780                 0.1051
 IR Inten    --      4.5450                11.9950                 8.2314

                     16                     17                     18
                      A                      A                      A
 Frequencies --    263.5473               280.9408               289.1215
 Red. masses --      4.2564                 3.0835                 2.7896
 Frc consts  --      0.1742                 0.1434                 0.1374
 IR Inten    --     10.8030                 1.1414                 5.7812

                     19                     20                     21
                      A                      A                      A
 Frequencies --    307.3665               326.5946               364.3134
 Red. masses --      1.3158                 3.7630                 5.1698
 Frc consts  --      0.0732                 0.2365                 0.4043
 IR Inten    --      4.1392                39.3493                21.1659

                     22                     23                     24
                      A                      A                      A
 Frequencies --    368.5066               399.7530               421.7315
 Red. masses --      4.3328                 2.3076                 3.8770
 Frc consts  --      0.3467                 0.2173                 0.4063
 IR Inten    --      1.2922                 0.5508                 7.4926

                     25                     26                     27
                      A                      A                      A
 Frequencies --    425.5809               430.6658               506.8389
 Red. masses --      2.9988                 3.1394                 3.2460
 Frc consts  --      0.3200                 0.3431                 0.4913
 IR Inten    --      0.4883                 1.1994                55.1623

                     28                     29                     30
                      A                      A                      A
 Frequencies --    528.3788               540.5744               561.5332
 Red. masses --      2.8219                 1.2081                 3.2587
 Frc consts  --      0.4642                 0.2080                 0.6054
 IR Inten    --     15.0587               110.9411                37.4976

                     31                     32                     33
                      A                      A                      A
 Frequencies --    594.4497               605.9480               636.4622
 Red. masses --      3.8114                 4.6436                 6.1874
 Frc consts  --      0.7935                 1.0046                 1.4767
 IR Inten    --     65.3338                34.4720                 5.2118

                     34                     35                     36
                      A                      A                      A
 Frequencies --    639.4068               668.4716               716.9011
 Red. masses --      6.3543                 4.7748                 1.6005
 Frc consts  --      1.5306                 1.2571                 0.4846
 IR Inten    --      0.3922                54.7545               106.5727

                     37                     38                     39
                      A                      A                      A
 Frequencies --    718.7310               728.3697               766.2072
 Red. masses --      1.8484                 1.6668                 3.3289
 Frc consts  --      0.5626                 0.5210                 1.1514
 IR Inten    --     60.4103                74.7145                 6.8484

                     40                     41                     42
                      A                      A                      A
 Frequencies --    781.7574               788.5403               796.1286
 Red. masses --      1.8521                 5.9903                 2.1675
 Frc consts  --      0.6669                 2.1946                 0.8094
 IR Inten    --     92.0929                56.4979                60.1168

                     43                     44                     45
                      A                      A                      A
 Frequencies --    858.6662               872.0648               879.0871
 Red. masses --      1.2697                 4.6377                 1.2476
 Frc consts  --      0.5516                 2.0780                 0.5681
 IR Inten    --      1.0142                 2.0755                 0.6166

                     46                     47                     48
                      A                      A                      A
 Frequencies --    890.6881               928.0954               959.8711
 Red. masses --      3.5899                 1.4954                 1.4057
 Frc consts  --      1.6780                 0.7589                 0.7631
 IR Inten    --     32.5375                12.5188                18.2897

                     49                     50                     51
                      A                      A                      A
 Frequencies --    988.0671               998.1493              1006.0991
 Red. masses --      1.9639                 1.3388                 1.2116
 Frc consts  --      1.1296                 0.7859                 0.7226
 IR Inten    --    101.0518                 0.1175                38.7913

                     52                     53                     54
                      A                      A                      A
 Frequencies --   1012.9774              1019.1650              1021.6732
 Red. masses --      1.2794                 5.6491                 1.5585
 Frc consts  --      0.7735                 3.4572                 0.9585
 IR Inten    --      1.0605                 5.3426                 9.7677

                     55                     56                     57
                      A                      A                      A
 Frequencies --   1026.7591              1029.7251              1046.9736
 Red. masses --      2.9900                 1.3308                 1.4683
 Frc consts  --      1.8572                 0.8314                 0.9483
 IR Inten    --     10.8539                 0.6130                79.6696

                     58                     59                     60
                      A                      A                      A
 Frequencies --   1057.6779              1061.7682              1065.3759
 Red. masses --      1.9824                 2.2055                 1.5640
 Frc consts  --      1.3066                 1.4649                 1.0459
 IR Inten    --      8.4665                 8.2330                48.2336

                     61                     62                     63
                      A                      A                      A
 Frequencies --   1071.0078              1092.9676              1100.0002
 Red. masses --      1.3108                 2.6380                 2.0501
 Frc consts  --      0.8859                 1.8567                 1.4615
 IR Inten    --     28.8887                 5.8917               213.1155

                     64                     65                     66
                      A                      A                      A
 Frequencies --   1104.5410              1120.0248              1126.4498
 Red. masses --      1.9196                 1.5677                 1.6238
 Frc consts  --      1.3798                 1.1587                 1.2140
 IR Inten    --     59.4563                42.2745                58.6260

                     67                     68                     69
                      A                      A                      A
 Frequencies --   1180.3436              1183.2929              1194.0243
 Red. masses --      1.1229                 1.1291                 2.9571
 Frc consts  --      0.9217                 0.9314                 2.4840
 IR Inten    --      4.1616                 0.2053                71.5247

                     70                     71                     72
                      A                      A                      A
 Frequencies --   1207.6528              1211.6448              1223.7116
 Red. masses --      1.1490                 1.3025                 1.3031
 Frc consts  --      0.9874                 1.1266                 1.1497
 IR Inten    --     23.5513                30.9907                43.3588

                     73                     74                     75
                      A                      A                      A
 Frequencies --   1255.6191              1273.4674              1321.9395
 Red. masses --      3.7760                 2.6465                 4.3468
 Frc consts  --      3.5075                 2.5287                 4.4755
 IR Inten    --    109.2082               392.4681                 2.3550

                     76                     77                     78
                      A                      A                      A
 Frequencies --   1337.4799              1348.5501              1353.2119
 Red. masses --      3.2677                 4.8706                 1.5419
 Frc consts  --      3.4441                 5.2187                 1.6635
 IR Inten    --    100.6884               861.5160                49.0546

                     79                     80                     81
                      A                      A                      A
 Frequencies --   1360.2329              1370.7361              1406.9765
 Red. masses --      1.7624                 1.3188                 1.9362
 Frc consts  --      1.9213                 1.4600                 2.2583
 IR Inten    --     35.8033                12.1393               165.1792

                     82                     83                     84
                      A                      A                      A
 Frequencies --   1419.9245              1426.6910              1448.3325
 Red. masses --      1.6734                 1.2207                 1.2287
 Frc consts  --      1.9878                 1.4639                 1.5185
 IR Inten    --    193.9364                 9.3345                16.7284

                     85                     86                     87
                      A                      A                      A
 Frequencies --   1470.4985              1484.0266              1490.1317
 Red. masses --      2.0012                 1.2353                 1.0679
 Frc consts  --      2.5496                 1.6029                 1.3971
 IR Inten    --    392.2345                13.7339                35.5905

                     88                     89                     90
                      A                      A                      A
 Frequencies --   1491.3265              1496.5137              1501.1928
 Red. masses --      1.7316                 1.0631                 1.1216
 Frc consts  --      2.2690                 1.4027                 1.4892
 IR Inten    --     62.8152                15.6797                75.2238

                     91                     92                     93
                      A                      A                      A
 Frequencies --   1506.8606              1521.3425              1542.3396
 Red. masses --      1.0417                 1.0915                 2.2318
 Frc consts  --      1.3936                 1.4885                 3.1279
 IR Inten    --     42.5755               175.9698                21.9544

                     94                     95                     96
                      A                      A                      A
 Frequencies --   1545.1101              1555.0146              1627.6458
 Red. masses --      2.4602                 2.1642                 2.2648
 Frc consts  --      3.4605                 3.0833                 3.5351
 IR Inten    --    281.4185               306.3618               438.2862

                     97                     98                     99
                      A                      A                      A
 Frequencies --   1649.9735              1654.0876              1661.9629
 Red. masses --      2.7732                 2.5652                 2.8250
 Frc consts  --      4.4482                 4.1351                 4.5975
 IR Inten    --     11.8173                23.4439               132.7402

                    100                    101                    102
                      A                      A                      A
 Frequencies --   1673.6758              1674.6198              2994.7571
 Red. masses --      5.9343                 5.9740                 1.0525
 Frc consts  --      9.7940                 9.8707                 5.5613
 IR Inten    --     55.7844               176.0912               131.2888

                    103                    104                    105
                      A                      A                      A
 Frequencies --   3041.5056              3058.0880              3067.3460
 Red. masses --      1.0933                 1.0338                 1.0382
 Frc consts  --      5.9588                 5.6963                 5.7554
 IR Inten    --     65.8940                60.3925                18.7297

                    106                    107                    108
                      A                      A                      A
 Frequencies --   3128.9555              3140.5167              3155.7357
 Red. masses --      1.1035                 1.0990                 1.0966
 Frc consts  --      6.3651                 6.3864                 6.4344
 IR Inten    --     13.2161                19.9214                46.5085

                    109                    110                    111
                      A                      A                      A
 Frequencies --   3158.6960              3163.1218              3181.7547
 Red. masses --      1.1020                 1.0990                 1.0882
 Frc consts  --      6.4783                 6.4785                 6.4908
 IR Inten    --      5.0119                31.8321                17.1132

                    112                    113                    114
                      A                      A                      A
 Frequencies --   3192.3226              3193.0273              3198.7209
 Red. masses --      1.0855                 1.0882                 1.0883
 Frc consts  --      6.5176                 6.5365                 6.5606
 IR Inten    --      4.2232                 3.5030                 3.4999

                    115                    116                    117
                      A                      A                      A
 Frequencies --   3202.7222              3208.1239              3217.2222
 Red. masses --      1.0929                 1.0923                 1.0943
 Frc consts  --      6.6051                 6.6235                 6.6734
 IR Inten    --     33.0058                32.6342                30.1939

                    118                    119                    120
                      A                      A                      A
 Frequencies --   3219.4908              3223.4159              3272.5265
 Red. masses --      1.0977                 1.0974                 1.0918
 Frc consts  --      6.7037                 6.7184                 6.8889
 IR Inten    --     25.4899                13.4680                 3.2284

                    121                    122                    123
                      A                      A                      A
 Frequencies --   3400.0630              3602.6179              3660.1789
 Red. masses --      1.0661                 1.0833                 1.0762
 Frc consts  --      7.2612                 8.2839                 8.4946
 IR Inten    --    137.3405                65.4157                52.1880

 - Thermochemistry -
 -------------------
 Temperature   298.150 Kelvin.  Pressure   1.00000 Atm.
 Atom     1 has atomic number  6 and mass  12.00000

 Molecular mass:   282.17321 amu.
 Principal axes and moments of inertia in atomic units:
                           1         2         3
     Eigenvalues --  3519.71192********************
           X            0.99994   0.01025  -0.00379
           Y           -0.01023   0.99993   0.00612
           Z            0.00385  -0.00609   0.99997
 This molecule is an asymmetric top.
 Rotational symmetry number  1.
 Warning -- assumption of classical behavior for rotation
           may cause significant error
 Rotational temperatures (Kelvin)      0.02461     0.00857     0.00755
 Rotational constants (GHZ):           0.51275     0.17864     0.15728
    1 imaginary frequencies ignored.
 Zero-point vibrational energy     964733.4 (Joules/Mol)
                                  230.57681 (Kcal/Mol)
 Warning -- explicit consideration of  31 degrees of freedom as
           vibrations may cause significant error
 Vibrational temperatures:     29.74    47.82    71.29    95.90   113.22
          (Kelvin)            133.15   156.46   192.94   214.43   243.20
                              257.45   308.57   319.62   326.98   379.19
                              404.21   415.98   442.23   469.90   524.17
                              530.20   575.16   606.78   612.32   619.63
                              729.23   760.22   777.77   807.92   855.28
                              871.82   915.73   919.96   961.78  1031.46
                             1034.09  1047.96  1102.40  1124.77  1134.53
                             1145.45  1235.43  1254.71  1264.81  1281.50
                             1335.32  1381.04  1421.61  1436.11  1447.55
                             1457.45  1466.35  1469.96  1477.28  1481.54
                             1506.36  1521.76  1527.65  1532.84  1540.94
                             1572.54  1582.65  1589.19  1611.47  1620.71
                             1698.25  1702.49  1717.93  1737.54  1743.29
                             1760.65  1806.56  1832.24  1901.98  1924.34
                             1940.26  1946.97  1957.07  1972.18  2024.33
                             2042.95  2052.69  2083.83  2115.72  2135.18
                             2143.97  2145.69  2153.15  2159.88  2168.04
                             2188.87  2219.08  2223.07  2237.32  2341.82
                             2373.94  2379.86  2391.19  2408.05  2409.40
                             4308.79  4376.05  4399.91  4413.23  4501.87
                             4518.50  4540.40  4544.66  4551.03  4577.84
                             4593.04  4594.05  4602.25  4608.00  4615.77
                             4628.87  4632.13  4637.78  4708.44  4891.93
                             5183.36  5266.18

 Zero-point correction=                           0.367448 (Hartree/Particle)
 Thermal correction to Energy=                    0.387357
 Thermal correction to Enthalpy=                  0.388302
 Thermal correction to Gibbs Free Energy=         0.318209
 Sum of electronic and zero-point Energies=           -883.534186
 Sum of electronic and thermal Energies=              -883.514276
 Sum of electronic and thermal Enthalpies=            -883.513332
 Sum of electronic and thermal Free Energies=         -883.583424

                     E (Thermal)             CV                S
                      KCal/Mol        Cal/Mol-Kelvin    Cal/Mol-Kelvin
 Total                  243.070             77.237            147.523
 Electronic               0.000              0.000              0.000
 Translational            0.889              2.981             42.810
 Rotational               0.889              2.981             34.366
 Vibrational            241.293             71.276             70.346
 Vibration     1          0.593              1.986              6.569
 Vibration     2          0.594              1.983              5.626
 Vibration     3          0.595              1.978              4.835
 Vibration     4          0.598              1.970              4.250
 Vibration     5          0.600              1.963              3.923
 Vibration     6          0.602              1.955              3.606
 Vibration     7          0.606              1.942              3.291
 Vibration     8          0.613              1.919              2.886
 Vibration     9          0.618              1.904              2.685
 Vibration    10          0.625              1.881              2.446
 Vibration    11          0.629              1.868              2.339
 Vibration    12          0.644              1.819              2.005
 Vibration    13          0.648              1.807              1.941
 Vibration    14          0.651              1.799              1.900
 Vibration    15          0.670              1.740              1.638
 Vibration    16          0.681              1.709              1.528
 Vibration    17          0.686              1.694              1.479
 Vibration    18          0.697              1.660              1.376
 Vibration    19          0.710              1.622              1.277
 Vibration    20          0.738              1.546              1.104
 Vibration    21          0.741              1.537              1.086
 Vibration    22          0.766              1.471              0.964
 Vibration    23          0.784              1.423              0.886
 Vibration    24          0.787              1.415              0.873
 Vibration    25          0.792              1.403              0.856
 Vibration    26          0.862              1.235              0.641
 Vibration    27          0.883              1.187              0.591
 Vibration    28          0.896              1.160              0.564
 Vibration    29          0.917              1.115              0.521
 Vibration    30          0.952              1.044              0.459
 Vibration    31          0.965              1.019              0.440

 Optimization completed.
    -- Stationary point found.
 Normal termination of Gaussian 16 at Sun Apr 18 02:40:23 2021.
