 Gaussian 16, Revision A.03,
 Gaussian 16:  ES64L-G16RevA.03 25-Dec-2016

 ----------------------------------------------------------------------
 # wB97XD def2tzvp, opt=(ts, noeigen, calcfc, maxcycles=70, maxstep=3),
  freq=noraman, scrf=(iefpcm, solvent=water)
 ----------------------------------------------------------------------

 ------------------------
 3_iteration/TS-430-3.out
 ------------------------
 Symbolic Z-matrix:
 Charge =  0 Multiplicity = 1

 SCF Done:  E(RwB97XD) =  -3265.76477341     A.U. after   15 cycles
 Optimization completed.
    -- Stationary point found.
 Normal termination of Gaussian 16 at Sun Feb 14 22:53:29 2021.

 ---------------------------------------------------------------------
 #N Geom=AllCheck Guess=TCheck SCRF=Check GenChk RwB97XD/def2TZVP Freq
 ---------------------------------------------------------------------

 Structure from the checkpoint file:  "/beegfs/scratch/user/q/tla25/Gau-27639.chk"
 ------------------------
 3_iteration/TS-430-3.out
 ------------------------
 Charge =  0 Multiplicity = 1

                         Standard orientation:
 ---------------------------------------------------------------------
 Center     Atomic      Atomic             Coordinates (Angstroms)
 Number     Number       Type             X           Y           Z
 ---------------------------------------------------------------------
      1          6           0        0.648440   -0.170949   -0.180481
      2          6           0        0.809830    0.954041    0.714259
      3          8           0        0.108430    1.050801    1.745779
      4          6           0       -0.539020   -0.942569   -0.155631
      5          6           0        0.398281   -2.478499    2.019809
      6          1           0        1.336211   -2.034499    1.689489
      7          1           0        0.426821   -2.593329    3.104019
      8          1           0        0.285571   -3.459369    1.562029
      9          7           0       -0.697239   -1.608199    1.610859
     10          1           0       -1.596659   -2.013960    1.834499
     11          1           0       -0.611920   -0.685319    2.047439
     12          6           0       -0.592299   -2.216729   -0.968811
     13          1           0       -0.559549   -1.961919   -2.029481
     14          1           0        0.249251   -2.870929   -0.753771
     15          1           0       -1.517909   -2.757010   -0.779901
     16          6           0       -1.849510   -0.171510   -0.246301
     17          6           0       -3.066630   -0.754010    0.106839
     18          6           0       -4.262750   -0.070171   -0.042251
     19          6           0       -4.272460    1.214259   -0.564571
     20          6           0       -3.074151    1.796800   -0.946101
     21          6           0       -1.880260    1.108290   -0.794061
     22          1           0       -3.105689   -1.764320    0.493419
     23          1           0       -5.189980   -0.548541    0.246759
     24          1           0       -5.205671    1.749979   -0.682971
     25          1           0       -3.064241    2.792690   -1.371081
     26          1           0       -0.955911    1.567240   -1.115771
     27         35           0        2.260680   -0.951808   -0.896911
     28          7           0        1.740249    1.918101    0.453209
     29          6           0        2.152809    2.285632   -0.884961
     30          6           0        2.040319    2.894102    1.477429
     31          1           0        1.599689    1.709961   -1.621901
     32          1           0        1.940069    3.346462   -1.047001
     33          1           0        3.222109    2.121162   -1.039861
     34          1           0        1.950949    2.441312    2.461289
     35          1           0        3.062699    3.249062    1.338309
     36          1           0        1.366249    3.756781    1.430739
 ---------------------------------------------------------------------

 SCF Done:  E(RwB97XD) =  -3265.76477341     A.U. after    1 cycles

 The electronic state is 1-A.
 Alpha  occ. eigenvalues -- -483.11487 -62.66302 -56.45405 -56.45074 -56.45069
 Alpha  occ. eigenvalues --  -19.20343 -14.47179 -14.45123 -10.37593 -10.35768
 Alpha  occ. eigenvalues --  -10.31203 -10.30622 -10.30474 -10.30190 -10.29418
 Alpha  occ. eigenvalues --  -10.29182 -10.29075 -10.29015 -10.29009 -10.28926
 Alpha  occ. eigenvalues --  -10.28173  -8.80402  -6.62498  -6.61446  -6.61429
 Alpha  occ. eigenvalues --   -2.72894  -2.72589  -2.72575  -2.71724  -2.71724
 Alpha  occ. eigenvalues --   -1.12836  -1.03398  -1.02432  -0.97237  -0.92661
 Alpha  occ. eigenvalues --   -0.87747  -0.85350  -0.83286  -0.81589  -0.80104
 Alpha  occ. eigenvalues --   -0.78536  -0.76862  -0.71118  -0.70271  -0.66409
 Alpha  occ. eigenvalues --   -0.63676  -0.61668  -0.60803  -0.57889  -0.56989
 Alpha  occ. eigenvalues --   -0.56121  -0.55622  -0.55127  -0.53933  -0.53343
 Alpha  occ. eigenvalues --   -0.51433  -0.51047  -0.49985  -0.49200  -0.48250
 Alpha  occ. eigenvalues --   -0.48079  -0.47682  -0.46738  -0.46570  -0.46370
 Alpha  occ. eigenvalues --   -0.45525  -0.44961  -0.42868  -0.42205  -0.41189
 Alpha  occ. eigenvalues --   -0.38461  -0.36680  -0.34646  -0.33879  -0.32811
 Alpha  occ. eigenvalues --   -0.31451  -0.25720
 Alpha virt. eigenvalues --    0.03151   0.05121   0.06735   0.09943   0.10530
 Alpha virt. eigenvalues --    0.11992   0.13479   0.14127   0.15061   0.15432
 Alpha virt. eigenvalues --    0.16287   0.16427   0.17072   0.17663   0.17916

 Mulliken charges:
               1
     1  C   -0.455094
     2  C    0.321489
     3  O   -0.584643
     4  C    0.345576
     5  C   -0.316196
     6  H    0.153575
     7  H    0.153222
     8  H    0.155980
     9  N   -0.288907
    10  H    0.258864
    11  H    0.276598
    12  C   -0.377508
    13  H    0.152305
    14  H    0.146293
    15  H    0.146691
    16  C    0.147081
    17  C   -0.275009
    18  C   -0.177732
    19  C   -0.135343
    20  C   -0.169678
    21  C   -0.184973
    22  H    0.154476
    23  H    0.142634
    24  H    0.143836
    25  H    0.138981
    26  H    0.162499
    27  Br  -0.180699
    28  N   -0.102349
    29  C   -0.296894
    30  C   -0.293026
    31  H    0.155286
    32  H    0.136412
    33  H    0.141381
    34  H    0.137362
    35  H    0.137652
    36  H    0.129859
 Sum of Mulliken charges =  -0.00000

 Dipole moment (field-independent basis, Debye):
    X=             -2.8208    Y=             -2.6833    Z=              1.0211  Tot=              4.0249
 Quadrupole moment (field-independent basis, Debye-Ang):
   XX=           -108.1300   YY=            -98.7679   ZZ=           -116.4813
   XY=             10.1409   XZ=              0.1021   YZ=            -12.9745

  Exact polarizability: 306.344   9.037 285.883 -19.014 -18.600 222.937
 Approx polarizability: 237.898   5.524 227.449 -17.238 -15.124 192.050

 ******    1 imaginary frequencies (negative Signs) ******

                      1                      2                      3
                      A                      A                      A
 Frequencies --   -392.9830                46.6467                50.1624
 Red. masses --      5.3960                 3.8281                 4.2434
 Frc consts  --      0.4910                 0.0049                 0.0063
 IR Inten    --    689.3667                 0.9770                 0.7166

                      4                      5                      6
                      A                      A                      A
 Frequencies --     65.7880                76.5114                94.7039
 Red. masses --      4.2533                 2.9797                 2.9584
 Frc consts  --      0.0108                 0.0103                 0.0156
 IR Inten    --      2.7746                 1.0312                 3.7500

                      7                      8                      9
                      A                      A                      A
 Frequencies --    109.0205               127.4457               150.7899
 Red. masses --      3.7655                 1.6920                 4.6476
 Frc consts  --      0.0264                 0.0162                 0.0623
 IR Inten    --      0.8419                 3.2466                15.8680

                     10                     11                     12
                      A                      A                      A
 Frequencies --    166.5344               171.1579               192.1165
 Red. masses --      1.6321                 2.0090                 2.4444
 Frc consts  --      0.0267                 0.0347                 0.0532
 IR Inten    --      6.1562                26.3643                 3.1793

                     13                     14                     15
                      A                      A                      A
 Frequencies --    198.4592               212.4760               237.4318
 Red. masses --      2.0934                 2.1534                 1.9769
 Frc consts  --      0.0486                 0.0573                 0.0657
 IR Inten    --      3.8460                 2.7249                 3.7156

                     16                     17                     18
                      A                      A                      A
 Frequencies --    258.3094               265.7736               284.3349
 Red. masses --      3.4332                 1.7594                 1.8060
 Frc consts  --      0.1350                 0.0732                 0.0860
 IR Inten    --      2.7393                 9.3686                15.1349

                     19                     20                     21
                      A                      A                      A
 Frequencies --    295.6079               317.5356               335.6048
 Red. masses --      3.1539                 2.4706                 2.6706
 Frc consts  --      0.1624                 0.1468                 0.1772
 IR Inten    --      3.2008                11.8558                19.5629

                     22                     23                     24
                      A                      A                      A
 Frequencies --    363.4654               410.3572               423.1206
 Red. masses --      3.3890                 3.9792                 3.2586
 Frc consts  --      0.2638                 0.3948                 0.3437
 IR Inten    --     30.5557                14.4905                 3.8678

                     25                     26                     27
                      A                      A                      A
 Frequencies --    431.5528               488.1572               561.9980
 Red. masses --      3.4422                 4.0681                 3.2044
 Frc consts  --      0.3777                 0.5712                 0.5963
 IR Inten    --      5.7184                 8.4277                47.0435

                     28                     29                     30
                      A                      A                      A
 Frequencies --    564.6099               624.3311               639.2447
 Red. masses --      4.2098                 3.8146                 6.3782
 Frc consts  --      0.7907                 0.8760                 1.5356
 IR Inten    --    126.8724                 8.6325                 0.9207

                     31                     32                     33
                      A                      A                      A
 Frequencies --    667.9162               725.9725               729.9912
 Red. masses --      5.5766                 1.7960                 1.6308
 Frc consts  --      1.4658                 0.5577                 0.5120
 IR Inten    --     20.2795                49.1668               131.9550

                     34                     35                     36
                      A                      A                      A
 Frequencies --    787.2470               795.1718               808.6826
 Red. masses --      6.6842                 2.0360                 2.8071
 Frc consts  --      2.4407                 0.7585                 1.0816
 IR Inten    --     35.0184                39.7348                28.3460

                     37                     38                     39
                      A                      A                      A
 Frequencies --    877.9317               892.8123               961.4051
 Red. masses --      1.2481                 5.1500                 1.4042
 Frc consts  --      0.5668                 2.4187                 0.7647
 IR Inten    --      0.8035                27.7831                 8.9771

                     40                     41                     42
                      A                      A                      A
 Frequencies --   1008.3459              1016.7917              1023.9759
 Red. masses --      1.6144                 1.6338                 2.4905
 Frc consts  --      0.9671                 0.9952                 1.5385
 IR Inten    --     18.7519                30.0276                 5.9273

                     43                     44                     45
                      A                      A                      A
 Frequencies --   1028.0423              1030.8092              1045.8892
 Red. masses --      1.6729                 1.3571                 1.9682
 Frc consts  --      1.0417                 0.8496                 1.2685
 IR Inten    --     22.5131                 1.2745               105.4769

                     46                     47                     48
                      A                      A                      A
 Frequencies --   1060.9763              1067.5996              1088.3877
 Red. masses --      2.2029                 1.8382                 1.7486
 Frc consts  --      1.4610                 1.2344                 1.2204
 IR Inten    --     24.9371                71.3536                20.3359

                     49                     50                     51
                      A                      A                      A
 Frequencies --   1088.9231              1092.9816              1122.3116
 Red. masses --      1.9537                 1.3910                 1.6452
 Frc consts  --      1.3649                 0.9791                 1.2209
 IR Inten    --      5.9254               114.3376                 1.4228

                     52                     53                     54
                      A                      A                      A
 Frequencies --   1132.5840              1133.6332              1168.9494
 Red. masses --      1.8926                 1.2643                 1.3972
 Frc consts  --      1.4304                 0.9573                 1.1249
 IR Inten    --     29.1238                 1.0597                13.4982

                     55                     56                     57
                      A                      A                      A
 Frequencies --   1184.9562              1216.9023              1226.6850
 Red. masses --      1.1228                 1.1409                 2.7807
 Frc consts  --      0.9288                 0.9954                 2.4653
 IR Inten    --      0.1345                 8.9272               149.3458

                     58                     59                     60
                      A                      A                      A
 Frequencies --   1247.6571              1268.8852              1313.0577
 Red. masses --      1.4865                 3.9037                 4.9431
 Frc consts  --      1.3634                 3.7032                 5.0213
 IR Inten    --     79.1318               119.0414                16.0637

                     61                     62                     63
                      A                      A                      A
 Frequencies --   1319.9190              1354.4342              1374.5356
 Red. masses --      4.2766                 1.7292                 1.5863
 Frc consts  --      4.3898                 1.8690                 1.7658
 IR Inten    --     24.8228                76.1258               160.9403

                     64                     65                     66
                      A                      A                      A
 Frequencies --   1385.7773              1419.8999              1428.2916
 Red. masses --      2.0253                 1.2731                 1.9727
 Frc consts  --      2.2915                 1.5123                 2.3711
 IR Inten    --    485.4279                53.5246               208.4293

                     67                     68                     69
                      A                      A                      A
 Frequencies --   1443.8894              1458.2181              1472.9153
 Red. masses --      1.2435                 1.1923                 1.1856
 Frc consts  --      1.5274                 1.4938                 1.5154
 IR Inten    --     51.4337                 2.9755                65.5668

                     70                     71                     72
                      A                      A                      A
 Frequencies --   1480.3545              1483.5181              1488.1627
 Red. masses --      1.1102                 1.1134                 1.1396
 Frc consts  --      1.4334                 1.4437                 1.4870
 IR Inten    --      4.4227                12.1722                44.9378

                     73                     74                     75
                      A                      A                      A
 Frequencies --   1492.0449              1495.7307              1498.6535
 Red. masses --      1.6163                 1.0597                 1.1414
 Frc consts  --      2.1200                 1.3969                 1.5105
 IR Inten    --     33.1930                26.3902                 3.0521

                     76                     77                     78
                      A                      A                      A
 Frequencies --   1501.5903              1509.6886              1528.2594
 Red. masses --      1.0569                 1.0400                 1.6386
 Frc consts  --      1.4041                 1.3966                 2.2549
 IR Inten    --     21.4874                13.9648               234.9803

                     79                     80                     81
                      A                      A                      A
 Frequencies --   1543.1905              1586.1750              1650.9253
 Red. masses --      2.2090                 3.6051                 1.8883
 Frc consts  --      3.0994                 5.3440                 3.0323
 IR Inten    --     18.7753               649.5824                13.1434

                     82                     83                     84
                      A                      A                      A
 Frequencies --   1652.8077              1674.3504              3022.9582
 Red. masses --      1.9938                 5.9322                 1.0471
 Frc consts  --      3.2090                 9.7985                 5.6378
 IR Inten    --      6.1205                 5.2104                98.1643

                     85                     86                     87
                      A                      A                      A
 Frequencies --   3033.7056              3067.5684              3073.6936
 Red. masses --      1.0395                 1.0346                 1.0382
 Frc consts  --      5.6369                 5.7360                 5.7791
 IR Inten    --    121.6094                54.0101                14.0173

                     88                     89                     90
                      A                      A                      A
 Frequencies --   3087.8932              3100.1572              3143.0091
 Red. masses --      1.1020                 1.0931                 1.1028
 Frc consts  --      6.1910                 6.1896                 6.4185
 IR Inten    --     69.8166                31.0612                17.8218

                     91                     92                     93
                      A                      A                      A
 Frequencies --   3148.4346              3166.7237              3169.0350
 Red. masses --      1.0990                 1.1054                 1.0997
 Frc consts  --      6.4183                 6.5312                 6.5072
 IR Inten    --     16.3841                23.7232                14.7562

                     94                     95                     96
                      A                      A                      A
 Frequencies --   3171.3551              3171.8780              3194.9084
 Red. masses --      1.0983                 1.1029                 1.0856
 Frc consts  --      6.5083                 6.5374                 6.5291
 IR Inten    --     17.7941                15.7570                 2.6012

                     97                     98                     99
                      A                      A                      A
 Frequencies --   3201.6078              3210.8509              3221.0093
 Red. masses --      1.0886                 1.0928                 1.0964
 Frc consts  --      6.5741                 6.6378                 6.7020
 IR Inten    --      3.7820                33.0490                25.0257

                    100                    101                    102
                      A                      A                      A
 Frequencies --   3229.1781              3350.2390              3594.3369
 Red. masses --      1.0945                 1.0688                 1.0814
 Frc consts  --      6.7243                 7.0682                 8.2318
 IR Inten    --      9.8086               221.6504                60.5727

 - Thermochemistry -
 -------------------
 Temperature   298.150 Kelvin.  Pressure   1.00000 Atm.
 Atom     1 has atomic number  6 and mass  12.00000

 Molecular mass:   298.06807 amu.
 Principal axes and moments of inertia in atomic units:
                           1         2         3
     Eigenvalues --  3593.385286301.406887599.31948
           X            0.99774   0.06334   0.02239
           Y           -0.06202   0.99655  -0.05516
           Z           -0.02581   0.05364   0.99823
 This molecule is an asymmetric top.
 Rotational symmetry number  1.
 Warning -- assumption of classical behavior for rotation
           may cause significant error
 Rotational temperatures (Kelvin)      0.02410     0.01375     0.01140
 Rotational constants (GHZ):           0.50224     0.28640     0.23749
    1 imaginary frequencies ignored.
 Zero-point vibrational energy     798989.4 (Joules/Mol)
                                  190.96305 (Kcal/Mol)
 Warning -- explicit consideration of  27 degrees of freedom as
           vibrations may cause significant error
 Vibrational temperatures:     67.11    72.17    94.65   110.08   136.26
          (Kelvin)            156.86   183.37   216.95   239.61   246.26
                              276.41   285.54   305.71   341.61   371.65
                              382.39   409.09   425.31   456.86   482.86
                              522.95   590.41   608.78   620.91   702.35
                              808.59   812.35   898.27   919.73   960.98
                             1044.51  1050.29  1132.67  1144.07  1163.51
                             1263.15  1284.56  1383.25  1450.78  1462.94
                             1473.27  1479.12  1483.10  1504.80  1526.51
                             1536.04  1565.95  1566.72  1572.56  1614.76
                             1629.54  1631.05  1681.86  1704.89  1750.85
                             1764.93  1795.10  1825.64  1889.20  1899.07
                             1948.73  1977.65  1993.82  2042.92  2054.99
                             2077.43  2098.05  2119.20  2129.90  2134.45
                             2141.13  2146.72  2152.02  2156.23  2160.45
                             2172.11  2198.82  2220.31  2282.15  2375.31
                             2378.02  2409.02  4349.36  4364.83  4413.55
                             4422.36  4442.79  4460.43  4522.09  4529.90
                             4556.21  4559.53  4562.87  4563.63  4596.76
                             4606.40  4619.70  4634.31  4646.07  4820.25
                             5171.45

 Zero-point correction=                           0.304319 (Hartree/Particle)
 Thermal correction to Energy=                    0.322638
 Thermal correction to Enthalpy=                  0.323583
 Thermal correction to Gibbs Free Energy=         0.257690
 Sum of electronic and zero-point Energies=          -3265.460454
 Sum of electronic and thermal Energies=             -3265.442135
 Sum of electronic and thermal Enthalpies=           -3265.441191
 Sum of electronic and thermal Free Energies=        -3265.507084

                     E (Thermal)             CV                S
                      KCal/Mol        Cal/Mol-Kelvin    Cal/Mol-Kelvin
 Total                  202.459             67.404            138.683
 Electronic               0.000              0.000              0.000
 Translational            0.889              2.981             42.973
 Rotational               0.889              2.981             33.509
 Vibrational            200.681             61.442             62.201
 Vibration     1          0.595              1.979              4.955
 Vibration     2          0.595              1.978              4.811
 Vibration     3          0.597              1.971              4.276
 Vibration     4          0.599              1.965              3.978
 Vibration     5          0.603              1.953              3.560
 Vibration     6          0.606              1.942              3.286
 Vibration     7          0.611              1.926              2.984
 Vibration     8          0.618              1.902              2.662
 Vibration     9          0.624              1.884              2.474
 Vibration    10          0.626              1.878              2.423
 Vibration    11          0.634              1.851              2.207
 Vibration    12          0.637              1.842              2.147
 Vibration    13          0.644              1.822              2.022
 Vibration    14          0.656              1.783              1.822
 Vibration    15          0.667              1.749              1.673
 Vibration    16          0.672              1.736              1.624
 Vibration    17          0.683              1.703              1.507
 Vibration    18          0.690              1.682              1.442
 Vibration    19          0.704              1.640              1.323
 Vibration    20          0.717              1.604              1.233
 Vibration    21          0.737              1.547              1.107
 Vibration    22          0.775              1.448              0.925
 Vibration    23          0.785              1.420              0.881
 Vibration    24          0.793              1.402              0.854
 Vibration    25          0.844              1.276              0.688
 Vibration    26          0.918              1.114              0.520
 Vibration    27          0.920              1.108              0.515

 Optimization completed.
    -- Stationary point found.
 Normal termination of Gaussian 16 at Mon Feb 15 00:41:37 2021.
