 Gaussian 16, Revision A.03,
 Gaussian 16:  ES64L-G16RevA.03 25-Dec-2016

 ----------------------------------------------------------------------
 # wB97XD def2tzvp, opt=(ts, noeigen, calcfc, maxcycles=70, maxstep=8),
  freq=noraman, scrf=(iefpcm, solvent=water)
 ----------------------------------------------------------------------

 ------------------------
 1_iteration/TS-496-1.out
 ------------------------
 Symbolic Z-matrix:
 Charge =  0 Multiplicity = 1

 SCF Done:  E(RwB97XD) =  -597.482118363     A.U. after   14 cycles
 SCF Done:  E(RwB97XD) =  -597.482075089     A.U. after   12 cycles
 SCF Done:  E(RwB97XD) =  -597.482214669     A.U. after   11 cycles
 SCF Done:  E(RwB97XD) =  -597.482822678     A.U. after   11 cycles
 SCF Done:  E(RwB97XD) =  -597.484168953     A.U. after   11 cycles
 SCF Done:  E(RwB97XD) =  -597.485258338     A.U. after   12 cycles
 SCF Done:  E(RwB97XD) =  -597.485707065     A.U. after   12 cycles
 SCF Done:  E(RwB97XD) =  -597.485778063     A.U. after   11 cycles
 SCF Done:  E(RwB97XD) =  -597.485783940     A.U. after   10 cycles
 SCF Done:  E(RwB97XD) =  -597.485784635     A.U. after    9 cycles
 SCF Done:  E(RwB97XD) =  -597.485785019     A.U. after    9 cycles
 SCF Done:  E(RwB97XD) =  -597.485784988     A.U. after    9 cycles
 SCF Done:  E(RwB97XD) =  -597.485785037     A.U. after    7 cycles
 SCF Done:  E(RwB97XD) =  -597.485784998     A.U. after    6 cycles
 Optimization completed.
    -- Stationary point found.
 Normal termination of Gaussian 16 at Sun Feb 14 02:11:42 2021.

 ---------------------------------------------------------------------
 #N Geom=AllCheck Guess=TCheck SCRF=Check GenChk RwB97XD/def2TZVP Freq
 ---------------------------------------------------------------------

 Structure from the checkpoint file:  "/beegfs/scratch/user/q/tla25/Gau-23499.chk"
 ------------------------
 1_iteration/TS-496-1.out
 ------------------------
 Charge =  0 Multiplicity = 1

                         Standard orientation:
 ---------------------------------------------------------------------
 Center     Atomic      Atomic             Coordinates (Angstroms)
 Number     Number       Type             X           Y           Z
 ---------------------------------------------------------------------
      1          6           0       -0.842007    0.684891   -0.065858
      2          6           0        0.087482   -0.163402    0.582628
      3          8           0       -0.217846   -1.066253    1.386810
      4          6           0       -2.215192    0.708979    0.210099
      5          6           0       -2.497327   -1.455310   -1.723435
      6          1           0       -3.202942   -0.979064   -2.402285
      7          1           0       -1.499309   -1.052902   -1.913874
      8          1           0       -2.485150   -2.528635   -1.920761
      9          7           0       -2.857162   -1.143784   -0.351492
     10          1           0       -3.837144   -1.307165   -0.159463
     11          1           0       -2.296527   -1.669884    0.310352
     12          6           0       -3.065168    1.566256   -0.688719
     13          1           0       -2.960527    2.609395   -0.379759
     14          1           0       -2.750730    1.490192   -1.729298
     15          1           0       -4.119562    1.301548   -0.611738
     16          6           0       -2.732346    0.611895    1.622580
     17          1           0       -2.168746   -0.107364    2.208776
     18          1           0       -2.621361    1.597648    2.082601
     19          1           0       -3.792991    0.358990    1.643274
     20          1           0       -0.508078    1.204790   -0.954516
     21          6           0        1.544727   -0.012771    0.217602
     22          6           0        2.084526    1.197869   -0.210824
     23          6           0        3.433155    1.301199   -0.518783
     24          6           0        4.259209    0.191248   -0.411094
     25          6           0        3.731252   -1.019832    0.016504
     26          6           0        2.385891   -1.116363    0.334938
     27          1           0        1.450416    2.072186   -0.286741
     28          1           0        3.840589    2.251588   -0.840392
     29          1           0        5.311113    0.270509   -0.655611
     30          1           0        4.370755   -1.889599    0.102624
     31          1           0        1.967884   -2.053680    0.678943
 ---------------------------------------------------------------------

 SCF Done:  E(RwB97XD) =  -597.485784998     A.U. after    1 cycles

 The electronic state is 1-A.
 Alpha  occ. eigenvalues --  -19.20061 -14.45896 -10.34711 -10.34269 -10.30728
 Alpha  occ. eigenvalues --  -10.29149 -10.29038 -10.28975 -10.28900 -10.28883
 Alpha  occ. eigenvalues --  -10.28700 -10.27746 -10.27173 -10.24314  -1.10503
 Alpha  occ. eigenvalues --   -1.01786  -0.96363  -0.91502  -0.86298  -0.84950
 Alpha  occ. eigenvalues --   -0.80318  -0.79715  -0.77195  -0.72065  -0.70161
 Alpha  occ. eigenvalues --   -0.66225  -0.61774  -0.61394  -0.58940  -0.56087
 Alpha  occ. eigenvalues --   -0.55800  -0.54629  -0.54422  -0.53663  -0.51718
 Alpha  occ. eigenvalues --   -0.50836  -0.50212  -0.49319  -0.47946  -0.47217
 Alpha  occ. eigenvalues --   -0.46865  -0.46193  -0.44943  -0.44152  -0.43635
 Alpha  occ. eigenvalues --   -0.43121  -0.42143  -0.38093  -0.33730  -0.33471
 Alpha  occ. eigenvalues --   -0.31765  -0.27700
 Alpha virt. eigenvalues --    0.01717   0.05430   0.07534   0.10304   0.13296
 Alpha virt. eigenvalues --    0.13402   0.14110   0.15543   0.15947   0.16325
 Alpha virt. eigenvalues --    0.17314   0.17517   0.18741   0.18840   0.19526

 Mulliken charges:
               1
     1  C   -0.528213
     2  C    0.348081
     3  O   -0.562843
     4  C    0.232726
     5  C   -0.282589
     6  H    0.149859
     7  H    0.138205
     8  H    0.144620
     9  N   -0.390314
    10  H    0.273842
    11  H    0.267112
    12  C   -0.379035
    13  H    0.148372
    14  H    0.142199
    15  H    0.140573
    16  C   -0.355258
    17  H    0.148336
    18  H    0.135292
    19  H    0.128133
    20  H    0.144320
    21  C    0.143512
    22  C   -0.245801
    23  C   -0.144078
    24  C   -0.141021
    25  C   -0.128911
    26  C   -0.241259
    27  H    0.151464
    28  H    0.141437
    29  H    0.144336
    30  H    0.141244
    31  H    0.135659
 Sum of Mulliken charges =  -0.00000

 Dipole moment (field-independent basis, Debye):
    X=             -5.5428    Y=              0.2985    Z=             -3.8723  Tot=              6.7681
 Quadrupole moment (field-independent basis, Debye-Ang):
   XX=            -58.2376   YY=            -79.6275   ZZ=            -90.4348
   XY=              4.4974   XZ=              0.7858   YZ=              2.7363

  Exact polarizability: 288.292  -3.494 215.562  -2.150 -12.770 163.965
 Approx polarizability: 205.638  -1.375 182.591  -4.435 -14.274 140.132

 ******    1 imaginary frequencies (negative Signs) ******

                      1                      2                      3
                      A                      A                      A
 Frequencies --   -365.6547                36.7442                44.1791
 Red. masses --      4.8016                 3.5722                 4.0881
 Frc consts  --      0.3782                 0.0028                 0.0047
 IR Inten    --    739.7935                 1.5648                 6.7107

                      4                      5                      6
                      A                      A                      A
 Frequencies --     65.9541                90.0447               121.8159
 Red. masses --      4.6220                 2.0142                 3.8712
 Frc consts  --      0.0118                 0.0096                 0.0338
 IR Inten    --     24.3237                 7.2772                17.2278

                      7                      8                      9
                      A                      A                      A
 Frequencies --    173.5519               183.0130               193.0663
 Red. masses --      2.5882                 1.2935                 1.4847
 Frc consts  --      0.0459                 0.0255                 0.0326
 IR Inten    --      1.0756                 0.5632                 2.5360

                     10                     11                     12
                      A                      A                      A
 Frequencies --    208.7999               228.5916               240.8763
 Red. masses --      2.5153                 1.8928                 1.0917
 Frc consts  --      0.0646                 0.0583                 0.0373
 IR Inten    --      2.7887                 1.4698                 2.2071

                     13                     14                     15
                      A                      A                      A
 Frequencies --    290.8848               299.5589               323.2605
 Red. masses --      3.7533                 2.8446                 3.1272
 Frc consts  --      0.1871                 0.1504                 0.1925
 IR Inten    --      2.6608                 5.9833                28.1629

                     16                     17                     18
                      A                      A                      A
 Frequencies --    385.4441               421.0888               426.8646
 Red. masses --      4.2193                 2.9059                 4.0246
 Frc consts  --      0.3693                 0.3036                 0.4321
 IR Inten    --      3.0955                 0.2771                 7.4268

                     19                     20                     21
                      A                      A                      A
 Frequencies --    446.5571               486.7958               526.3285
 Red. masses --      2.6116                 2.6103                 3.5490
 Frc consts  --      0.3068                 0.3645                 0.5793
 IR Inten    --      1.1931                61.8817                 8.8835

                     22                     23                     24
                      A                      A                      A
 Frequencies --    620.7083               636.4960               688.0820
 Red. masses --      1.4734                 6.2670                 5.6483
 Frc consts  --      0.3345                 1.4959                 1.5756
 IR Inten    --     94.5272                 1.8351                 5.2265

                     25                     26                     27
                      A                      A                      A
 Frequencies --    720.1209               731.7657               756.4368
 Red. masses --      2.2400                 1.4436                 1.5513
 Frc consts  --      0.6844                 0.4555                 0.5230
 IR Inten    --     35.6722                89.2970               145.6071

                     28                     29                     30
                      A                      A                      A
 Frequencies --    830.8235               841.4835               881.9385
 Red. masses --      3.5731                 3.2885                 1.2549
 Frc consts  --      1.4532                 1.3720                 0.5751
 IR Inten    --     26.5133                13.0563                 0.1372

                     31                     32                     33
                      A                      A                      A
 Frequencies --    890.3458               945.5860               965.7946
 Red. masses --      4.7864                 1.2958                 1.1696
 Frc consts  --      2.2355                 0.6826                 0.6428
 IR Inten    --     48.1565                25.5083               135.6881

                     34                     35                     36
                      A                      A                      A
 Frequencies --    970.7382              1012.3989              1017.1536
 Red. masses --      1.4700                 1.1696                 1.3835
 Frc consts  --      0.8162                 0.7063                 0.8433
 IR Inten    --     13.0984                19.6408                 1.4166

                     37                     38                     39
                      A                      A                      A
 Frequencies --   1024.4382              1026.0217              1030.7730
 Red. masses --      1.3380                 5.9334                 1.3114
 Frc consts  --      0.8273                 3.6801                 0.8210
 IR Inten    --     38.0917                 0.8711                 1.3343

                     40                     41                     42
                      A                      A                      A
 Frequencies --   1043.8591              1061.0737              1080.6172
 Red. masses --      1.7738                 1.9846                 2.0792
 Frc consts  --      1.1388                 1.3165                 1.4305
 IR Inten    --      9.8806                15.7658               117.1852

                     43                     44                     45
                      A                      A                      A
 Frequencies --   1107.5132              1110.3494              1141.5328
 Red. masses --      1.5200                 2.4665                 2.2119
 Frc consts  --      1.0985                 1.7916                 1.6982
 IR Inten    --     25.2387                20.4779                22.5242

                     46                     47                     48
                      A                      A                      A
 Frequencies --   1182.4203              1190.6087              1202.6175
 Red. masses --      1.1355                 1.4141                 1.1418
 Frc consts  --      0.9353                 1.1810                 0.9730
 IR Inten    --      1.1988                20.7047                24.3753

                     49                     50                     51
                      A                      A                      A
 Frequencies --   1215.6982              1292.9042              1329.8638
 Red. masses --      2.1468                 3.3405                 3.5089
 Frc consts  --      1.8694                 3.2900                 3.6562
 IR Inten    --     51.7448               173.4831                12.9858

                     52                     53                     54
                      A                      A                      A
 Frequencies --   1349.3225              1351.9990              1365.5895
 Red. masses --      1.3273                 1.6331                 1.8727
 Frc consts  --      1.4239                 1.7588                 2.0576
 IR Inten    --      9.0657                 0.7627               149.8374

                     55                     56                     57
                      A                      A                      A
 Frequencies --   1408.9935              1418.1828              1453.0976
 Red. masses --      1.3798                 1.3564                 1.1940
 Frc consts  --      1.6139                 1.6073                 1.4854
 IR Inten    --     48.5167                29.2656                43.1186

                     58                     59                     60
                      A                      A                      A
 Frequencies --   1464.2328              1479.1979              1481.9964
 Red. masses --      1.2882                 1.2676                 1.0616
 Frc consts  --      1.6273                 1.6341                 1.3737
 IR Inten    --    336.6479               124.1451                 5.3570

                     61                     62                     63
                      A                      A                      A
 Frequencies --   1490.3952              1493.2678              1503.0191
 Red. masses --      1.6679                 1.0868                 1.0540
 Frc consts  --      2.1828                 1.4279                 1.4028
 IR Inten    --     24.2219                12.9436                11.5815

                     64                     65                     66
                      A                      A                      A
 Frequencies --   1506.7182              1525.2918              1541.3543
 Red. masses --      1.0455                 2.0926                 2.4015
 Frc consts  --      1.3984                 2.8684                 3.3615
 IR Inten    --     49.9483               699.9864               169.2345

                     67                     68                     69
                      A                      A                      A
 Frequencies --   1611.2113              1648.6235              1659.0042
 Red. masses --      6.2633                 1.1793                 4.9726
 Frc consts  --      9.5799                 1.8886                 8.0636
 IR Inten    --    403.8535                37.0277                41.4866

                     70                     71                     72
                      A                      A                      A
 Frequencies --   1672.4530              3047.6923              3054.4173
 Red. masses --      5.9146                 1.0342                 1.0388
 Frc consts  --      9.7472                 5.6600                 5.7102
 IR Inten    --      7.7945                59.3409                12.1269

                     73                     74                     75
                      A                      A                      A
 Frequencies --   3057.3185              3114.3640              3119.4917
 Red. masses --      1.0399                 1.1036                 1.0992
 Frc consts  --      5.7268                 6.3069                 6.3020
 IR Inten    --     46.3017                18.4428                30.4260

                     76                     77                     78
                      A                      A                      A
 Frequencies --   3126.6534              3147.7481              3150.3791
 Red. masses --      1.0986                 1.1039                 1.1039
 Frc consts  --      6.3278                 6.4443                 6.4553
 IR Inten    --     36.5578                35.1518                21.7665

                     79                     80                     81
                      A                      A                      A
 Frequencies --   3187.8646              3192.3955              3196.6505
 Red. masses --      1.0991                 1.0858                 1.0884
 Frc consts  --      6.5810                 6.5198                 6.5526
 IR Inten    --      4.6297                 1.5915                12.5650

                     82                     83                     84
                      A                      A                      A
 Frequencies --   3201.3211              3209.8469              3217.2239
 Red. masses --      1.0885                 1.0918                 1.0942
 Frc consts  --      6.5723                 6.6275                 6.6728
 IR Inten    --      4.5826                18.9778                30.3623

                     85                     86                     87
                      A                      A                      A
 Frequencies --   3222.6820              3511.3159              3609.5837
 Red. masses --      1.0974                 1.0526                 1.0947
 Frc consts  --      6.7151                 7.6462                 8.4036
 IR Inten    --     18.0283                17.9397                67.2231

 - Thermochemistry -
 -------------------
 Temperature   298.150 Kelvin.  Pressure   1.00000 Atm.
 Atom     1 has atomic number  6 and mass  12.00000

 Molecular mass:   191.13101 amu.
 Principal axes and moments of inertia in atomic units:
                           1         2         3
     Eigenvalues --  1313.448105179.556375428.36289
           X            0.99999  -0.00249   0.00221
           Y            0.00240   0.99922   0.03953
           Z           -0.00231  -0.03953   0.99922
 This molecule is an asymmetric top.
 Rotational symmetry number  1.
 Warning -- assumption of classical behavior for rotation
           may cause significant error
 Rotational temperatures (Kelvin)      0.06594     0.01672     0.01596
 Rotational constants (GHZ):           1.37405     0.34844     0.33247
    1 imaginary frequencies ignored.
 Zero-point vibrational energy     703012.3 (Joules/Mol)
                                  168.02398 (Kcal/Mol)
 Warning -- explicit consideration of  21 degrees of freedom as
           vibrations may cause significant error
 Vibrational temperatures:     52.87    63.56    94.89   129.55   175.27
          (Kelvin)            249.70   263.31   277.78   300.42   328.89
                              346.57   418.52   431.00   465.10   554.57
                              605.85   614.16   642.50   700.39   757.27
                              893.06   915.78   990.00  1036.09  1052.85
                             1088.34  1195.37  1210.71  1268.91  1281.01
                             1360.49  1389.56  1396.68  1456.62  1463.46
                             1473.94  1476.22  1483.05  1501.88  1526.65
                             1554.77  1593.46  1597.55  1642.41  1701.24
                             1713.02  1730.30  1749.12  1860.20  1913.38
                             1941.37  1945.22  1964.78  2027.23  2040.45
                             2090.68  2106.70  2128.24  2132.26  2144.35
                             2148.48  2162.51  2167.83  2194.55  2217.67
                             2318.17  2372.00  2386.94  2406.29  4384.95
                             4394.63  4398.80  4480.88  4488.25  4498.56
                             4528.91  4532.69  4586.63  4593.15  4599.27
                             4605.99  4618.25  4628.87  4636.72  5052.00
                             5193.39

 Zero-point correction=                           0.267763 (Hartree/Particle)
 Thermal correction to Energy=                    0.282331
 Thermal correction to Enthalpy=                  0.283275
 Thermal correction to Gibbs Free Energy=         0.225785
 Sum of electronic and zero-point Energies=           -597.218022
 Sum of electronic and thermal Energies=              -597.203454
 Sum of electronic and thermal Enthalpies=            -597.202510
 Sum of electronic and thermal Free Energies=         -597.260000

                     E (Thermal)             CV                S
                      KCal/Mol        Cal/Mol-Kelvin    Cal/Mol-Kelvin
 Total                  177.165             54.649            120.997
 Electronic               0.000              0.000              0.000
 Translational            0.889              2.981             41.649
 Rotational               0.889              2.981             31.979
 Vibrational            175.388             48.687             47.369
 Vibration     1          0.594              1.982              5.427
 Vibration     2          0.595              1.980              5.062
 Vibration     3          0.597              1.971              4.271
 Vibration     4          0.602              1.956              3.659
 Vibration     5          0.609              1.931              3.071
 Vibration     6          0.627              1.875              2.397
 Vibration     7          0.631              1.863              2.297
 Vibration     8          0.635              1.849              2.198
 Vibration     9          0.642              1.827              2.054
 Vibration    10          0.651              1.797              1.890
 Vibration    11          0.658              1.778              1.796
 Vibration    12          0.687              1.691              1.469
 Vibration    13          0.692              1.675              1.419
 Vibration    14          0.708              1.629              1.294
 Vibration    15          0.754              1.501              1.018
 Vibration    16          0.784              1.424              0.888
 Vibration    17          0.789              1.412              0.869
 Vibration    18          0.806              1.368              0.806
 Vibration    19          0.843              1.279              0.692
 Vibration    20          0.881              1.192              0.595
 Vibration    21          0.981              0.988              0.415

 Optimization completed.
    -- Stationary point found.
 Normal termination of Gaussian 16 at Sun Feb 14 03:03:57 2021.
