 Gaussian 16, Revision A.03,
 Gaussian 16:  ES64L-G16RevA.03 25-Dec-2016

 ----------------------------------------------------------------------
 # wB97XD def2tzvp, opt=(ts, noeigen, calcfc, maxcycles=70, maxstep=1),
  freq=noraman, scrf=(iefpcm, solvent=water)
 ----------------------------------------------------------------------

 ------------------------
 0_iteration/TS-460-0.out
 ------------------------
 Symbolic Z-matrix:
 Charge =  0 Multiplicity = 1

 SCF Done:  E(RwB97XD) =  -480.981206583     A.U. after   14 cycles
 SCF Done:  E(RwB97XD) =  -480.981204452     A.U. after   10 cycles
 SCF Done:  E(RwB97XD) =  -480.981206375     A.U. after    9 cycles
 SCF Done:  E(RwB97XD) =  -480.981213166     A.U. after    9 cycles
 SCF Done:  E(RwB97XD) =  -480.981226016     A.U. after   10 cycles
 SCF Done:  E(RwB97XD) =  -480.981243727     A.U. after    9 cycles
 SCF Done:  E(RwB97XD) =  -480.981265816     A.U. after    9 cycles
 SCF Done:  E(RwB97XD) =  -480.981291571     A.U. after    9 cycles
 SCF Done:  E(RwB97XD) =  -480.981321847     A.U. after    9 cycles
 SCF Done:  E(RwB97XD) =  -480.981356363     A.U. after    9 cycles
 SCF Done:  E(RwB97XD) =  -480.981786027     A.U. after   10 cycles
 SCF Done:  E(RwB97XD) =  -480.981800582     A.U. after   10 cycles
 SCF Done:  E(RwB97XD) =  -480.981810410     A.U. after   10 cycles
 SCF Done:  E(RwB97XD) =  -480.981816814     A.U. after   10 cycles
 SCF Done:  E(RwB97XD) =  -480.981819797     A.U. after   10 cycles
 SCF Done:  E(RwB97XD) =  -480.981820724     A.U. after    8 cycles
 SCF Done:  E(RwB97XD) =  -480.981820774     A.U. after    8 cycles
 SCF Done:  E(RwB97XD) =  -480.981820783     A.U. after    6 cycles
 SCF Done:  E(RwB97XD) =  -480.981820784     A.U. after    7 cycles
 Optimization completed.
    -- Stationary point found.
 Normal termination of Gaussian 16 at Sat Feb 13 08:07:30 2021.

 ---------------------------------------------------------------------
 #N Geom=AllCheck Guess=TCheck SCRF=Check GenChk RwB97XD/def2TZVP Freq
 ---------------------------------------------------------------------

 Structure from the checkpoint file:  "/beegfs/scratch/user/q/tla25/Gau-67707.chk"
 ------------------------
 0_iteration/TS-460-0.out
 ------------------------
 Charge =  0 Multiplicity = 1

                         Standard orientation:
 ---------------------------------------------------------------------
 Center     Atomic      Atomic             Coordinates (Angstroms)
 Number     Number       Type             X           Y           Z
 ---------------------------------------------------------------------
      1          6           0       -0.183703    0.772936   -0.105152
      2          6           0       -1.207215   -0.197473   -0.232765
      3          8           0       -1.067325   -1.351418   -0.658707
      4          6           0        1.087106    0.379879   -0.566256
      5          6           0        3.059729   -1.524507    0.333650
      6          1           0        3.250237   -2.375943    0.988188
      7          1           0        3.001432   -1.876830   -0.696216
      8          1           0        3.885618   -0.821748    0.418913
      9          7           0        1.809186   -0.848624    0.670794
     10          1           0        1.030167   -1.497562    0.702358
     11          1           0        1.858347   -0.370063    1.562174
     12          6           0        2.190704    1.392090   -0.689633
     13          1           0        1.910610    2.129214   -1.445220
     14          1           0        2.355793    1.926520    0.246660
     15          1           0        3.127347    0.933757   -1.003574
     16          1           0        1.081503   -0.366694   -1.354674
     17          6           0       -0.373280    2.062843    0.651233
     18          1           0        0.127838    2.059434    1.627786
     19          1           0        0.019254    2.924022    0.101963
     20          1           0       -1.429106    2.251065    0.834899
     21          8           0       -2.441579    0.221163    0.179566
     22          6           0       -3.489536   -0.727719    0.094732
     23          1           0       -4.374643   -0.232513    0.489201
     24          1           0       -3.669821   -1.031670   -0.937746
     25          1           0       -3.270479   -1.616883    0.688007
 ---------------------------------------------------------------------

 SCF Done:  E(RwB97XD) =  -480.981820784     A.U. after    1 cycles

 The electronic state is 1-A.
 Alpha  occ. eigenvalues --  -19.26789 -19.19534 -14.47753 -10.37557 -10.32653
 Alpha  occ. eigenvalues --  -10.31984 -10.31652 -10.27686 -10.26207 -10.24116
 Alpha  occ. eigenvalues --   -1.17722  -1.07910  -1.03315  -0.90305  -0.83527
 Alpha  occ. eigenvalues --   -0.79418  -0.78876  -0.75219  -0.67725  -0.62920
 Alpha  occ. eigenvalues --   -0.61711  -0.58702  -0.55820  -0.55508  -0.54469
 Alpha  occ. eigenvalues --   -0.54095  -0.51073  -0.49623  -0.48992  -0.47942
 Alpha  occ. eigenvalues --   -0.47723  -0.46392  -0.45269  -0.44014  -0.43149
 Alpha  occ. eigenvalues --   -0.41426  -0.41029  -0.36836  -0.33865  -0.25267
 Alpha virt. eigenvalues --    0.07873   0.09921   0.13267   0.13305   0.14430
 Alpha virt. eigenvalues --    0.16002   0.16810   0.17162   0.17658   0.18354
 Alpha virt. eigenvalues --    0.19506   0.19793   0.20325   0.20785   0.21355

 Mulliken charges:
               1
     1  C   -0.255410
     2  C    0.433429
     3  O   -0.574874
     4  C   -0.013657
     5  C   -0.295857
     6  H    0.152596
     7  H    0.151059
     8  H    0.157755
     9  N   -0.310387
    10  H    0.278863
    11  H    0.277177
    12  C   -0.369041
    13  H    0.147445
    14  H    0.141994
    15  H    0.143196
    16  H    0.134247
    17  C   -0.412251
    18  H    0.111509
    19  H    0.118718
    20  H    0.131273
    21  O   -0.326115
    22  C   -0.185818
    23  H    0.130235
    24  H    0.117513
    25  H    0.116399
 Sum of Mulliken charges =  -0.00000

 Dipole moment (field-independent basis, Debye):
    X=              6.4897    Y=             -0.5906    Z=              3.0397  Tot=              7.1906
 Quadrupole moment (field-independent basis, Debye-Ang):
   XX=            -47.8504   YY=            -64.8745   ZZ=            -61.1826
   XY=             -3.5160   XZ=              1.2560   YZ=             -4.3437

  Exact polarizability: 177.975  -2.207 139.488   1.989   1.485 113.801
 Approx polarizability: 127.446  -2.079 114.416   1.073   2.176  98.078

 ******    1 imaginary frequencies (negative Signs) ******

                      1                      2                      3
                      A                      A                      A
 Frequencies --   -378.1166                52.9161                64.1174
 Red. masses --      6.1009                 2.8564                 2.3563
 Frc consts  --      0.5139                 0.0047                 0.0057
 IR Inten    --    870.0908                 5.1334                 4.6499

                      4                      5                      6
                      A                      A                      A
 Frequencies --     88.2654                92.1889               121.7857
 Red. masses --      1.4107                 2.0386                 1.5920
 Frc consts  --      0.0065                 0.0102                 0.0139
 IR Inten    --      3.6438                 8.4741                10.4336

                      7                      8                      9
                      A                      A                      A
 Frequencies --    136.8368               162.1188               177.9307
 Red. masses --      2.9897                 1.6441                 1.4241
 Frc consts  --      0.0330                 0.0255                 0.0266
 IR Inten    --     16.1182                 1.3992                 1.7673

                     10                     11                     12
                      A                      A                      A
 Frequencies --    197.5169               233.1867               256.9806
 Red. masses --      2.0667                 2.1773                 1.2166
 Frc consts  --      0.0475                 0.0698                 0.0473
 IR Inten    --      5.3565                 9.2593                 1.8861

                     13                     14                     15
                      A                      A                      A
 Frequencies --    287.4686               315.8233               357.9091
 Red. masses --      2.7366                 2.6154                 3.4172
 Frc consts  --      0.1332                 0.1537                 0.2579
 IR Inten    --     18.6518                13.0992                23.2487

                     16                     17                     18
                      A                      A                      A
 Frequencies --    424.9075               457.4827               558.4755
 Red. masses --      3.3534                 3.9721                 4.2384
 Frc consts  --      0.3567                 0.4898                 0.7789
 IR Inten    --      5.9729               109.5144                34.1445

                     19                     20                     21
                      A                      A                      A
 Frequencies --    645.2211               693.5437               793.5355
 Red. masses --      2.0062                 1.6985                 8.1115
 Frc consts  --      0.4921                 0.4813                 3.0094
 IR Inten    --     21.8811                37.8980                79.9852

                     22                     23                     24
                      A                      A                      A
 Frequencies --    807.0501               929.9716               989.2460
 Red. masses --      4.3793                 2.2595                 1.2816
 Frc consts  --      1.6806                 1.1514                 0.7389
 IR Inten    --     26.2674                18.5454                35.9739

                     25                     26                     27
                      A                      A                      A
 Frequencies --   1026.9739              1033.5536              1045.6259
 Red. masses --      1.4111                 1.7219                 1.2892
 Frc consts  --      0.8768                 1.0837                 0.8305
 IR Inten    --     22.5151                50.2549                20.8892

                     28                     29                     30
                      A                      A                      A
 Frequencies --   1062.6844              1063.9048              1084.9938
 Red. masses --      1.8526                 1.4176                 2.1885
 Frc consts  --      1.2327                 0.9454                 1.5179
 IR Inten    --     18.0626               153.9707               187.5074

                     31                     32                     33
                      A                      A                      A
 Frequencies --   1133.2466              1180.8257              1183.6581
 Red. masses --      3.9181                 1.3321                 2.2865
 Frc consts  --      2.9646                 1.0943                 1.8875
 IR Inten    --    351.1992                16.9010               192.6307

                     34                     35                     36
                      A                      A                      A
 Frequencies --   1207.8361              1220.0585              1230.9637
 Red. masses --      1.3730                 1.4028                 1.3795
 Frc consts  --      1.1801                 1.2303                 1.2316
 IR Inten    --    194.6762                72.5321                16.7496

                     37                     38                     39
                      A                      A                      A
 Frequencies --   1313.4151              1349.1617              1378.5117
 Red. masses --      1.6859                 1.3330                 3.6162
 Frc consts  --      1.7135                 1.4296                 4.0488
 IR Inten    --    256.8874                 8.1045               127.2130

                     40                     41                     42
                      A                      A                      A
 Frequencies --   1408.4927              1414.1665              1454.3104
 Red. masses --      1.3740                 1.2536                 1.4763
 Frc consts  --      1.6060                 1.4771                 1.8396
 IR Inten    --     34.5684                 0.9524               170.4095

                     43                     44                     45
                      A                      A                      A
 Frequencies --   1469.1060              1477.3826              1479.9976
 Red. masses --      1.3395                 1.1191                 1.0812
 Frc consts  --      1.7033                 1.4391                 1.3953
 IR Inten    --     75.4948                58.7713                32.5518

                     46                     47                     48
                      A                      A                      A
 Frequencies --   1482.8587              1492.2608              1492.5638
 Red. masses --      1.0900                 1.0477                 1.0815
 Frc consts  --      1.4122                 1.3746                 1.4195
 IR Inten    --     20.0552                26.3995                36.4494

                     49                     50                     51
                      A                      A                      A
 Frequencies --   1497.9244              1498.3232              1507.2373
 Red. masses --      1.0586                 1.0584                 1.1542
 Frc consts  --      1.3995                 1.3999                 1.5448
 IR Inten    --     19.8528                22.7388               175.8062

                     52                     53                     54
                      A                      A                      A
 Frequencies --   1513.5288              1640.3931              1653.8825
 Red. masses --      1.2738                 1.6082                 2.4976
 Frc consts  --      1.7192                 2.5496                 4.0251
 IR Inten    --    150.1235               286.6378               432.4772

                     55                     56                     57
                      A                      A                      A
 Frequencies --   3000.9349              3051.6971              3056.1930
 Red. masses --      1.0527                 1.0312                 1.0892
 Frc consts  --      5.5855                 5.6583                 5.9942
 IR Inten    --    117.0548                80.7663                65.4955

                     58                     59                     60
                      A                      A                      A
 Frequencies --   3060.7013              3063.7694              3121.6278
 Red. masses --      1.0378                 1.0346                 1.1060
 Frc consts  --      5.7278                 5.7220                 6.3502
 IR Inten    --     21.8490                52.7576                51.4084

                     61                     62                     63
                      A                      A                      A
 Frequencies --   3128.0371              3136.6272              3145.0987
 Red. masses --      1.1002                 1.1046                 1.0979
 Frc consts  --      6.3423                 6.4027                 6.3983
 IR Inten    --     17.7363                24.0213                 8.3889

                     64                     65                     66
                      A                      A                      A
 Frequencies --   3146.6287              3156.4742              3159.2670
 Red. masses --      1.0937                 1.1044                 1.0954
 Frc consts  --      6.3801                 6.4831                 6.4415
 IR Inten    --     20.5471                33.7055                49.1724

                     67                     68                     69
                      A                      A                      A
 Frequencies --   3167.0794              3518.8059              3604.0322
 Red. masses --      1.1040                 1.0517                 1.0962
 Frc consts  --      6.5243                 7.6722                 8.3890
 IR Inten    --     14.9399                19.3722                52.8239

 - Thermochemistry -
 -------------------
 Temperature   298.150 Kelvin.  Pressure   1.00000 Atm.
 Atom     1 has atomic number  6 and mass  12.00000

 Molecular mass:   145.11028 amu.
 Principal axes and moments of inertia in atomic units:
                           1         2         3
     Eigenvalues --   880.607082354.775662912.50940
           X            0.99999  -0.00080  -0.00385
           Y            0.00078   0.99999  -0.00475
           Z            0.00385   0.00475   0.99998
 This molecule is an asymmetric top.
 Rotational symmetry number  1.
 Warning -- assumption of classical behavior for rotation
           may cause significant error
 Rotational temperatures (Kelvin)      0.09836     0.03678     0.02974
 Rotational constants (GHZ):           2.04943     0.76642     0.61965
    1 imaginary frequencies ignored.
 Zero-point vibrational energy     576356.6 (Joules/Mol)
                                  137.75253 (Kcal/Mol)
 Warning -- explicit consideration of  17 degrees of freedom as
           vibrations may cause significant error
 Vibrational temperatures:     76.13    92.25   126.99   132.64   175.22
          (Kelvin)            196.88   233.25   256.00   284.18   335.50
                              369.74   413.60   454.40   514.95   611.35
                              658.22   803.52   928.33   997.85  1141.72
                             1161.17  1338.02  1423.30  1477.59  1487.05
                             1504.42  1528.97  1530.72  1561.06  1630.49
                             1698.94  1703.02  1737.81  1755.39  1771.08
                             1889.71  1941.14  1983.37  2026.51  2034.67
                             2092.43  2113.72  2125.62  2129.39  2133.50
                             2147.03  2147.47  2155.18  2155.75  2168.58
                             2177.63  2360.16  2379.57  4317.68  4390.71
                             4397.18  4403.67  4408.08  4491.33  4500.55
                             4512.91  4525.10  4527.30  4541.46  4545.48
                             4556.72  5062.78  5185.40

 Zero-point correction=                           0.219523 (Hartree/Particle)
 Thermal correction to Energy=                    0.232429
 Thermal correction to Enthalpy=                  0.233373
 Thermal correction to Gibbs Free Energy=         0.180036
 Sum of electronic and zero-point Energies=           -480.762298
 Sum of electronic and thermal Energies=              -480.749392
 Sum of electronic and thermal Enthalpies=            -480.748448
 Sum of electronic and thermal Free Energies=         -480.801784

                     E (Thermal)             CV                S
                      KCal/Mol        Cal/Mol-Kelvin    Cal/Mol-Kelvin
 Total                  145.851             44.262            112.257
 Electronic               0.000              0.000              0.000
 Translational            0.889              2.981             40.828
 Rotational               0.889              2.981             30.180
 Vibrational            144.074             38.300             41.249
 Vibration     1          0.596              1.976              4.705
 Vibration     2          0.597              1.971              4.326
 Vibration     3          0.601              1.957              3.698
 Vibration     4          0.602              1.955              3.613
 Vibration     5          0.609              1.931              3.072
 Vibration     6          0.614              1.917              2.848
 Vibration     7          0.622              1.889              2.525
 Vibration     8          0.628              1.869              2.350
 Vibration     9          0.637              1.843              2.156
 Vibration    10          0.654              1.790              1.854
 Vibration    11          0.667              1.751              1.682
 Vibration    12          0.685              1.697              1.489
 Vibration    13          0.703              1.643              1.332
 Vibration    14          0.733              1.559              1.131
 Vibration    15          0.787              1.416              0.875
 Vibration    16          0.816              1.344              0.773
 Vibration    17          0.914              1.121              0.527

 Optimization completed.
    -- Stationary point found.
 Normal termination of Gaussian 16 at Sat Feb 13 08:27:44 2021.
