 Gaussian 16, Revision A.03,
 Gaussian 16:  ES64L-G16RevA.03 25-Dec-2016

 ----------------------------------------------------------------------
 # wB97XD def2tzvp, opt=(ts, noeigen, calcfc, maxcycles=70, maxstep=5),
  freq=noraman, scrf=(iefpcm, solvent=water)
 ----------------------------------------------------------------------

 -----------------------
 2_iteration/TS-41-2.out
 -----------------------
 Symbolic Z-matrix:
 Charge =  0 Multiplicity = 1

 SCF Done:  E(RwB97XD) =  -749.897321805     A.U. after   15 cycles
 Optimization completed.
    -- Stationary point found.
 Normal termination of Gaussian 16 at Sun Jan 31 16:26:59 2021.

 ---------------------------------------------------------------------
 #N Geom=AllCheck Guess=TCheck SCRF=Check GenChk RwB97XD/def2TZVP Freq
 ---------------------------------------------------------------------

 Structure from the checkpoint file:  "/beegfs/scratch/user/q/tla25/Gau-41621.chk"
 -----------------------
 2_iteration/TS-41-2.out
 -----------------------
 Charge =  0 Multiplicity = 1

                         Standard orientation:
 ---------------------------------------------------------------------
 Center     Atomic      Atomic             Coordinates (Angstroms)
 Number     Number       Type             X           Y           Z
 ---------------------------------------------------------------------
      1          6           0        0.766610    1.190110   -0.590970
      2          6           0        1.379119    2.318890   -1.178590
      3          8           0        2.577459    2.474710   -1.444530
      4          6           0       -0.621570    1.253169   -0.368090
      5          6           0       -2.353871    2.222219    1.738970
      6          1           0       -2.448831    2.718829    2.705030
      7          1           0       -2.815221    2.842289    0.971600
      8          1           0       -2.871810    1.265679    1.775610
      9          7           0       -0.955511    1.991269    1.382990
     10          1           0       -0.424541    2.853859    1.353010
     11          1           0       -0.496781    1.373319    2.042890
     12          6           0       -1.496300    0.049419   -0.304680
     13          6           0       -2.594480   -0.015421   -1.157320
     14          6           0       -3.432560   -1.121111   -1.154350
     15          6           0       -3.191740   -2.171241   -0.282170
     16          6           0       -2.108550   -2.108901    0.584610
     17          6           0       -1.265800   -1.010081    0.571690
     18          1           0       -2.793740    0.807359   -1.833780
     19          1           0       -4.278480   -1.156201   -1.828950
     20          1           0       -3.847370   -3.032581   -0.272050
     21          1           0       -1.918160   -2.921251    1.274440
     22          1           0       -0.424140   -0.979461    1.251250
     23          1           0       -1.106331    2.085139   -0.872270
     24          6           0        1.595660    0.025530   -0.182830
     25          6           0        2.293930    0.034300    1.023890
     26          6           0        3.048650   -1.059720    1.423800
     27          6           0        3.122000   -2.185810    0.616330
     28          6           0        2.442810   -2.205370   -0.594100
     29          6           0        1.690700   -1.108380   -0.987840
     30          1           0        2.239800    0.910970    1.659430
     31          1           0        3.578640   -1.033180    2.368030
     32          1           0        3.707430   -3.042160    0.926960
     33          1           0        2.497710   -3.078570   -1.232640
     34          1           0        1.154170   -1.130850   -1.929020
     35          1           0        0.668909    3.134640   -1.434370
 ---------------------------------------------------------------------

 SCF Done:  E(RwB97XD) =  -749.897321804     A.U. after    1 cycles

 The electronic state is 1-A.
 Alpha  occ. eigenvalues --  -19.20016 -14.48357 -10.34615 -10.33723 -10.31812
 Alpha  occ. eigenvalues --  -10.30659 -10.29507 -10.29439 -10.29406 -10.29357
 Alpha  occ. eigenvalues --  -10.29325 -10.29271 -10.28731 -10.28684 -10.28611
 Alpha  occ. eigenvalues --  -10.28448 -10.28353 -10.25993  -1.10061  -1.03879
 Alpha  occ. eigenvalues --   -0.97541  -0.96263  -0.91094  -0.86406  -0.85526
 Alpha  occ. eigenvalues --   -0.84639  -0.82931  -0.78896  -0.75049  -0.71354
 Alpha  occ. eigenvalues --   -0.70086  -0.69903  -0.67877  -0.64138  -0.63176
 Alpha  occ. eigenvalues --   -0.61017  -0.59128  -0.57643  -0.56208  -0.55510
 Alpha  occ. eigenvalues --   -0.54894  -0.53855  -0.53613  -0.52133  -0.52033
 Alpha  occ. eigenvalues --   -0.51221  -0.50480  -0.48578  -0.48357  -0.47875
 Alpha  occ. eigenvalues --   -0.46975  -0.46040  -0.45829  -0.43777  -0.43326
 Alpha  occ. eigenvalues --   -0.42514  -0.42159  -0.41756  -0.34536  -0.34010
 Alpha  occ. eigenvalues --   -0.33231  -0.32644  -0.31673  -0.27352
 Alpha virt. eigenvalues --    0.02288   0.04405   0.05548   0.06013   0.08118
 Alpha virt. eigenvalues --    0.09826   0.12834   0.13054   0.13358   0.14088
 Alpha virt. eigenvalues --    0.14887   0.15708   0.16271   0.16788   0.17330

 Mulliken charges:
               1
     1  C   -0.072426
     2  C    0.089573
     3  O   -0.530055
     4  C   -0.161481
     5  C   -0.284463
     6  H    0.157020
     7  H    0.152168
     8  H    0.158243
     9  N   -0.306463
    10  H    0.279354
    11  H    0.277521
    12  C    0.228697
    13  C   -0.210138
    14  C   -0.144927
    15  C   -0.141647
    16  C   -0.152342
    17  C   -0.259501
    18  H    0.141472
    19  H    0.144568
    20  H    0.146065
    21  H    0.143740
    22  H    0.179165
    23  H    0.166860
    24  C    0.164686
    25  C   -0.256121
    26  C   -0.154686
    27  C   -0.130035
    28  C   -0.160848
    29  C   -0.205425
    30  H    0.139539
    31  H    0.138879
    32  H    0.141944
    33  H    0.138577
    34  H    0.135550
    35  H    0.046939
 Sum of Mulliken charges =  -0.00000

 Dipole moment (field-independent basis, Debye):
    X=            -10.0430    Y=             -0.5581    Z=              6.9237  Tot=             12.2111
 Quadrupole moment (field-independent basis, Debye-Ang):
   XX=           -117.1172   YY=            -99.0686   ZZ=           -100.6628
   XY=            -21.2536   XZ=             12.4356   YZ=             13.8131

  Exact polarizability: 305.625  11.861 289.673   8.595 -12.909 253.219
 Approx polarizability: 233.492   6.380 232.100  13.158  -8.473 214.719

 ******    1 imaginary frequencies (negative Signs) ******

                      1                      2                      3
                      A                      A                      A
 Frequencies --   -347.0568                27.2980                42.0676
 Red. masses --      6.3433                 4.1736                 4.0983
 Frc consts  --      0.4502                 0.0018                 0.0043
 IR Inten    --    975.5615                 1.9318                 0.2221

                      4                      5                      6
                      A                      A                      A
 Frequencies --     47.3193                66.9177                70.4441
 Red. masses --      4.2727                 4.7328                 3.0813
 Frc consts  --      0.0056                 0.0125                 0.0090
 IR Inten    --      4.6150                 4.9720                 1.3599

                      7                      8                      9
                      A                      A                      A
 Frequencies --     87.0445               111.8938               148.0898
 Red. masses --      3.7992                 3.2939                 2.0354
 Frc consts  --      0.0170                 0.0243                 0.0263
 IR Inten    --      6.3963                11.7361                 3.8728

                     10                     11                     12
                      A                      A                      A
 Frequencies --    174.4582               202.1936               231.7591
 Red. masses --      2.4326                 2.6537                 3.2333
 Frc consts  --      0.0436                 0.0639                 0.1023
 IR Inten    --      3.7001                 2.0443                 7.4713

                     13                     14                     15
                      A                      A                      A
 Frequencies --    255.3337               268.2917               310.3150
 Red. masses --      3.9949                 3.4634                 2.9595
 Frc consts  --      0.1535                 0.1469                 0.1679
 IR Inten    --     19.7458                35.2340                 5.2515

                     16                     17                     18
                      A                      A                      A
 Frequencies --    328.5587               390.3779               422.1742
 Red. masses --      4.3705                 4.7104                 2.8630
 Frc consts  --      0.2780                 0.4229                 0.3006
 IR Inten    --      4.8323                61.1966                 0.7190

                     19                     20                     21
                      A                      A                      A
 Frequencies --    424.1736               497.5122               517.2764
 Red. masses --      2.8861                 5.1118                 3.3385
 Frc consts  --      0.3059                 0.7455                 0.5263
 IR Inten    --      3.0959                10.1433                32.4822

                     22                     23                     24
                      A                      A                      A
 Frequencies --    540.4897               594.9332               616.1973
 Red. masses --      3.3635                 2.8191                 3.4805
 Frc consts  --      0.5789                 0.5879                 0.7786
 IR Inten    --     19.5829               106.5907                49.2899

                     25                     26                     27
                      A                      A                      A
 Frequencies --    637.3592               646.3201               670.5142
 Red. masses --      6.3570                 5.9493                 2.2926
 Frc consts  --      1.5215                 1.4642                 0.6073
 IR Inten    --      5.9937                33.9765               138.5234

                     28                     29                     30
                      A                      A                      A
 Frequencies --    724.9379               728.9353               735.0539
 Red. masses --      2.2716                 1.5317                 1.7954
 Frc consts  --      0.7034                 0.4795                 0.5715
 IR Inten    --     13.0554               144.3363                74.3532

                     31                     32                     33
                      A                      A                      A
 Frequencies --    758.6403               800.7672               840.0117
 Red. masses --      4.4542                 2.1192                 2.8059
 Frc consts  --      1.5104                 0.8006                 1.1665
 IR Inten    --      1.0386                 7.6681                14.6659

                     34                     35                     36
                      A                      A                      A
 Frequencies --    877.6162               879.3692               880.9556
 Red. masses --      3.2295                 1.3133                 1.2619
 Frc consts  --      1.4655                 0.5983                 0.5770
 IR Inten    --     16.4812                 1.8816                 0.4600

                     37                     38                     39
                      A                      A                      A
 Frequencies --    958.2527               964.7522              1004.2407
 Red. masses --      1.5074                 1.4411                 1.1103
 Frc consts  --      0.8155                 0.7903                 0.6597
 IR Inten    --      3.2292                 2.1118                 4.6582

                     40                     41                     42
                      A                      A                      A
 Frequencies --   1011.4047              1017.4265              1025.0051
 Red. masses --      1.3834                 1.3832                 1.7036
 Frc consts  --      0.8338                 0.8436                 1.0545
 IR Inten    --      0.1852                 1.1736                 9.1309

                     43                     44                     45
                      A                      A                      A
 Frequencies --   1026.2421              1027.1696              1027.4511
 Red. masses --      4.2692                 2.9172                 1.6550
 Frc consts  --      2.6491                 1.8134                 1.0294
 IR Inten    --      2.5769                 0.3008                 0.3451

                     46                     47                     48
                      A                      A                      A
 Frequencies --   1033.2826              1034.6921              1058.6044
 Red. masses --      1.2339                 1.2894                 2.3966
 Frc consts  --      0.7762                 0.8133                 1.5824
 IR Inten    --     66.6490                28.5723                11.4988

                     49                     50                     51
                      A                      A                      A
 Frequencies --   1065.1867              1070.6911              1105.5827
 Red. masses --      2.3214                 3.9102                 1.5503
 Frc consts  --      1.5519                 2.6411                 1.1165
 IR Inten    --     40.4025               172.9470                18.0458

                     52                     53                     54
                      A                      A                      A
 Frequencies --   1118.8345              1153.6637              1176.8635
 Red. masses --      1.6537                 2.9564                 1.1558
 Frc consts  --      1.2197                 2.3183                 0.9432
 IR Inten    --     15.6646                 9.7800                99.7166

                     55                     56                     57
                      A                      A                      A
 Frequencies --   1181.2815              1186.6142              1204.1072
 Red. masses --      1.1317                 1.1300                 1.1211
 Frc consts  --      0.9305                 0.9374                 0.9577
 IR Inten    --      2.3691                 4.4360                 0.0685

                     58                     59                     60
                      A                      A                      A
 Frequencies --   1217.3852              1221.5550              1240.5868
 Red. masses --      1.1742                 1.4218                 2.0144
 Frc consts  --      1.0253                 1.2500                 1.8266
 IR Inten    --      8.6520                35.9166               209.6999

                     61                     62                     63
                      A                      A                      A
 Frequencies --   1244.9016              1309.2373              1329.9137
 Red. masses --      1.9376                 4.4145                 4.1140
 Frc consts  --      1.7692                 4.4583                 4.2870
 IR Inten    --      6.7788                 0.1513               123.3323

                     64                     65                     66
                      A                      A                      A
 Frequencies --   1341.0725              1355.2689              1369.9324
 Red. masses --      1.3591                 1.4690                 1.4483
 Frc consts  --      1.4401                 1.5897                 1.6014
 IR Inten    --      2.9529                 0.2744                71.1774

                     67                     68                     69
                      A                      A                      A
 Frequencies --   1419.4926              1431.9866              1462.2946
 Red. masses --      1.8789                 2.2324                 1.2052
 Frc consts  --      2.2306                 2.6971                 1.5183
 IR Inten    --    147.9446               183.5443                14.5980

                     70                     71                     72
                      A                      A                      A
 Frequencies --   1478.5026              1487.0628              1490.9082
 Red. masses --      2.1309                 2.1928                 1.0465
 Frc consts  --      2.7445                 2.8570                 1.3706
 IR Inten    --    162.4227                19.0191                17.6149

                     73                     74                     75
                      A                      A                      A
 Frequencies --   1505.3206              1513.5312              1548.0802
 Red. masses --      1.0644                 2.2490                 2.5322
 Frc consts  --      1.4210                 3.0355                 3.5754
 IR Inten    --     27.7555               172.2797                23.5492

                     76                     77                     78
                      A                      A                      A
 Frequencies --   1552.4610              1642.1520              1644.3983
 Red. masses --      2.5951                 2.5106                 3.4937
 Frc consts  --      3.6850                 3.9889                 5.5660
 IR Inten    --     41.5291               931.4140                48.0434

                     79                     80                     81
                      A                      A                      A
 Frequencies --   1647.7821              1655.8979              1675.0992
 Red. masses --      1.8304                 5.6241                 5.9874
 Frc consts  --      2.9281                 9.0859                 9.8984
 IR Inten    --    369.4549                22.0061                87.3264

                     82                     83                     84
                      A                      A                      A
 Frequencies --   1678.8621              2873.1874              3067.4924
 Red. masses --      5.8029                 1.0800                 1.0339
 Frc consts  --      9.6366                 5.2528                 5.7316
 IR Inten    --      1.4429               234.9341                51.4684

                     85                     86                     87
                      A                      A                      A
 Frequencies --   3145.5038              3149.8447              3165.5506
 Red. masses --      1.1036                 1.0895                 1.1054
 Frc consts  --      6.4335                 6.3689                 6.5264
 IR Inten    --     19.5403                22.8578                12.9737

                     88                     89                     90
                      A                      A                      A
 Frequencies --   3184.5613              3189.3354              3192.1083
 Red. masses --      1.0872                 1.0873                 1.0876
 Frc consts  --      6.4961                 6.5160                 6.5294
 IR Inten    --     11.0934                 2.6938                 6.5061

                     91                     92                     93
                      A                      A                      A
 Frequencies --   3198.8739              3199.0716              3206.6628
 Red. masses --      1.0880                 1.0909                 1.0950
 Frc consts  --      6.5594                 6.5778                 6.6337
 IR Inten    --      0.2427                13.7199                50.4692

                     94                     95                     96
                      A                      A                      A
 Frequencies --   3207.8445              3216.1845              3218.0645
 Red. masses --      1.0914                 1.0948                 1.0988
 Frc consts  --      6.6168                 6.6724                 6.7042
 IR Inten    --     15.0581                31.2060                19.8929

                     97                     98                     99
                      A                      A                      A
 Frequencies --   3224.0349              3523.2599              3606.4867
 Red. masses --      1.0988                 1.0508                 1.0966
 Frc consts  --      6.7293                 7.6849                 8.4034
 IR Inten    --     14.7635                18.4631                41.9656

 - Thermochemistry -
 -------------------
 Temperature   298.150 Kelvin.  Pressure   1.00000 Atm.
 Atom     1 has atomic number  6 and mass  12.00000

 Molecular mass:   239.13101 amu.
 Principal axes and moments of inertia in atomic units:
                           1         2         3
     Eigenvalues --  3362.635255231.554236713.02447
           X            0.99911  -0.04194   0.00467
           Y            0.04180   0.99876   0.02713
           Z           -0.00580  -0.02691   0.99962
 This molecule is an asymmetric top.
 Rotational symmetry number  1.
 Warning -- assumption of classical behavior for rotation
           may cause significant error
 Rotational temperatures (Kelvin)      0.02576     0.01656     0.01290
 Rotational constants (GHZ):           0.53670     0.34497     0.26884
    1 imaginary frequencies ignored.
 Zero-point vibrational energy     771822.8 (Joules/Mol)
                                  184.47009 (Kcal/Mol)
 Warning -- explicit consideration of  23 degrees of freedom as
           vibrations may cause significant error
 Vibrational temperatures:     39.28    60.53    68.08    96.28   101.35
          (Kelvin)            125.24   160.99   213.07   251.01   290.91
                              333.45   367.37   386.01   446.47   472.72
                              561.67   607.41   610.29   715.81   744.25
                              777.64   855.98   886.57   917.02   929.91
                              964.72  1043.02  1048.78  1057.58  1091.51
                             1152.13  1208.59  1262.69  1265.22  1267.50
                             1378.71  1388.06  1444.88  1455.19  1463.85
                             1474.75  1476.53  1477.87  1478.27  1486.66
                             1488.69  1523.10  1532.57  1540.49  1590.69
                             1609.75  1659.86  1693.24  1699.60  1707.27
                             1732.44  1751.55  1757.55  1784.93  1791.14
                             1883.70  1913.45  1929.50  1949.93  1971.03
                             2042.33  2060.31  2103.92  2127.24  2139.55
                             2145.08  2165.82  2177.63  2227.34  2233.65
                             2362.69  2365.92  2370.79  2382.47  2410.09
                             2415.51  4133.88  4413.44  4525.68  4531.92
                             4554.52  4581.87  4588.74  4592.73  4602.47
                             4602.75  4613.67  4615.37  4627.37  4630.08
                             4638.67  5069.19  5188.93

 Zero-point correction=                           0.293972 (Hartree/Particle)
 Thermal correction to Energy=                    0.310243
 Thermal correction to Enthalpy=                  0.311187
 Thermal correction to Gibbs Free Energy=         0.248302
 Sum of electronic and zero-point Energies=           -749.603350
 Sum of electronic and thermal Energies=              -749.587079
 Sum of electronic and thermal Enthalpies=            -749.586135
 Sum of electronic and thermal Free Energies=         -749.649020

                     E (Thermal)             CV                S
                      KCal/Mol        Cal/Mol-Kelvin    Cal/Mol-Kelvin
 Total                  194.680             61.563            132.353
 Electronic               0.000              0.000              0.000
 Translational            0.889              2.981             42.317
 Rotational               0.889              2.981             33.135
 Vibrational            192.903             55.601             56.902
 Vibration     1          0.593              1.984              6.017
 Vibration     2          0.595              1.980              5.159
 Vibration     3          0.595              1.979              4.926
 Vibration     4          0.598              1.970              4.242
 Vibration     5          0.598              1.968              4.141
 Vibration     6          0.601              1.958              3.725
 Vibration     7          0.607              1.940              3.236
 Vibration     8          0.617              1.905              2.697
 Vibration     9          0.627              1.874              2.387
 Vibration    10          0.639              1.837              2.113
 Vibration    11          0.653              1.792              1.865
 Vibration    12          0.666              1.754              1.693
 Vibration    13          0.673              1.731              1.607
 Vibration    14          0.699              1.654              1.361
 Vibration    15          0.712              1.618              1.267
 Vibration    16          0.758              1.491              0.999
 Vibration    17          0.785              1.422              0.885
 Vibration    18          0.786              1.418              0.878
 Vibration    19          0.853              1.256              0.664
 Vibration    20          0.872              1.212              0.616
 Vibration    21          0.896              1.161              0.564
 Vibration    22          0.953              1.043              0.458
 Vibration    23          0.976              0.998              0.423

 Optimization completed.
    -- Stationary point found.
 Normal termination of Gaussian 16 at Sun Jan 31 18:18:50 2021.
