 Gaussian 16, Revision A.03,
 Gaussian 16:  ES64L-G16RevA.03 25-Dec-2016

 ----------------------------------------------------------------------
 # wB97XD def2tzvp, opt=(ts, noeigen, calcfc, maxcycles=70, maxstep=8),
  freq=noraman, scrf=(iefpcm, solvent=water)
 ----------------------------------------------------------------------

 ------------------------
 1_iteration/TS-478-1.out
 ------------------------
 Symbolic Z-matrix:
 Charge =  0 Multiplicity = 1

 SCF Done:  E(RwB97XD) =  -920.708266051     A.U. after   14 cycles
 SCF Done:  E(RwB97XD) =  -920.708396081     A.U. after   12 cycles
 SCF Done:  E(RwB97XD) =  -920.708536956     A.U. after   11 cycles
 SCF Done:  E(RwB97XD) =  -920.708537191     A.U. after   11 cycles
 SCF Done:  E(RwB97XD) =  -920.708569262     A.U. after   10 cycles
 SCF Done:  E(RwB97XD) =  -920.708573062     A.U. after    9 cycles
 SCF Done:  E(RwB97XD) =  -920.708573132     A.U. after    9 cycles
 SCF Done:  E(RwB97XD) =  -920.708573969     A.U. after    8 cycles
 Optimization completed on the basis of negligible forces.
    -- Stationary point found.
 Normal termination of Gaussian 16 at Sun Feb 14 00:00:35 2021.

 ---------------------------------------------------------------------
 #N Geom=AllCheck Guess=TCheck SCRF=Check GenChk RwB97XD/def2TZVP Freq
 ---------------------------------------------------------------------

 Structure from the checkpoint file:  "/beegfs/scratch/user/q/tla25/Gau-800.chk"
 ------------------------
 1_iteration/TS-478-1.out
 ------------------------
 Charge =  0 Multiplicity = 1

                         Standard orientation:
 ---------------------------------------------------------------------
 Center     Atomic      Atomic             Coordinates (Angstroms)
 Number     Number       Type             X           Y           Z
 ---------------------------------------------------------------------
      1          6           0       -0.086957    0.717058    0.276103
      2          6           0        1.236072    0.488989   -0.248598
      3          8           0        1.792919    1.238486   -1.062579
      4          6           0       -1.012923   -0.294622    0.578830
      5          6           0       -2.570761   -2.154106   -0.924096
      6          1           0       -2.736004   -2.582584   -1.912409
      7          1           0       -2.100627   -2.900628   -0.284963
      8          1           0       -3.528912   -1.870496   -0.496155
      9          7           0       -1.701925   -0.976327   -0.994133
     10          1           0       -0.859101   -1.175655   -1.521102
     11          1           0       -2.163305   -0.197107   -1.450975
     12          6           0       -2.267203   -0.002759    1.359722
     13          1           0       -1.982674    0.371943    2.343910
     14          1           0       -2.876138    0.759491    0.875162
     15          1           0       -2.866821   -0.899949    1.503161
     16          1           0       -0.547438   -1.228663    0.873201
     17         17           0       -0.754165    2.321963   -0.071855
     18          7           0        1.889161   -0.662271    0.168117
     19          6           0        1.815023   -1.174363    1.522646
     20          6           0        3.087434   -1.046525   -0.545165
     21          1           0        1.167436   -0.547169    2.130455
     22          1           0        1.442366   -2.203122    1.551828
     23          1           0        2.812935   -1.167505    1.972633
     24          1           0        2.976393   -0.837464   -1.605996
     25          1           0        3.976048   -0.516655   -0.180573
     26          1           0        3.248542   -2.117550   -0.410561
 ---------------------------------------------------------------------

 SCF Done:  E(RwB97XD) =  -920.708573969     A.U. after    1 cycles

 The electronic state is 1-A.
 Alpha  occ. eigenvalues -- -101.67447 -19.19201 -14.49215 -14.44320 -10.36846
 Alpha  occ. eigenvalues --  -10.34293 -10.32193 -10.30475 -10.29881 -10.29058
 Alpha  occ. eigenvalues --  -10.28103  -9.55972  -7.30569  -7.29784  -7.29765
 Alpha  occ. eigenvalues --   -1.11940  -1.04688  -1.01827  -0.94848  -0.87444
 Alpha  occ. eigenvalues --   -0.81896  -0.80355  -0.79378  -0.75244  -0.68112
 Alpha  occ. eigenvalues --   -0.63936  -0.61909  -0.59744  -0.56692  -0.56024
 Alpha  occ. eigenvalues --   -0.55243  -0.54273  -0.51260  -0.50538  -0.49569
 Alpha  occ. eigenvalues --   -0.48605  -0.48179  -0.47601  -0.46886  -0.46361
 Alpha  occ. eigenvalues --   -0.45001  -0.43914  -0.42532  -0.40342  -0.38013
 Alpha  occ. eigenvalues --   -0.33652  -0.30958  -0.25659
 Alpha virt. eigenvalues --    0.07365   0.09396   0.12302   0.12467   0.13725
 Alpha virt. eigenvalues --    0.14030   0.15023   0.15857   0.17246   0.17778
 Alpha virt. eigenvalues --    0.18826   0.19244   0.19548   0.19943   0.20561

 Mulliken charges:
               1
     1  C   -0.128369
     2  C    0.209467
     3  O   -0.539093
     4  C   -0.101639
     5  C   -0.300131
     6  H    0.159599
     7  H    0.155824
     8  H    0.164087
     9  N   -0.285758
    10  H    0.287571
    11  H    0.285013
    12  C   -0.356691
    13  H    0.144449
    14  H    0.139088
    15  H    0.145026
    16  H    0.167302
    17  Cl  -0.219438
    18  N   -0.139157
    19  C   -0.319201
    20  C   -0.292979
    21  H    0.157760
    22  H    0.141873
    23  H    0.134734
    24  H    0.133720
    25  H    0.121819
    26  H    0.135125
 Sum of Mulliken charges =  -0.00000

 Dipole moment (field-independent basis, Debye):
    X=             -6.5365    Y=            -10.2781    Z=              0.5860  Tot=             12.1947
 Quadrupole moment (field-independent basis, Debye-Ang):
   XX=            -66.4699   YY=            -80.0019   ZZ=            -72.1404
   XY=             -0.5259   XZ=              9.7981   YZ=              5.8135

  Exact polarizability: 184.974   7.218 170.104  -1.067  -4.578 140.666
 Approx polarizability: 138.306   4.249 139.255  -1.788  -5.391 120.864

 ******    1 imaginary frequencies (negative Signs) ******

                      1                      2                      3
                      A                      A                      A
 Frequencies --   -345.9502                45.6605                67.1875
 Red. masses --      6.0944                 3.3888                 1.9394
 Frc consts  --      0.4297                 0.0042                 0.0052
 IR Inten    --    862.9091                 1.7988                 6.1655

                      4                      5                      6
                      A                      A                      A
 Frequencies --     72.8958               101.7128               111.0149
 Red. masses --      3.3456                 4.3280                 4.4627
 Frc consts  --      0.0105                 0.0264                 0.0324
 IR Inten    --      4.7005                 8.6480                 6.7318

                      7                      8                      9
                      A                      A                      A
 Frequencies --    131.6299               168.4601               181.4782
 Red. masses --      1.8737                 1.2471                 1.4562
 Frc consts  --      0.0191                 0.0209                 0.0283
 IR Inten    --      6.4695                 1.8568                 3.9433

                     10                     11                     12
                      A                      A                      A
 Frequencies --    201.6284               224.2312               240.8341
 Red. masses --      1.9665                 2.1631                 2.3699
 Frc consts  --      0.0471                 0.0641                 0.0810
 IR Inten    --      1.7616                43.0698                 2.0352

                     13                     14                     15
                      A                      A                      A
 Frequencies --    257.2094               271.1637               319.6016
 Red. masses --      1.5296                 1.6895                 3.9624
 Frc consts  --      0.0596                 0.0732                 0.2385
 IR Inten    --      3.5315                23.6248                 5.5845

                     16                     17                     18
                      A                      A                      A
 Frequencies --    342.0027               388.7389               426.7021
 Red. masses --      2.5828                 2.9607                 3.2337
 Frc consts  --      0.1780                 0.2636                 0.3469
 IR Inten    --      3.2504                15.9677                 7.0118

                     19                     20                     21
                      A                      A                      A
 Frequencies --    477.0162               520.4147               607.2258
 Red. masses --      4.0735                 4.4725                 3.4098
 Frc consts  --      0.5461                 0.7137                 0.7408
 IR Inten    --     79.1197                81.5934                 7.8521

                     22                     23                     24
                      A                      A                      A
 Frequencies --    682.7752               707.2208               789.2009
 Red. masses --      5.3728                 1.3780                 9.1743
 Frc consts  --      1.4757                 0.4061                 3.3666
 IR Inten    --     30.3232                30.0395                46.5417

                     25                     26                     27
                      A                      A                      A
 Frequencies --    853.4985               964.8798              1009.8449
 Red. masses --      4.3919                 1.6699                 1.2170
 Frc consts  --      1.8850                 0.9160                 0.7312
 IR Inten    --     53.2414                68.3240                 4.7522

                     28                     29                     30
                      A                      A                      A
 Frequencies --   1030.1330              1052.3468              1072.7797
 Red. masses --      1.8185                 1.7459                 1.6994
 Frc consts  --      1.1370                 1.1392                 1.1523
 IR Inten    --     70.8248                33.7467                89.7874

                     31                     32                     33
                      A                      A                      A
 Frequencies --   1088.0955              1093.4036              1136.0159
 Red. masses --      1.7373                 1.3974                 1.2966
 Frc consts  --      1.2119                 0.9843                 0.9859
 IR Inten    --    238.3761                19.9826                 6.4003

                     34                     35                     36
                      A                      A                      A
 Frequencies --   1141.0307              1166.9365              1215.8581
 Red. masses --      2.1566                 1.3892                 1.1786
 Frc consts  --      1.6543                 1.1146                 1.0266
 IR Inten    --     44.0683                17.3466               136.0425

                     37                     38                     39
                      A                      A                      A
 Frequencies --   1245.6426              1253.6683              1275.5520
 Red. masses --      1.8952                 2.1668                 1.5831
 Frc consts  --      1.7326                 2.0065                 1.5176
 IR Inten    --     74.7345                65.4205                46.7198

                     40                     41                     42
                      A                      A                      A
 Frequencies --   1311.3578              1350.3276              1399.5678
 Red. masses --      3.4280                 1.2859                 2.5884
 Frc consts  --      3.4732                 1.3814                 2.9872
 IR Inten    --     71.6477                 2.0200               423.8842

                     43                     44                     45
                      A                      A                      A
 Frequencies --   1412.7566              1446.7483              1452.6584
 Red. masses --      1.3421                 1.1630                 1.5798
 Frc consts  --      1.5782                 1.4342                 1.9642
 IR Inten    --     53.0172                20.3842               164.0663

                     46                     47                     48
                      A                      A                      A
 Frequencies --   1470.1869              1475.1996              1485.8693
 Red. masses --      1.3525                 1.1413                 1.1088
 Frc consts  --      1.7224                 1.4633                 1.4424
 IR Inten    --     53.4474                60.6524                19.2358

                     49                     50                     51
                      A                      A                      A
 Frequencies --   1488.7757              1491.2596              1498.0256
 Red. masses --      1.0779                 1.1787                 1.0738
 Frc consts  --      1.4077                 1.5444                 1.4198
 IR Inten    --      4.3359                95.1071                44.4672

                     52                     53                     54
                      A                      A                      A
 Frequencies --   1503.0939              1506.9292              1511.6293
 Red. masses --      1.0799                 1.0519                 1.0695
 Frc consts  --      1.4375                 1.4074                 1.4398
 IR Inten    --     12.9379                25.8658                16.4748

                     55                     56                     57
                      A                      A                      A
 Frequencies --   1528.7794              1624.8303              1648.0299
 Red. masses --      1.1864                 9.7783                 1.0846
 Frc consts  --      1.6337                15.2100                 1.7357
 IR Inten    --    142.3753               860.7384                46.2062

                     58                     59                     60
                      A                      A                      A
 Frequencies --   3011.1837              3020.9033              3069.2437
 Red. masses --      1.0496                 1.0397                 1.1029
 Frc consts  --      5.6075                 5.5903                 6.1213
 IR Inten    --    113.6199               123.2481                76.8166

                     61                     62                     63
                      A                      A                      A
 Frequencies --   3071.5411              3072.4386              3094.6936
 Red. masses --      1.0361                 1.0347                 1.0889
 Frc consts  --      5.7592                 5.7547                 6.1445
 IR Inten    --     13.8830                39.0416                42.7031

                     64                     65                     66
                      A                      A                      A
 Frequencies --   3144.3683              3148.8588              3157.0610
 Red. masses --      1.1010                 1.1059                 1.1016
 Frc consts  --      6.4135                 6.4604                 6.4691
 IR Inten    --     21.5721                13.7823                13.3224

                     67                     68                     69
                      A                      A                      A
 Frequencies --   3159.0581              3164.6223              3176.8052
 Red. masses --      1.0981                 1.0995                 1.1039
 Frc consts  --      6.4569                 6.4874                 6.5638
 IR Inten    --     18.5740                18.6062                13.0869

                     70                     71                     72
                      A                      A                      A
 Frequencies --   3184.8005              3521.1901              3598.8482
 Red. masses --      1.0902                 1.0514                 1.0963
 Frc consts  --      6.5153                 7.6807                 8.3660
 IR Inten    --     14.2927                22.0034                49.6473

 - Thermochemistry -
 -------------------
 Temperature   298.150 Kelvin.  Pressure   1.00000 Atm.
 Atom     1 has atomic number  6 and mass  12.00000

 Molecular mass:   178.08729 amu.
 Principal axes and moments of inertia in atomic units:
                           1         2         3
     Eigenvalues --  1766.033462566.812683380.16034
           X            0.99972   0.02226   0.00759
           Y           -0.02236   0.99966   0.01358
           Z           -0.00728  -0.01374   0.99988
 This molecule is an asymmetric top.
 Rotational symmetry number  1.
 Warning -- assumption of classical behavior for rotation
           may cause significant error
 Rotational temperatures (Kelvin)      0.04904     0.03374     0.02562
 Rotational constants (GHZ):           1.02192     0.70311     0.53392
    1 imaginary frequencies ignored.
 Zero-point vibrational energy     586991.6 (Joules/Mol)
                                  140.29436 (Kcal/Mol)
 Warning -- explicit consideration of  20 degrees of freedom as
           vibrations may cause significant error
 Vibrational temperatures:     65.70    96.67   104.88   146.34   159.73
          (Kelvin)            189.39   242.38   261.11   290.10   322.62
                              346.51   370.07   390.14   459.84   492.07
                              559.31   613.93   686.32   748.76   873.66
                              982.36  1017.53  1135.48  1227.99  1388.25
                             1452.94  1482.13  1514.09  1543.49  1565.53
                             1573.16  1634.47  1641.69  1678.96  1749.35
                             1792.20  1803.75  1835.23  1886.75  1942.82
                             2013.67  2032.64  2081.55  2090.05  2115.27
                             2122.48  2137.83  2142.02  2145.59  2155.32
                             2162.62  2168.14  2174.90  2199.57  2337.77
                             2371.15  4332.42  4346.41  4415.96  4419.26
                             4420.55  4452.57  4524.04  4530.51  4542.31
                             4545.18  4553.19  4570.71  4582.22  5066.21
                             5177.94

 Zero-point correction=                           0.223573 (Hartree/Particle)
 Thermal correction to Energy=                    0.237469
 Thermal correction to Enthalpy=                  0.238413
 Thermal correction to Gibbs Free Energy=         0.182551
 Sum of electronic and zero-point Energies=           -920.485001
 Sum of electronic and thermal Energies=              -920.471105
 Sum of electronic and thermal Enthalpies=            -920.470161
 Sum of electronic and thermal Free Energies=         -920.526023

                     E (Thermal)             CV                S
                      KCal/Mol        Cal/Mol-Kelvin    Cal/Mol-Kelvin
 Total                  149.014             48.170            117.572
 Electronic               0.000              0.000              0.000
 Translational            0.889              2.981             41.438
 Rotational               0.889              2.981             31.105
 Vibrational            147.236             42.208             45.028
 Vibration     1          0.595              1.979              4.997
 Vibration     2          0.598              1.970              4.234
 Vibration     3          0.599              1.967              4.074
 Vibration     4          0.604              1.948              3.421
 Vibration     5          0.607              1.940              3.251
 Vibration     6          0.612              1.922              2.922
 Vibration     7          0.625              1.881              2.453
 Vibration     8          0.630              1.865              2.313
 Vibration     9          0.639              1.838              2.118
 Vibration    10          0.649              1.804              1.925
 Vibration    11          0.658              1.778              1.797
 Vibration    12          0.667              1.751              1.681
 Vibration    13          0.675              1.726              1.589
 Vibration    14          0.706              1.636              1.312
 Vibration    15          0.721              1.592              1.203
 Vibration    16          0.757              1.494              1.005
 Vibration    17          0.788              1.412              0.869
 Vibration    18          0.834              1.301              0.718
 Vibration    19          0.875              1.205              0.609
 Vibration    20          0.966              1.016              0.437

 Optimization completed on the basis of negligible forces.
    -- Stationary point found.
 Normal termination of Gaussian 16 at Sun Feb 14 00:24:19 2021.
