 Gaussian 16, Revision A.03,
 Gaussian 16:  ES64L-G16RevA.03 25-Dec-2016

 ----------------------------------------------------------------------
 # wB97XD def2tzvp, opt=(ts, noeigen, calcfc, maxcycles=70, maxstep=5),
  freq=noraman, scrf=(iefpcm, solvent=water)
 ----------------------------------------------------------------------

 ------------------------
 2_iteration/TS-447-2.out
 ------------------------
 Symbolic Z-matrix:
 Charge =  0 Multiplicity = 1

 SCF Done:  E(RwB97XD) =  -844.596653800     A.U. after   14 cycles
 Optimization completed.
    -- Stationary point found.
 Normal termination of Gaussian 16 at Sun Feb 14 16:02:39 2021.

 ---------------------------------------------------------------------
 #N Geom=AllCheck Guess=TCheck SCRF=Check GenChk RwB97XD/def2TZVP Freq
 ---------------------------------------------------------------------

 Structure from the checkpoint file:  "/beegfs/scratch/user/q/tla25/Gau-121783.chk"
 ------------------------
 2_iteration/TS-447-2.out
 ------------------------
 Charge =  0 Multiplicity = 1

                         Standard orientation:
 ---------------------------------------------------------------------
 Center     Atomic      Atomic             Coordinates (Angstroms)
 Number     Number       Type             X           Y           Z
 ---------------------------------------------------------------------
      1          6           0        1.159210   -0.398319   -0.513209
      2          6           0       -0.192990   -0.874599   -0.464469
      3          8           0       -0.493040   -2.082279   -0.465559
      4          6           0        2.145420   -1.381269   -0.701329
      5          6           0        3.047400   -3.605869    0.950671
      6          1           0        2.823350   -4.217819    1.825811
      7          1           0        2.833320   -4.185469    0.052401
      8          1           0        4.105220   -3.351748    0.960441
      9          7           0        2.251030   -2.383189    0.921411
     10          1           0        1.257960   -2.578089    1.002901
     11          1           0        2.513470   -1.730289    1.649611
     12          6           0        3.583820   -1.026229   -0.943259
     13          1           0        3.685660   -0.601799   -1.943519
     14          1           0        3.943980   -0.285268   -0.229309
     15          1           0        4.222220   -1.907168   -0.894819
     16          1           0        1.811320   -2.261209   -1.242229
     17          6           0        1.504580    0.999931   -0.144799
     18          6           0        2.121970    1.864601   -1.052009
     19          6           0        2.452750    3.165581   -0.701249
     20          6           0        2.157180    3.643161    0.567621
     21          6           0        1.533220    2.805861    1.481971
     22          6           0        1.218760    1.501901    1.129491
     23          1           0        2.339380    1.508051   -2.051599
     24          1           0        2.933550    3.811841   -1.425499
     25          1           0        2.408339    4.660321    0.840911
     26          1           0        1.298600    3.166211    2.476171
     27          1           0        0.740080    0.851841    1.853181
     28          7           0       -1.179470    0.100781   -0.422949
     29          6           0       -2.550520   -0.014449   -0.215759
     30          6           0       -3.226730   -1.228819   -0.069559
     31          6           0       -4.598750   -1.235039    0.140731
     32          6           0       -5.325610   -0.056509    0.206721
     33          6           0       -4.655180    1.151061    0.058701
     34          6           0       -3.288520    1.174301   -0.148619
     35          1           0       -0.839880    1.046891   -0.471869
     36          1           0       -2.671990   -2.150849   -0.124689
     37          1           0       -5.104080   -2.186899    0.252621
     38          1           0       -6.395410   -0.075990    0.368861
     39          1           0       -5.199550    2.086201    0.106021
     40          1           0       -2.778190    2.124531   -0.260109
 ---------------------------------------------------------------------

 SCF Done:  E(RwB97XD) =  -844.596653800     A.U. after    1 cycles

 The electronic state is 1-A.
 Alpha  occ. eigenvalues --  -19.19677 -14.47276 -14.45465 -10.37255 -10.33479
 Alpha  occ. eigenvalues --  -10.33080 -10.31528 -10.29537 -10.28824 -10.28714
 Alpha  occ. eigenvalues --  -10.28688 -10.28662 -10.28587 -10.28491 -10.28428
 Alpha  occ. eigenvalues --  -10.28355 -10.27928 -10.27784 -10.27770 -10.24872
 Alpha  occ. eigenvalues --   -1.12251  -1.03281  -1.02850  -0.96453  -0.94988
 Alpha  occ. eigenvalues --   -0.90403  -0.85446  -0.84787  -0.84568  -0.84024
 Alpha  occ. eigenvalues --   -0.79717  -0.78239  -0.72943  -0.70978  -0.70121
 Alpha  occ. eigenvalues --   -0.69818  -0.66940  -0.63906  -0.62825  -0.61832
 Alpha  occ. eigenvalues --   -0.60721  -0.58458  -0.57024  -0.56050  -0.55135
 Alpha  occ. eigenvalues --   -0.53720  -0.53419  -0.53156  -0.52073  -0.51527
 Alpha  occ. eigenvalues --   -0.51066  -0.50434  -0.50312  -0.49018  -0.48890
 Alpha  occ. eigenvalues --   -0.47841  -0.46467  -0.46104  -0.45711  -0.45339
 Alpha  occ. eigenvalues --   -0.44310  -0.42495  -0.42455  -0.41598  -0.40765
 Alpha  occ. eigenvalues --   -0.38935  -0.34699  -0.33547  -0.33447  -0.32248
 Alpha  occ. eigenvalues --   -0.29878  -0.25347
 Alpha virt. eigenvalues --    0.04646   0.05089   0.05607   0.05787   0.09457
 Alpha virt. eigenvalues --    0.09991   0.12510   0.13199   0.13589   0.14058
 Alpha virt. eigenvalues --    0.14668   0.15299   0.16532   0.16747   0.17175

 Mulliken charges:
               1
     1  C   -0.197443
     2  C    0.392951
     3  O   -0.585066
     4  C   -0.030550
     5  C   -0.296408
     6  H    0.150780
     7  H    0.149526
     8  H    0.155197
     9  N   -0.315318
    10  H    0.274577
    11  H    0.274269
    12  C   -0.353562
    13  H    0.142432
    14  H    0.143447
    15  H    0.142462
    16  H    0.139312
    17  C    0.074245
    18  C   -0.227222
    19  C   -0.151187
    20  C   -0.148076
    21  C   -0.123770
    22  C   -0.275315
    23  H    0.144446
    24  H    0.138222
    25  H    0.141793
    26  H    0.139683
    27  H    0.138212
    28  N   -0.260291
    29  C    0.302734
    30  C   -0.305630
    31  C   -0.110218
    32  C   -0.205272
    33  C   -0.096497
    34  C   -0.324964
    35  H    0.248914
    36  H    0.156263
    37  H    0.138802
    38  H    0.138405
    39  H    0.141136
    40  H    0.138979
 Sum of Mulliken charges =  -0.00000

 Dipole moment (field-independent basis, Debye):
    X=              7.0087    Y=             -0.5215    Z=              3.3111  Tot=              7.7690
 Quadrupole moment (field-independent basis, Debye-Ang):
   XX=           -106.7264   YY=           -104.7035   ZZ=           -116.4709
   XY=            -16.0914   XZ=              0.9379   YZ=             -7.5554

  Exact polarizability: 367.717  -4.665 347.859 -19.695  -3.643 236.751
 Approx polarizability: 264.583   3.458 275.966 -16.869  -1.750 207.199

 ******    1 imaginary frequencies (negative Signs) ******

                      1                      2                      3
                      A                      A                      A
 Frequencies --   -386.3756                26.2282                28.3405
 Red. masses --      6.0929                 3.8375                 4.3170
 Frc consts  --      0.5359                 0.0016                 0.0020
 IR Inten    --   1112.9396                 0.8468                 2.5617

                      4                      5                      6
                      A                      A                      A
 Frequencies --     42.8191                44.6868                49.6778
 Red. masses --      4.0199                 3.7449                 4.7259
 Frc consts  --      0.0043                 0.0044                 0.0069
 IR Inten    --      1.3951                 5.5550                 3.0025

                      7                      8                      9
                      A                      A                      A
 Frequencies --     83.8847                93.3127               104.7634
 Red. masses --      2.5617                 3.7502                 3.2645
 Frc consts  --      0.0106                 0.0192                 0.0211
 IR Inten    --      1.4138                 9.8196                31.3873

                     10                     11                     12
                      A                      A                      A
 Frequencies --    126.9135               169.5227               181.4726
 Red. masses --      4.2369                 1.6042                 2.2042
 Frc consts  --      0.0402                 0.0272                 0.0428
 IR Inten    --      3.9125                 5.5621                 5.2246

                     13                     14                     15
                      A                      A                      A
 Frequencies --    214.9144               230.1021               242.8977
 Red. masses --      2.7275                 3.1390                 1.3326
 Frc consts  --      0.0742                 0.0979                 0.0463
 IR Inten    --      9.5240                 0.7007                 3.9521

                     16                     17                     18
                      A                      A                      A
 Frequencies --    248.9256               268.0852               324.2810
 Red. masses --      4.0523                 3.7479                 3.0927
 Frc consts  --      0.1479                 0.1587                 0.1916
 IR Inten    --      0.8454                55.8444                28.8963

                     19                     20                     21
                      A                      A                      A
 Frequencies --    345.8630               379.2445               419.1866
 Red. masses --      3.3830                 5.0187                 5.3437
 Frc consts  --      0.2384                 0.4253                 0.5532
 IR Inten    --      1.5428                 3.7700                15.9716

                     22                     23                     24
                      A                      A                      A
 Frequencies --    425.1404               426.3851               486.1018
 Red. masses --      3.0110                 2.9421                 3.3704
 Frc consts  --      0.3207                 0.3151                 0.4692
 IR Inten    --      0.0573                 0.8533                14.1934

                     25                     26                     27
                      A                      A                      A
 Frequencies --    513.1501               531.3739               579.6207
 Red. masses --      4.2746                 3.0717                 1.2133
 Frc consts  --      0.6632                 0.5110                 0.2402
 IR Inten    --     38.0709                44.5433               104.0617

                     28                     29                     30
                      A                      A                      A
 Frequencies --    583.3784               625.0137               636.9900
 Red. masses --      3.5360                 4.0518                 6.0730
 Frc consts  --      0.7090                 0.9326                 1.4518
 IR Inten    --     49.6967                 9.6802                 0.1073

                     31                     32                     33
                      A                      A                      A
 Frequencies --    640.4137               667.8997               710.6992
 Red. masses --      4.7425                 1.6819                 3.5696
 Frc consts  --      1.1460                 0.4421                 1.0623
 IR Inten    --      5.1524                54.9839                 0.6296

                     34                     35                     36
                      A                      A                      A
 Frequencies --    719.6406               731.1801               781.6658
 Red. masses --      1.9054                 1.4953                 1.8177
 Frc consts  --      0.5814                 0.4710                 0.6544
 IR Inten    --     62.7613                95.1554                75.2186

                     37                     38                     39
                      A                      A                      A
 Frequencies --    785.3078               802.8848               827.7020
 Red. masses --      7.3617                 2.6444                 5.0995
 Frc consts  --      2.6749                 1.0044                 2.0584
 IR Inten    --     82.8201                36.8212                 2.7495

                     40                     41                     42
                      A                      A                      A
 Frequencies --    861.8016               871.4762               881.9116
 Red. masses --      1.2645                 4.8674                 1.2731
 Frc consts  --      0.5533                 2.1780                 0.5834
 IR Inten    --      0.1732                 1.7572                 0.9581

                     43                     44                     45
                      A                      A                      A
 Frequencies --    928.6206               954.4308               967.6772
 Red. masses --      1.4712                 1.4617                 1.5763
 Frc consts  --      0.7475                 0.7845                 0.8697
 IR Inten    --     14.3480                11.8831                42.7576

                     46                     47                     48
                      A                      A                      A
 Frequencies --    999.5807              1005.9769              1013.6938
 Red. masses --      1.3384                 1.3412                 1.2754
 Frc consts  --      0.7879                 0.7997                 0.7722
 IR Inten    --      0.0423                19.7104                 0.8687

                     49                     50                     51
                      A                      A                      A
 Frequencies --   1015.4323              1017.2781              1023.5449
 Red. masses --      1.4045                 4.2378                 2.4400
 Frc consts  --      0.8532                 2.5839                 1.5061
 IR Inten    --      1.4882                20.3112                28.3183

                     52                     53                     54
                      A                      A                      A
 Frequencies --   1026.4669              1028.2152              1043.6910
 Red. masses --      3.5926                 1.4145                 1.1988
 Frc consts  --      2.2302                 0.8811                 0.7694
 IR Inten    --      9.2424                 0.8793                76.1336

                     55                     56                     57
                      A                      A                      A
 Frequencies --   1057.6298              1062.7404              1073.3476
 Red. masses --      2.0977                 2.0274                 1.9959
 Frc consts  --      1.3825                 1.3491                 1.3548
 IR Inten    --     35.6579                27.1703               109.2335

                     58                     59                     60
                      A                      A                      A
 Frequencies --   1075.6411              1108.9153              1119.3768
 Red. masses --      3.7451                 1.5644                 1.5513
 Frc consts  --      2.5530                 1.1334                 1.1453
 IR Inten    --    285.3489                16.4782                30.0211

                     61                     62                     63
                      A                      A                      A
 Frequencies --   1139.7517              1179.8016              1181.3177
 Red. masses --      2.3695                 1.1225                 1.1325
 Frc consts  --      1.8136                 0.9206                 0.9312
 IR Inten    --     51.3957                 4.9786                 2.2312

                     64                     65                     66
                      A                      A                      A
 Frequencies --   1197.8594              1203.8941              1206.8657
 Red. masses --      1.8090                 1.2400                 1.1567
 Frc consts  --      1.5293                 1.0589                 0.9926
 IR Inten    --      5.0475               251.7418                22.0269

                     67                     68                     69
                      A                      A                      A
 Frequencies --   1208.0028              1222.9635              1276.5812
 Red. masses --      1.1397                 1.5234                 2.2654
 Frc consts  --      0.9799                 1.3425                 2.1752
 IR Inten    --     18.4531               152.9039               399.1220

                     70                     71                     72
                      A                      A                      A
 Frequencies --   1302.4969              1311.9020              1344.3691
 Red. masses --      3.9470                 3.0896                 2.6363
 Frc consts  --      3.9452                 3.1329                 2.8073
 IR Inten    --     53.7877               142.3660               547.7172

                     73                     74                     75
                      A                      A                      A
 Frequencies --   1350.7919              1357.4562              1360.0767
 Red. masses --      1.3905                 1.4890                 1.7573
 Frc consts  --      1.4949                 1.6166                 1.9153
 IR Inten    --     60.4696                 7.3052                 2.2087

                     76                     77                     78
                      A                      A                      A
 Frequencies --   1385.3372              1411.3643              1451.9947
 Red. masses --      2.4459                 1.3750                 1.5321
 Frc consts  --      2.7656                 1.6137                 1.9031
 IR Inten    --    113.5304                10.3538               218.4233

                     79                     80                     81
                      A                      A                      A
 Frequencies --   1468.6091              1475.2221              1482.2620
 Red. masses --      1.4636                 2.0413                 1.0616
 Frc consts  --      1.8599                 2.6174                 1.3743
 IR Inten    --     79.5299               330.4032                 5.9662

                     82                     83                     84
                      A                      A                      A
 Frequencies --   1485.8485              1492.1387              1499.2138
 Red. masses --      1.8891                 1.0981                 1.2831
 Frc consts  --      2.4573                 1.4405                 1.6991
 IR Inten    --      9.2776                37.6711               238.6910

                     85                     86                     87
                      A                      A                      A
 Frequencies --   1511.1704              1542.7782              1545.1587
 Red. masses --      1.1033                 2.4493                 2.5592
 Frc consts  --      1.4844                 3.4347                 3.5999
 IR Inten    --     34.9307                33.3011               309.1661

                     88                     89                     90
                      A                      A                      A
 Frequencies --   1563.1208              1638.2628              1643.0721
 Red. masses --      2.1897                 3.7770                 2.1463
 Frc consts  --      3.1522                 5.9726                 3.4139
 IR Inten    --    449.1987               218.1357               127.0752

                     91                     92                     93
                      A                      A                      A
 Frequencies --   1651.0404              1664.0424              1670.0225
 Red. masses --      2.0422                 3.2382                 5.3501
 Frc consts  --      3.2799                 5.2831                 8.7913
 IR Inten    --    224.8139               237.4433                 4.0273

                     94                     95                     96
                      A                      A                      A
 Frequencies --   1676.2144              3060.8762              3065.7518
 Red. masses --      5.8943                 1.0346                 1.0367
 Frc consts  --      9.7575                 5.7109                 5.7407
 IR Inten    --    292.9923                67.4065                20.7519

                     97                     98                     99
                      A                      A                      A
 Frequencies --   3133.1720              3134.7041              3146.1325
 Red. masses --      1.1041                 1.1005                 1.0981
 Frc consts  --      6.3859                 6.3716                 6.4042
 IR Inten    --     19.7940                25.4518                 6.5009

                    100                    101                    102
                      A                      A                      A
 Frequencies --   3159.6625              3163.6631              3183.6578
 Red. masses --      1.0979                 1.1012                 1.0879
 Frc consts  --      6.4577                 6.4941                 6.4969
 IR Inten    --     51.6796                25.2440                16.7543

                    103                    104                    105
                      A                      A                      A
 Frequencies --   3184.4511              3190.0962              3193.5174
 Red. masses --      1.0870                 1.0870                 1.0883
 Frc consts  --      6.4947                 6.5177                 6.5392
 IR Inten    --     10.7241                 1.5456                 4.4955

                    106                    107                    108
                      A                      A                      A
 Frequencies --   3200.2323              3203.8561              3206.8334
 Red. masses --      1.0912                 1.0929                 1.0948
 Frc consts  --      6.5842                 6.6095                 6.6334
 IR Inten    --     13.6181                31.4107                50.2207

                    109                    110                    111
                      A                      A                      A
 Frequencies --   3218.3915              3220.1955              3268.7348
 Red. masses --      1.0987                 1.0978                 1.0924
 Frc consts  --      6.7052                 6.7069                 6.8766
 IR Inten    --     20.3983                24.9253                 6.3900

                    112                    113                    114
                      A                      A                      A
 Frequencies --   3505.6170              3600.9902              3637.9652
 Red. masses --      1.0533                 1.0949                 1.0761
 Frc consts  --      7.6268                 8.3648                 8.3914
 IR Inten    --     28.9485                57.1897                80.6281

 - Thermochemistry -
 -------------------
 Temperature   298.150 Kelvin.  Pressure   1.00000 Atm.
 Atom     1 has atomic number  6 and mass  12.00000

 Molecular mass:   268.15756 amu.
 Principal axes and moments of inertia in atomic units:
                           1         2         3
     Eigenvalues --  4137.160808025.84630**********
           X            0.99961  -0.02780  -0.00212
           Y            0.02779   0.99958  -0.00823
           Z            0.00235   0.00817   0.99996
 This molecule is an asymmetric top.
 Rotational symmetry number  1.
 Warning -- assumption of classical behavior for rotation
           may cause significant error
 Rotational temperatures (Kelvin)      0.02094     0.01079     0.00780
 Rotational constants (GHZ):           0.43623     0.22487     0.16261
    1 imaginary frequencies ignored.
 Zero-point vibrational energy     891317.3 (Joules/Mol)
                                  213.02996 (Kcal/Mol)
 Warning -- explicit consideration of  27 degrees of freedom as
           vibrations may cause significant error
 Vibrational temperatures:     37.74    40.78    61.61    64.29    71.48
          (Kelvin)            120.69   134.26   150.73   182.60   243.91
                              261.10   309.21   331.07   349.48   358.15
                              385.71   466.57   497.62   545.65   603.12
                              611.68   613.47   699.39   738.31   764.53
                              833.94   839.35   899.26   916.49   921.41
                              960.96  1022.54  1035.40  1052.01  1124.64
                             1129.88  1155.17  1190.88  1239.94  1253.86
                             1268.87  1336.08  1373.21  1392.27  1438.17
                             1447.38  1458.48  1460.98  1463.64  1472.65
                             1476.86  1479.37  1501.64  1521.69  1529.05
                             1544.31  1547.61  1595.48  1610.53  1639.85
                             1697.47  1699.65  1723.45  1732.14  1736.41
                             1738.05  1759.57  1836.72  1874.00  1887.53
                             1934.25  1943.49  1953.08  1956.85  1993.19
                             2030.64  2089.10  2113.00  2122.52  2132.64
                             2137.80  2146.85  2157.03  2174.24  2219.71
                             2223.14  2248.98  2357.09  2364.01  2375.48
                             2394.19  2402.79  2411.70  4403.92  4410.93
                             4507.94  4510.14  4526.58  4546.05  4551.81
                             4580.57  4581.71  4589.84  4594.76  4604.42
                             4609.63  4613.92  4630.55  4633.14  4702.98
                             5043.80  5181.02  5234.22

 Zero-point correction=                           0.339485 (Hartree/Particle)
 Thermal correction to Energy=                    0.358437
 Thermal correction to Enthalpy=                  0.359381
 Thermal correction to Gibbs Free Energy=         0.289817
 Sum of electronic and zero-point Energies=           -844.257169
 Sum of electronic and thermal Energies=              -844.238217
 Sum of electronic and thermal Enthalpies=            -844.237273
 Sum of electronic and thermal Free Energies=         -844.306836

                     E (Thermal)             CV                S
                      KCal/Mol        Cal/Mol-Kelvin    Cal/Mol-Kelvin
 Total                  224.922             71.676            146.409
 Electronic               0.000              0.000              0.000
 Translational            0.889              2.981             42.658
 Rotational               0.889              2.981             34.265
 Vibrational            223.145             65.715             69.485
 Vibration     1          0.593              1.985              6.096
 Vibration     2          0.593              1.984              5.942
 Vibration     3          0.595              1.980              5.124
 Vibration     4          0.595              1.980              5.040
 Vibration     5          0.595              1.978              4.830
 Vibration     6          0.601              1.960              3.798
 Vibration     7          0.602              1.954              3.589
 Vibration     8          0.605              1.945              3.364
 Vibration     9          0.611              1.926              2.992
 Vibration    10          0.625              1.880              2.441
 Vibration    11          0.630              1.865              2.313
 Vibration    12          0.645              1.818              2.002
 Vibration    13          0.652              1.795              1.878
 Vibration    14          0.659              1.774              1.782
 Vibration    15          0.662              1.765              1.738
 Vibration    16          0.673              1.732              1.609
 Vibration    17          0.709              1.627              1.288
 Vibration    18          0.724              1.584              1.185
 Vibration    19          0.749              1.514              1.042
 Vibration    20          0.782              1.429              0.895
 Vibration    21          0.787              1.416              0.875
 Vibration    22          0.788              1.413              0.871
 Vibration    23          0.842              1.281              0.694
 Vibration    24          0.868              1.221              0.626
 Vibration    25          0.886              1.181              0.584
 Vibration    26          0.936              1.075              0.486
 Vibration    27          0.940              1.067              0.479

 Optimization completed.
    -- Stationary point found.
 Normal termination of Gaussian 16 at Sun Feb 14 18:14:03 2021.
