 Gaussian 16, Revision A.03,
 Gaussian 16:  ES64L-G16RevA.03 25-Dec-2016

 ----------------------------------------------------------------------
 # wB97XD def2tzvp, opt=(ts, noeigen, calcfc, maxcycles=70, maxstep=5),
  freq=noraman, scrf=(iefpcm, solvent=water)
 ----------------------------------------------------------------------

 ------------------------
 2_iteration/TS-437-2.out
 ------------------------
 Symbolic Z-matrix:
 Charge =  0 Multiplicity = 1

 SCF Done:  E(RwB97XD) =  -1112.45959808     A.U. after   14 cycles
 SCF Done:  E(RwB97XD) =  -1112.45962069     A.U. after   11 cycles
 SCF Done:  E(RwB97XD) =  -1112.45962185     A.U. after   10 cycles
 SCF Done:  E(RwB97XD) =  -1112.45962190     A.U. after    7 cycles
 Optimization completed.
    -- Stationary point found.
 Normal termination of Gaussian 16 at Tue Mar 30 10:07:14 2021.

 ---------------------------------------------------------------------
 #N Geom=AllCheck Guess=TCheck SCRF=Check GenChk RwB97XD/def2TZVP Freq
 ---------------------------------------------------------------------

 Structure from the checkpoint file:  "/beegfs/scratch/user/q/tla25/Gau-45565.chk"
 ------------------------
 2_iteration/TS-437-2.out
 ------------------------
 Charge =  0 Multiplicity = 1

                         Standard orientation:
 ---------------------------------------------------------------------
 Center     Atomic      Atomic             Coordinates (Angstroms)
 Number     Number       Type             X           Y           Z
 ---------------------------------------------------------------------
      1          6           0        1.017467   -0.214496   -0.515960
      2          6           0        1.414854    0.894916    0.302072
      3          8           0        0.745792    1.233573    1.303970
      4          6           0       -0.184474   -0.921533   -0.285001
      5          6           0        1.133154   -2.326165    1.767589
      6          1           0        1.400905   -2.334982    2.824433
      7          1           0        0.957206   -3.347132    1.435100
      8          1           0        1.961412   -1.900079    1.200324
      9          7           0       -0.052517   -1.515986    1.524932
     10          1           0       -0.885815   -1.947708    1.902776
     11          1           0        0.053837   -0.579435    1.917688
     12          6           0       -0.387613   -2.221573   -1.029239
     13          1           0       -1.273238   -2.739158   -0.665760
     14          1           0       -0.534268   -2.006110   -2.088982
     15          1           0        0.474663   -2.878458   -0.935488
     16          6           0       -1.473154   -0.124431   -0.185954
     17          6           0       -2.627786   -0.659808    0.382647
     18          6           0       -3.819851    0.048031    0.388816
     19          6           0       -3.887437    1.305566   -0.191100
     20          6           0       -2.753329    1.839517   -0.784282
     21          6           0       -1.563340    1.129025   -0.784768
     22          1           0       -2.621741   -1.649820    0.820432
     23          1           0       -4.698921   -0.390809    0.843537
     24          1           0       -4.817707    1.859299   -0.189386
     25          1           0       -2.793119    2.814583   -1.253601
     26          1           0       -0.686329    1.547070   -1.259557
     27         17           0        2.245177   -0.912604   -1.584746
     28          7           0        2.556342    1.566197    0.001248
     29          6           0        3.017148    2.681832    0.789833
     30          1           0        3.042650    1.335999   -0.845131
     31          1           0        4.009508    2.965366    0.444288
     32          1           0        2.356829    3.549032    0.702368
     33          1           0        3.079172    2.411249    1.844702
 ---------------------------------------------------------------------

 SCF Done:  E(RwB97XD) =  -1112.45962190     A.U. after    1 cycles

 The electronic state is 1-A.
 Alpha  occ. eigenvalues -- -101.68460 -19.19731 -14.47519 -14.44067 -10.37209
 Alpha  occ. eigenvalues --  -10.35806 -10.31304 -10.30480 -10.30477 -10.29472
 Alpha  occ. eigenvalues --  -10.29351 -10.29110 -10.29008 -10.28932 -10.28819
 Alpha  occ. eigenvalues --  -10.28291  -9.56986  -7.31591  -7.30805  -7.30763
 Alpha  occ. eigenvalues --   -1.12225  -1.03468  -1.00905  -0.97344  -0.95324
 Alpha  occ. eigenvalues --   -0.89735  -0.85282  -0.83526  -0.81565  -0.78615
 Alpha  occ. eigenvalues --   -0.77570  -0.71388  -0.70348  -0.67574  -0.64804
 Alpha  occ. eigenvalues --   -0.63041  -0.61891  -0.58368  -0.57084  -0.55560
 Alpha  occ. eigenvalues --   -0.55323  -0.53961  -0.53641  -0.53098  -0.51807
 Alpha  occ. eigenvalues --   -0.51009  -0.49989  -0.49338  -0.47763  -0.47672
 Alpha  occ. eigenvalues --   -0.46683  -0.46519  -0.46348  -0.46001  -0.42886
 Alpha  occ. eigenvalues --   -0.42685  -0.41634  -0.40952  -0.39542  -0.34726
 Alpha  occ. eigenvalues --   -0.33832  -0.32938  -0.32364  -0.25812
 Alpha virt. eigenvalues --    0.03136   0.05348   0.07985   0.10400   0.12250
 Alpha virt. eigenvalues --    0.12597   0.13728   0.14325   0.15223   0.15985
 Alpha virt. eigenvalues --    0.16117   0.16467   0.16812   0.17844   0.18828

 Mulliken charges:
               1
     1  C   -0.364820
     2  C    0.385521
     3  O   -0.598222
     4  C    0.295751
     5  C   -0.312774
     6  H    0.154105
     7  H    0.158167
     8  H    0.154422
     9  N   -0.302311
    10  H    0.264417
    11  H    0.277254
    12  C   -0.377088
    13  H    0.144569
    14  H    0.153711
    15  H    0.144863
    16  C    0.183899
    17  C   -0.276315
    18  C   -0.174246
    19  C   -0.142532
    20  C   -0.144780
    21  C   -0.228063
    22  H    0.153532
    23  H    0.142309
    24  H    0.143782
    25  H    0.141129
    26  H    0.162404
    27  Cl  -0.195390
    28  N   -0.327953
    29  C   -0.246291
    30  H    0.245692
    31  H    0.138396
    32  H    0.121908
    33  H    0.124954
 Sum of Mulliken charges =  -0.00000

 Dipole moment (field-independent basis, Debye):
    X=             -1.4006    Y=             -3.9684    Z=              1.8560  Tot=              4.5994
 Quadrupole moment (field-independent basis, Debye-Ang):
   XX=            -92.4795   YY=            -90.9009   ZZ=           -103.5535
   XY=              6.2826   XZ=             -0.7169   YZ=            -13.5558

  Exact polarizability: 273.091   6.135 249.512 -21.343 -15.651 203.100
 Approx polarizability: 212.236   2.950 201.767 -20.420 -12.995 176.751

 ******    1 imaginary frequencies (negative Signs) ******

                      1                      2                      3
                      A                      A                      A
 Frequencies --   -385.8519                37.3172                58.5562
 Red. masses --      5.2857                 2.8415                 3.7410
 Frc consts  --      0.4637                 0.0023                 0.0076
 IR Inten    --    599.8302                14.1195                 2.2139

                      4                      5                      6
                      A                      A                      A
 Frequencies --     72.3301                76.8769                87.7922
 Red. masses --      2.0045                 5.7748                 3.5297
 Frc consts  --      0.0062                 0.0201                 0.0160
 IR Inten    --      1.2695                 6.2632                 2.3578

                      7                      8                      9
                      A                      A                      A
 Frequencies --    110.7140               125.3653               145.8737
 Red. masses --      2.4227                 1.8566                 4.0059
 Frc consts  --      0.0175                 0.0172                 0.0502
 IR Inten    --      4.6331                 2.3454                17.9481

                     10                     11                     12
                      A                      A                      A
 Frequencies --    156.9425               187.4348               212.7720
 Red. masses --      2.8617                 2.2466                 1.5367
 Frc consts  --      0.0415                 0.0465                 0.0410
 IR Inten    --     44.9701                 3.6916                 8.7419

                     13                     14                     15
                      A                      A                      A
 Frequencies --    238.4085               267.3795               278.4000
 Red. masses --      4.5530                 2.0086                 1.8182
 Frc consts  --      0.1525                 0.0846                 0.0830
 IR Inten    --      0.2569                10.0636                10.3256

                     16                     17                     18
                      A                      A                      A
 Frequencies --    287.4322               310.6369               323.8265
 Red. masses --      3.3534                 3.3275                 3.0265
 Frc consts  --      0.1632                 0.1892                 0.1870
 IR Inten    --      7.1446                 9.1193                15.1410

                     19                     20                     21
                      A                      A                      A
 Frequencies --    335.1699               361.7717               389.5529
 Red. masses --      3.0114                 3.7726                 1.4172
 Frc consts  --      0.1993                 0.2909                 0.1267
 IR Inten    --     32.7013                32.8751                59.2186

                     22                     23                     24
                      A                      A                      A
 Frequencies --    423.2301               429.7845               462.8381
 Red. masses --      3.5644                 3.1783                 7.4807
 Frc consts  --      0.3762                 0.3459                 0.9442
 IR Inten    --     25.0532                 3.0503                10.9297

                     25                     26                     27
                      A                      A                      A
 Frequencies --    563.1434               569.1290               628.4456
 Red. masses --      3.1255                 4.1167                 3.9885
 Frc consts  --      0.5840                 0.7856                 0.9281
 IR Inten    --     37.6707               116.5975                18.4689

                     28                     29                     30
                      A                      A                      A
 Frequencies --    639.9356               714.6484               729.1892
 Red. masses --      6.3476                 1.5812                 1.6779
 Frc consts  --      1.5315                 0.4758                 0.5256
 IR Inten    --      2.7085                93.6692                83.3131

                     31                     32                     33
                      A                      A                      A
 Frequencies --    766.3512               782.0844               795.7680
 Red. masses --      3.7751                 7.8167                 2.1192
 Frc consts  --      1.3063                 2.8170                 0.7907
 IR Inten    --      1.4191                50.5672                45.6935

                     34                     35                     36
                      A                      A                      A
 Frequencies --    827.5743               880.7410               962.5069
 Red. masses --      3.3812                 1.2420                 1.4349
 Frc consts  --      1.3644                 0.5676                 0.7832
 IR Inten    --     36.5749                 0.4696                15.4462

                     37                     38                     39
                      A                      A                      A
 Frequencies --    981.0204              1009.3737              1023.7883
 Red. masses --      3.2228                 1.2632                 2.2493
 Frc consts  --      1.8274                 0.7583                 1.3890
 IR Inten    --     10.3070                18.6907                 6.2695

                     40                     41                     42
                      A                      A                      A
 Frequencies --   1027.8446              1031.5242              1034.7101
 Red. masses --      1.8726                 1.4332                 1.7022
 Frc consts  --      1.1656                 0.8985                 1.0738
 IR Inten    --      8.9273                16.6039                56.6232

                     43                     44                     45
                      A                      A                      A
 Frequencies --   1056.8956              1062.9168              1075.0164
 Red. masses --      1.7540                 2.4553                 1.2544
 Frc consts  --      1.1543                 1.6343                 0.8541
 IR Inten    --    122.1272                28.0182                50.6116

                     46                     47                     48
                      A                      A                      A
 Frequencies --   1089.2910              1121.6092              1127.9964
 Red. masses --      3.1038                 1.5890                 2.4038
 Frc consts  --      2.1699                 1.1778                 1.8020
 IR Inten    --      6.5519                14.5040                18.2975

                     49                     50                     51
                      A                      A                      A
 Frequencies --   1156.0078              1167.2319              1184.3461
 Red. masses --      1.2924                 2.2226                 1.1246
 Frc consts  --      1.0176                 1.7841                 0.9294
 IR Inten    --      5.0183                49.8339                 0.0370

                     52                     53                     54
                      A                      A                      A
 Frequencies --   1188.2342              1214.4202              1231.5058
 Red. masses --      2.3374                 1.1509                 1.3570
 Frc consts  --      1.9444                 1.0001                 1.2126
 IR Inten    --     12.0830                10.1379                48.8377

                     55                     56                     57
                      A                      A                      A
 Frequencies --   1263.7910              1317.6972              1324.9086
 Red. masses --      3.6053                 3.0424                 3.1877
 Frc consts  --      3.3927                 3.1124                 3.2968
 IR Inten    --     44.2700               151.3057               191.1321

                     58                     59                     60
                      A                      A                      A
 Frequencies --   1354.1956              1368.8437              1397.3121
 Red. masses --      1.4891                 1.3284                 3.0604
 Frc consts  --      1.6089                 1.4665                 3.5206
 IR Inten    --     22.3028                 7.0407               443.8414

                     61                     62                     63
                      A                      A                      A
 Frequencies --   1419.3253              1453.1615              1463.0225
 Red. masses --      1.3316                 1.2387                 1.1895
 Frc consts  --      1.5805                 1.5412                 1.5000
 IR Inten    --     81.3005                35.6444                 6.2721

                     64                     65                     66
                      A                      A                      A
 Frequencies --   1476.9101              1481.5713              1486.4399
 Red. masses --      1.0685                 1.1143                 1.1539
 Frc consts  --      1.3732                 1.4411                 1.5022
 IR Inten    --     31.3594                 3.5566                30.4736

                     67                     68                     69
                      A                      A                      A
 Frequencies --   1492.8829              1498.4433              1508.2865
 Red. masses --      1.5801                 1.1967                 1.0808
 Frc consts  --      2.0748                 1.5831                 1.4487
 IR Inten    --     41.9199                29.9766                15.7814

                     70                     71                     72
                      A                      A                      A
 Frequencies --   1511.7279              1543.0300              1556.0323
 Red. masses --      1.0322                 2.2333                 2.1835
 Frc consts  --      1.3898                 3.1329                 3.1148
 IR Inten    --      2.9494                20.6247               817.8740

                     73                     74                     75
                      A                      A                      A
 Frequencies --   1601.4394              1650.9935              1653.4379
 Red. masses --      3.9352                 1.6264                 2.5908
 Frc consts  --      5.9462                 2.6120                 4.1731
 IR Inten    --    417.4209                 8.1952                 4.0475

                     76                     77                     78
                      A                      A                      A
 Frequencies --   1674.2585              3041.7218              3064.9959
 Red. masses --      5.9348                 1.0401                 1.0332
 Frc consts  --      9.8017                 5.6699                 5.7186
 IR Inten    --      3.6216                95.6349                47.3527

                     79                     80                     81
                      A                      A                      A
 Frequencies --   3072.7398              3104.1198              3138.4458
 Red. masses --      1.0375                 1.0983                 1.1042
 Frc consts  --      5.7715                 6.2350                 6.4083
 IR Inten    --     13.4034                44.8912                13.0830

                     82                     83                     84
                      A                      A                      A
 Frequencies --   3147.0137              3153.6159              3162.1955
 Red. masses --      1.0995                 1.1022                 1.1054
 Frc consts  --      6.4154                 6.4584                 6.5123
 IR Inten    --     15.4015                25.6090                21.3717

                     85                     86                     87
                      A                      A                      A
 Frequencies --   3169.4413              3194.3422              3200.5743
 Red. masses --      1.1038                 1.0857                 1.0885
 Frc consts  --      6.5327                 6.5269                 6.5697
 IR Inten    --     21.6487                 3.9091                 3.4223

                     88                     89                     90
                      A                      A                      A
 Frequencies --   3210.0419              3220.4204              3227.2993
 Red. masses --      1.0927                 1.0958                 1.0955
 Frc consts  --      6.6340                 6.6958                 6.7229
 IR Inten    --     33.0698                26.3126                10.4522

                     91                     92                     93
                      A                      A                      A
 Frequencies --   3421.4957              3596.4772              3687.3151
 Red. masses --      1.0638                 1.0847                 1.0778
 Frc consts  --      7.3372                 8.2667                 8.6341
 IR Inten    --    114.1272                66.7541                78.5589

 - Thermochemistry -
 -------------------
 Temperature   298.150 Kelvin.  Pressure   1.00000 Atm.
 Atom     1 has atomic number  6 and mass  12.00000

 Molecular mass:   240.10294 amu.
 Principal axes and moments of inertia in atomic units:
                           1         2         3
     Eigenvalues --  2806.554995001.181495931.05757
           X            0.99944   0.02817   0.01812
           Y           -0.02736   0.99869  -0.04319
           Z           -0.01931   0.04267   0.99890
 This molecule is an asymmetric top.
 Rotational symmetry number  1.
 Warning -- assumption of classical behavior for rotation
           may cause significant error
 Rotational temperatures (Kelvin)      0.03086     0.01732     0.01460
 Rotational constants (GHZ):           0.64305     0.36086     0.30429
    1 imaginary frequencies ignored.
 Zero-point vibrational energy     725736.2 (Joules/Mol)
                                  173.45512 (Kcal/Mol)
 Warning -- explicit consideration of  25 degrees of freedom as
           vibrations may cause significant error
 Vibrational temperatures:     53.69    84.25   104.07   110.61   126.31
          (Kelvin)            159.29   180.37   209.88   225.81   269.68
                              306.13   343.02   384.70   400.56   413.55
                              446.94   465.91   482.23   520.51   560.48
                              608.93   618.36   665.92   810.24   818.85
                              904.19   920.72  1028.22  1049.14  1102.61
                             1125.24  1144.93  1190.69  1267.19  1384.83
                             1411.47  1452.26  1473.00  1478.84  1484.13
                             1488.72  1520.64  1529.30  1546.71  1567.25
                             1613.75  1622.94  1663.24  1679.39  1704.01
                             1709.60  1747.28  1771.86  1818.31  1895.87
                             1906.25  1948.39  1969.46  2010.42  2042.09
                             2090.78  2104.96  2124.94  2131.65  2138.66
                             2147.93  2155.93  2170.09  2175.04  2220.08
                             2238.78  2304.11  2375.41  2378.93  2408.88
                             4376.36  4409.85  4420.99  4466.14  4515.52
                             4527.85  4537.35  4549.69  4560.12  4595.95
                             4604.91  4618.53  4633.47  4643.36  4922.77
                             5174.53  5305.22

 Zero-point correction=                           0.276418 (Hartree/Particle)
 Thermal correction to Energy=                    0.293453
 Thermal correction to Enthalpy=                  0.294397
 Thermal correction to Gibbs Free Energy=         0.231402
 Sum of electronic and zero-point Energies=          -1112.183204
 Sum of electronic and thermal Energies=             -1112.166169
 Sum of electronic and thermal Enthalpies=           -1112.165225
 Sum of electronic and thermal Free Energies=        -1112.228220

                     E (Thermal)             CV                S
                      KCal/Mol        Cal/Mol-Kelvin    Cal/Mol-Kelvin
 Total                  184.144             62.544            132.584
 Electronic               0.000              0.000              0.000
 Translational            0.889              2.981             42.329
 Rotational               0.889              2.981             32.787
 Vibrational            182.367             56.582             57.468
 Vibration     1          0.594              1.982              5.397
 Vibration     2          0.596              1.974              4.505
 Vibration     3          0.598              1.967              4.089
 Vibration     4          0.599              1.965              3.969
 Vibration     5          0.601              1.958              3.709
 Vibration     6          0.607              1.941              3.256
 Vibration     7          0.610              1.928              3.016
 Vibration     8          0.617              1.907              2.725
 Vibration     9          0.621              1.895              2.586
 Vibration    10          0.632              1.857              2.253
 Vibration    11          0.644              1.821              2.020
 Vibration    12          0.656              1.782              1.815
 Vibration    13          0.672              1.733              1.613
 Vibration    14          0.679              1.713              1.543
 Vibration    15          0.685              1.697              1.489
 Vibration    16          0.699              1.653              1.359
 Vibration    17          0.708              1.628              1.291
 Vibration    18          0.716              1.605              1.235
 Vibration    19          0.736              1.551              1.114
 Vibration    20          0.757              1.493              1.002
 Vibration    21          0.785              1.420              0.881
 Vibration    22          0.791              1.405              0.859
 Vibration    23          0.820              1.332              0.758
 Vibration    24          0.919              1.111              0.518
 Vibration    25          0.925              1.098              0.506

 Optimization completed.
    -- Stationary point found.
 Normal termination of Gaussian 16 at Tue Mar 30 11:30:04 2021.
