 Gaussian 16, Revision A.03,
 Gaussian 16:  ES64L-G16RevA.03 25-Dec-2016

 ----------------------------------------------------------------------
 # wB97XD def2tzvp, opt=(ts, noeigen, calcfc, maxcycles=70, maxstep=3),
  freq=noraman, scrf=(iefpcm, solvent=water)
 ----------------------------------------------------------------------

 ------------------------
 3_iteration/TS-426-3.out
 ------------------------
 Symbolic Z-matrix:
 Charge =  0 Multiplicity = 1

 SCF Done:  E(RwB97XD) =  -3171.09300092     A.U. after   15 cycles
 SCF Done:  E(RwB97XD) =  -3171.09302914     A.U. after   10 cycles
 SCF Done:  E(RwB97XD) =  -3171.09305110     A.U. after   10 cycles
 SCF Done:  E(RwB97XD) =  -3171.09306026     A.U. after   10 cycles
 SCF Done:  E(RwB97XD) =  -3171.09306079     A.U. after   10 cycles
 SCF Done:  E(RwB97XD) =  -3171.09306100     A.U. after    7 cycles
 SCF Done:  E(RwB97XD) =  -3171.09306096     A.U. after    6 cycles
 Optimization completed.
    -- Stationary point found.
 Normal termination of Gaussian 16 at Sun Feb 14 18:54:12 2021.

 ---------------------------------------------------------------------
 #N Geom=AllCheck Guess=TCheck SCRF=Check GenChk RwB97XD/def2TZVP Freq
 ---------------------------------------------------------------------

 Structure from the checkpoint file:  "/beegfs/scratch/user/q/tla25/Gau-73772.chk"
 ------------------------
 3_iteration/TS-426-3.out
 ------------------------
 Charge =  0 Multiplicity = 1

                         Standard orientation:
 ---------------------------------------------------------------------
 Center     Atomic      Atomic             Coordinates (Angstroms)
 Number     Number       Type             X           Y           Z
 ---------------------------------------------------------------------
      1          6           0       -0.853296   -0.280008    0.023011
      2          6           0       -0.801755   -1.062158    1.215934
      3          8           0        0.111776   -0.898645    2.041800
      4          6           0        0.172210    0.609641   -0.344384
      5          6           0       -1.097865    2.458096    1.508470
      6          1           0       -1.159143    2.852264    2.524238
      7          1           0       -1.330919    3.255095    0.804459
      8          1           0       -1.837176    1.663296    1.400728
      9          7           0        0.217265    1.912941    1.213918
     10          1           0        0.920009    2.637708    1.161424
     11          1           0        0.495441    1.220179    1.903804
     12          6           0       -0.048623    1.574443   -1.479376
     13          1           0       -0.073781    1.016306   -2.418134
     14          1           0       -0.991554    2.107807   -1.379234
     15          1           0        0.768244    2.290634   -1.537964
     16          6           0        1.599926    0.121708   -0.273104
     17          6           0        2.678226    0.995241   -0.148946
     18          6           0        3.983629    0.530542   -0.184142
     19          6           0        4.239538   -0.819839   -0.366957
     20          6           0        3.176242   -1.696254   -0.523565
     21          6           0        1.872791   -1.228581   -0.481332
     22          1           0        2.516216    2.057939   -0.029511
     23          1           0        4.802137    1.230579   -0.074553
     24          1           0        5.258598   -1.183803   -0.397570
     25          1           0        3.359702   -2.751365   -0.683024
     26          1           0        1.050094   -1.917657   -0.615812
     27         35           0       -2.513744   -0.241897   -0.944854
     28          6           0       -1.879661   -2.076891    1.517292
     29          1           0       -2.100574   -2.704840    0.653927
     30          1           0       -1.552296   -2.693253    2.351998
     31          1           0       -2.807195   -1.571561    1.795863
 ---------------------------------------------------------------------

 SCF Done:  E(RwB97XD) =  -3171.09306096     A.U. after    1 cycles

 The electronic state is 1-A.
 Alpha  occ. eigenvalues -- -483.12104 -62.66933 -56.46037 -56.45703 -56.45697
 Alpha  occ. eigenvalues --  -19.21185 -14.46530 -10.36202 -10.36006 -10.31064
 Alpha  occ. eigenvalues --  -10.30796 -10.30435 -10.29477 -10.29222 -10.29143
 Alpha  occ. eigenvalues --  -10.29106 -10.29042 -10.28559 -10.27308  -8.81041
 Alpha  occ. eigenvalues --   -6.63146  -6.62082  -6.62063  -2.73543  -2.73232
 Alpha  occ. eigenvalues --   -2.73218  -2.72356  -2.72356  -1.11871  -1.02454
 Alpha  occ. eigenvalues --   -0.97496  -0.93551  -0.88551  -0.85429  -0.83761
 Alpha  occ. eigenvalues --   -0.82842  -0.79069  -0.78004  -0.71809  -0.70553
 Alpha  occ. eigenvalues --   -0.67328  -0.63146  -0.61853  -0.58502  -0.56794
 Alpha  occ. eigenvalues --   -0.56160  -0.55218  -0.54089  -0.53430  -0.52637
 Alpha  occ. eigenvalues --   -0.51817  -0.50917  -0.49640  -0.49360  -0.48832
 Alpha  occ. eigenvalues --   -0.47352  -0.46652  -0.45983  -0.45822  -0.43450
 Alpha  occ. eigenvalues --   -0.42895  -0.42506  -0.40209  -0.39144  -0.37083
 Alpha  occ. eigenvalues --   -0.34088  -0.33897  -0.31935  -0.27435
 Alpha virt. eigenvalues --    0.01293   0.05214   0.06184   0.09045   0.10224
 Alpha virt. eigenvalues --    0.12390   0.12930   0.13773   0.15061   0.15554
 Alpha virt. eigenvalues --    0.16273   0.16922   0.17704   0.17983   0.19000

 Mulliken charges:
               1
     1  C   -0.325379
     2  C    0.291409
     3  O   -0.530760
     4  C    0.266767
     5  C   -0.297668
     6  H    0.150209
     7  H    0.154177
     8  H    0.148619
     9  N   -0.364519
    10  H    0.264558
    11  H    0.274865
    12  C   -0.367703
    13  H    0.157918
    14  H    0.146960
    15  H    0.149014
    16  C    0.211984
    17  C   -0.261838
    18  C   -0.173470
    19  C   -0.138385
    20  C   -0.147770
    21  C   -0.232424
    22  H    0.149095
    23  H    0.142931
    24  H    0.144696
    25  H    0.142259
    26  H    0.156579
    27  Br  -0.148011
    28  C   -0.378090
    29  H    0.141977
    30  H    0.128539
    31  H    0.143459
 Sum of Mulliken charges =  -0.00000

 Dipole moment (field-independent basis, Debye):
    X=              1.8440    Y=              5.3700    Z=             -0.4511  Tot=              5.6957
 Quadrupole moment (field-independent basis, Debye-Ang):
   XX=            -98.3701   YY=            -86.6898   ZZ=           -109.6272
   XY=              2.3475   XZ=             -4.7786   YZ=              7.4608

  Exact polarizability: 282.841   9.334 252.918   7.880   1.062 198.124
 Approx polarizability: 218.145   6.690 208.047  10.536   2.660 169.176

 ******    1 imaginary frequencies (negative Signs) ******

                      1                      2                      3
                      A                      A                      A
 Frequencies --   -357.1306                51.2707                62.7381
 Red. masses --      4.9769                 3.7876                 5.7301
 Frc consts  --      0.3740                 0.0059                 0.0133
 IR Inten    --    488.3184                 1.6403                 0.4929

                      4                      5                      6
                      A                      A                      A
 Frequencies --     70.3443                86.1331               105.0920
 Red. masses --      2.6243                 3.6135                 3.4343
 Frc consts  --      0.0077                 0.0158                 0.0223
 IR Inten    --      1.9659                 1.5203                 3.1162

                      7                      8                      9
                      A                      A                      A
 Frequencies --    138.1442               151.7872               164.2945
 Red. masses --      4.5508                 2.3140                 1.1181
 Frc consts  --      0.0512                 0.0314                 0.0178
 IR Inten    --     12.3071                23.8412                 1.7577

                     10                     11                     12
                      A                      A                      A
 Frequencies --    191.0788               201.8223               207.0108
 Red. masses --      4.3427                 2.1406                 2.0097
 Frc consts  --      0.0934                 0.0514                 0.0507
 IR Inten    --      6.2128                 0.7542                 2.5397

                     13                     14                     15
                      A                      A                      A
 Frequencies --    246.1516               267.3542               288.2043
 Red. masses --      2.9037                 2.4752                 1.5974
 Frc consts  --      0.1037                 0.1042                 0.0782
 IR Inten    --      2.0486                 8.6119                 9.2700

                     16                     17                     18
                      A                      A                      A
 Frequencies --    296.1263               330.1527               359.1674
 Red. masses --      3.7162                 2.8912                 2.7181
 Frc consts  --      0.1920                 0.1857                 0.2066
 IR Inten    --      2.0011                12.3441                 5.0181

                     19                     20                     21
                      A                      A                      A
 Frequencies --    400.9205               421.0798               428.5909
 Red. masses --      6.9206                 3.3746                 3.1940
 Frc consts  --      0.6554                 0.3525                 0.3457
 IR Inten    --     12.5263                 2.8391                 0.3911

                     22                     23                     24
                      A                      A                      A
 Frequencies --    531.3468               554.5848               591.9955
 Red. masses --      3.4177                 2.8611                 3.7687
 Frc consts  --      0.5685                 0.5185                 0.7782
 IR Inten    --     81.6844                51.4182                12.9006

                     25                     26                     27
                      A                      A                      A
 Frequencies --    614.3054               638.5885               647.8091
 Red. masses --      1.7373                 6.1275                 3.5805
 Frc consts  --      0.3863                 1.4722                 0.8853
 IR Inten    --     76.1077                 0.4600                41.9568

                     28                     29                     30
                      A                      A                      A
 Frequencies --    680.7940               725.5055               793.4564
 Red. masses --      2.6698                 1.6435                 1.9683
 Frc consts  --      0.7290                 0.5097                 0.7301
 IR Inten    --     28.1037                75.1760                54.9244

                     31                     32                     33
                      A                      A                      A
 Frequencies --    803.4709               876.5539               949.5091
 Red. masses --      4.1130                 1.2460                 2.9533
 Frc consts  --      1.5644                 0.5641                 1.5688
 IR Inten    --     16.0912                 0.3620                69.8782

                     34                     35                     36
                      A                      A                      A
 Frequencies --    959.2958               974.3237               995.8372
 Red. masses --      1.6077                 1.1595                 1.6372
 Frc consts  --      0.8717                 0.6485                 0.9566
 IR Inten    --     27.3962                82.4124                20.0178

                     37                     38                     39
                      A                      A                      A
 Frequencies --   1015.6835              1026.2615              1027.9462
 Red. masses --      1.3923                 4.8093                 1.4814
 Frc consts  --      0.8463                 2.9843                 0.9223
 IR Inten    --     11.6532                11.4284               101.2270

                     40                     41                     42
                      A                      A                      A
 Frequencies --   1031.4577              1042.8891              1051.9329
 Red. masses --      1.2956                 1.5716                 1.6657
 Frc consts  --      0.8121                 1.0071                 1.0860
 IR Inten    --     18.5872                30.9421                22.2244

                     43                     44                     45
                      A                      A                      A
 Frequencies --   1056.4031              1063.7129              1093.0581
 Red. masses --      1.8060                 2.1114                 3.5128
 Frc consts  --      1.1875                 1.4076                 2.4728
 IR Inten    --     62.3862                12.1940                 7.8023

                     46                     47                     48
                      A                      A                      A
 Frequencies --   1120.7576              1121.8496              1184.8207
 Red. masses --      2.3145                 1.6118                 1.1277
 Frc consts  --      1.7129                 1.1952                 0.9327
 IR Inten    --     12.5694                12.4977                 0.0552

                     49                     50                     51
                      A                      A                      A
 Frequencies --   1195.9795              1216.3475              1262.0359
 Red. masses --      1.4044                 1.1281                 4.4340
 Frc consts  --      1.1836                 0.9834                 4.1609
 IR Inten    --     29.2713                 3.0985                20.4694

                     52                     53                     54
                      A                      A                      A
 Frequencies --   1317.0570              1334.5554              1349.7963
 Red. masses --      4.1513                 3.5092                 1.4125
 Frc consts  --      4.2427                 3.6824                 1.5163
 IR Inten    --      5.3177               114.3731                34.1926

                     55                     56                     57
                      A                      A                      A
 Frequencies --   1362.7835              1379.8413              1403.2668
 Red. masses --      1.4082                 2.0888                 1.8626
 Frc consts  --      1.5409                 2.3432                 2.1609
 IR Inten    --      3.8311               239.7353               497.1317

                     58                     59                     60
                      A                      A                      A
 Frequencies --   1417.5394              1453.6161              1458.5719
 Red. masses --      1.3514                 1.1790                 1.1058
 Frc consts  --      1.5999                 1.4678                 1.3860
 IR Inten    --    161.3610                20.5233                44.0119

                     61                     62                     63
                      A                      A                      A
 Frequencies --   1472.7639              1481.2557              1490.0827
 Red. masses --      1.0644                 1.1740                 1.2129
 Frc consts  --      1.3602                 1.5177                 1.5867
 IR Inten    --     28.4961                15.9895                 8.1647

                     64                     65                     66
                      A                      A                      A
 Frequencies --   1493.3665              1495.3210              1507.5133
 Red. masses --      1.5318                 1.1063                 1.0364
 Frc consts  --      2.0128                 1.4574                 1.3876
 IR Inten    --     68.6845                11.9322                11.5342

                     67                     68                     69
                      A                      A                      A
 Frequencies --   1541.7611              1618.1884              1647.6240
 Red. masses --      2.2579                 3.2833                 1.4957
 Frc consts  --      3.1622                 5.0654                 2.3923
 IR Inten    --     19.8752               377.0988                20.0379

                     70                     71                     72
                      A                      A                      A
 Frequencies --   1652.7997              1673.4603              3057.2121
 Red. masses --      4.2499                 5.9536                 1.0339
 Frc consts  --      6.8402                 9.8234                 5.6937
 IR Inten    --     15.5705                 2.3735                53.0224

                     73                     74                     75
                      A                      A                      A
 Frequencies --   3060.5155              3067.6172              3126.4726
 Red. masses --      1.0375                 1.0392                 1.1035
 Frc consts  --      5.7255                 5.7619                 6.3551
 IR Inten    --      8.4275                 8.7020                17.4557

                     76                     77                     78
                      A                      A                      A
 Frequencies --   3131.2027              3142.7943              3154.7872
 Red. masses --      1.0987                 1.0967                 1.1046
 Frc consts  --      6.3467                 6.3819                 6.4776
 IR Inten    --     13.0308                13.5933                21.4690

                     79                     80                     81
                      A                      A                      A
 Frequencies --   3165.5011              3171.6091              3196.6526
 Red. masses --      1.1039                 1.1041                 1.0859
 Frc consts  --      6.5172                 6.5439                 6.5377
 IR Inten    --     25.4224                21.9420                 0.6354

                     82                     83                     84
                      A                      A                      A
 Frequencies --   3205.0975              3215.4943              3223.5545
 Red. masses --      1.0892                 1.0926                 1.0934
 Frc consts  --      6.5925                 6.6556                 6.6944
 IR Inten    --      6.5501                27.9100                32.8550

                     85                     86                     87
                      A                      A                      A
 Frequencies --   3227.5549              3489.7147              3614.4228
 Red. masses --      1.0972                 1.0571                 1.0901
 Frc consts  --      6.7341                 7.5848                 8.3905
 IR Inten    --      5.6015                41.2686                67.6067

 - Thermochemistry -
 -------------------
 Temperature   298.150 Kelvin.  Pressure   1.00000 Atm.
 Atom     1 has atomic number  6 and mass  12.00000

 Molecular mass:   269.04153 amu.
 Principal axes and moments of inertia in atomic units:
                           1         2         3
     Eigenvalues --  2478.173215896.821926234.18264
           X            0.99929  -0.00489  -0.03731
           Y            0.00477   0.99998  -0.00317
           Z            0.03732   0.00299   0.99930
 This molecule is an asymmetric top.
 Rotational symmetry number  1.
 Warning -- assumption of classical behavior for rotation
           may cause significant error
 Rotational temperatures (Kelvin)      0.03495     0.01469     0.01389
 Rotational constants (GHZ):           0.72825     0.30605     0.28949
    1 imaginary frequencies ignored.
 Zero-point vibrational energy     676592.0 (Joules/Mol)
                                  161.70936 (Kcal/Mol)
 Warning -- explicit consideration of  24 degrees of freedom as
           vibrations may cause significant error
 Vibrational temperatures:     73.77    90.27   101.21   123.93   151.20
          (Kelvin)            198.76   218.39   236.38   274.92   290.38
                              297.84   354.16   384.66   414.66   426.06
                              475.02   516.76   576.84   605.84   616.65
                              764.49   797.92   851.75   883.85   918.79
                              932.05   979.51  1043.84  1141.61  1156.02
                             1261.17  1366.13  1380.21  1401.83  1432.79
                             1461.34  1476.56  1478.99  1484.04  1500.48
                             1513.50  1519.93  1530.45  1572.67  1612.52
                             1614.09  1704.69  1720.75  1750.05  1815.79
                             1894.95  1920.13  1942.06  1960.74  1985.28
                             2018.99  2039.52  2091.43  2098.56  2118.98
                             2131.20  2143.90  2148.62  2151.43  2168.98
                             2218.25  2328.21  2370.56  2378.01  2407.74
                             4398.65  4403.40  4413.62  4498.30  4505.10
                             4521.78  4539.04  4554.45  4563.24  4599.27
                             4611.42  4626.38  4637.98  4643.73  5020.92
                             5200.35

 Zero-point correction=                           0.257700 (Hartree/Particle)
 Thermal correction to Energy=                    0.273582
 Thermal correction to Enthalpy=                  0.274526
 Thermal correction to Gibbs Free Energy=         0.214027
 Sum of electronic and zero-point Energies=          -3170.835361
 Sum of electronic and thermal Energies=             -3170.819479
 Sum of electronic and thermal Enthalpies=           -3170.818535
 Sum of electronic and thermal Free Energies=        -3170.879034

                     E (Thermal)             CV                S
                      KCal/Mol        Cal/Mol-Kelvin    Cal/Mol-Kelvin
 Total                  171.675             58.738            127.331
 Electronic               0.000              0.000              0.000
 Translational            0.889              2.981             42.668
 Rotational               0.889              2.981             32.877
 Vibrational            169.898             52.777             51.786
 Vibration     1          0.596              1.977              4.768
 Vibration     2          0.597              1.972              4.369
 Vibration     3          0.598              1.968              4.144
 Vibration     4          0.601              1.959              3.746
 Vibration     5          0.605              1.945              3.358
 Vibration     6          0.614              1.915              2.829
 Vibration     7          0.619              1.901              2.650
 Vibration     8          0.623              1.886              2.500
 Vibration     9          0.634              1.852              2.217
 Vibration    10          0.639              1.837              2.116
 Vibration    11          0.641              1.830              2.070
 Vibration    12          0.661              1.769              1.758
 Vibration    13          0.672              1.733              1.613
 Vibration    14          0.685              1.696              1.484
 Vibration    15          0.690              1.681              1.439
 Vibration    16          0.713              1.615              1.259
 Vibration    17          0.734              1.556              1.126
 Vibration    18          0.767              1.468              0.959
 Vibration    19          0.784              1.424              0.888
 Vibration    20          0.790              1.408              0.863
 Vibration    21          0.886              1.181              0.584
 Vibration    22          0.910              1.130              0.535
 Vibration    23          0.949              1.049              0.464
 Vibration    24          0.974              1.002              0.426

 Optimization completed.
    -- Stationary point found.
 Normal termination of Gaussian 16 at Sun Feb 14 20:08:37 2021.
