 Gaussian 16, Revision A.03,
 Gaussian 16:  ES64L-G16RevA.03 25-Dec-2016

 ----------------------------------------------------------------------
 # wB97XD def2tzvp, opt=(ts, noeigen, calcfc, maxcycles=70, maxstep=8),
  freq=noraman, scrf=(iefpcm, solvent=water)
 ----------------------------------------------------------------------

 ------------------------
 1_iteration/TS-445-1.out
 ------------------------
 Symbolic Z-matrix:
 Charge =  0 Multiplicity = 1

 SCF Done:  E(RwB97XD) =  -652.854182540     A.U. after   14 cycles
 Optimization completed.
    -- Stationary point found.
 Normal termination of Gaussian 16 at Sun Feb 14 09:26:27 2021.

 ---------------------------------------------------------------------
 #N Geom=AllCheck Guess=TCheck SCRF=Check GenChk RwB97XD/def2TZVP Freq
 ---------------------------------------------------------------------

 Structure from the checkpoint file:  "/beegfs/scratch/user/q/tla25/Gau-42944.chk"
 ------------------------
 1_iteration/TS-445-1.out
 ------------------------
 Charge =  0 Multiplicity = 1

                         Standard orientation:
 ---------------------------------------------------------------------
 Center     Atomic      Atomic             Coordinates (Angstroms)
 Number     Number       Type             X           Y           Z
 ---------------------------------------------------------------------
      1          6           0        0.360620    0.150740    0.418929
      2          6           0        0.815351    1.500119    0.210509
      3          8           0        2.025801    1.816208    0.259059
      4          6           0        1.359749   -0.778561    0.767889
      5          6           0        3.709988   -1.815693   -0.513871
      6          1           0        3.492437   -2.873553   -0.383821
      7          1           0        4.396538   -1.695144   -1.352711
      8          1           0        4.189648   -1.440874    0.390619
      9          7           0        2.463988   -1.082812   -0.721011
     10          1           0        2.635999   -0.105922   -0.940611
     11          1           0        1.899058   -1.484432   -1.459141
     12          6           0        1.016577   -2.166301    1.234029
     13          1           0        0.485727   -2.094280    2.185509
     14          1           0        0.368357   -2.690890    0.533589
     15          1           0        1.912327   -2.763712    1.398599
     16          1           0        2.191509   -0.337422    1.309589
     17          6           0       -1.034911   -0.259009    0.135989
     18          6           0       -1.347792   -1.175888   -0.874001
     19          6           0       -2.654262   -1.570047   -1.121551
     20          6           0       -3.698492   -1.038406   -0.377861
     21          6           0       -3.416151   -0.118466    0.621839
     22          6           0       -2.104760    0.253702    0.879519
     23          1           0       -0.551492   -1.584719   -1.484861
     24          1           0       -2.858303   -2.285937   -1.908671
     25          1           0       -4.720082   -1.337865   -0.575251
     26          1           0       -4.219170    0.300794    1.216039
     27          1           0       -1.896790    0.952492    1.681679
     28          7           0       -0.104198    2.471080   -0.082741
     29          6           0        0.296353    3.783920   -0.525801
     30          1           0       -1.046709    2.182021   -0.272471
     31          1           0        0.850943    3.755199   -1.469391
     32          1           0       -0.596696    4.390581   -0.667111
     33          1           0        0.928143    4.269459    0.218469
 ---------------------------------------------------------------------

 SCF Done:  E(RwB97XD) =  -652.854182540     A.U. after    1 cycles

 The electronic state is 1-A.
 Alpha  occ. eigenvalues --  -19.18618 -14.47631 -14.43207 -10.35880 -10.32751
 Alpha  occ. eigenvalues --  -10.31607 -10.30081 -10.29417 -10.28577 -10.28561
 Alpha  occ. eigenvalues --  -10.28299 -10.28205 -10.28089 -10.27595 -10.24205
 Alpha  occ. eigenvalues --   -1.10943  -1.03274  -0.99837  -0.96073  -0.89984
 Alpha  occ. eigenvalues --   -0.84841  -0.84382  -0.80845  -0.78935  -0.76758
 Alpha  occ. eigenvalues --   -0.70149  -0.69723  -0.67340  -0.64175  -0.62687
 Alpha  occ. eigenvalues --   -0.60992  -0.58736  -0.56012  -0.54936  -0.54515
 Alpha  occ. eigenvalues --   -0.53419  -0.53007  -0.52413  -0.50912  -0.50231
 Alpha  occ. eigenvalues --   -0.49370  -0.49075  -0.47803  -0.46753  -0.46073
 Alpha  occ. eigenvalues --   -0.45454  -0.45132  -0.44481  -0.42108  -0.41213
 Alpha  occ. eigenvalues --   -0.40905  -0.34336  -0.33357  -0.32345  -0.32162
 Alpha  occ. eigenvalues --   -0.24844
 Alpha virt. eigenvalues --    0.05577   0.05639   0.08440   0.09937   0.12607
 Alpha virt. eigenvalues --    0.13143   0.13856   0.14790   0.15726   0.15835
 Alpha virt. eigenvalues --    0.16710   0.17175   0.17598   0.18547   0.18985

 Mulliken charges:
               1
     1  C   -0.188915
     2  C    0.341553
     3  O   -0.606356
     4  C   -0.077490
     5  C   -0.299636
     6  H    0.157581
     7  H    0.153051
     8  H    0.150370
     9  N   -0.289564
    10  H    0.277051
    11  H    0.266316
    12  C   -0.326427
    13  H    0.140850
    14  H    0.135098
    15  H    0.139964
    16  H    0.134992
    17  C    0.155621
    18  C   -0.284792
    19  C   -0.138826
    20  C   -0.162861
    21  C   -0.123525
    22  C   -0.298783
    23  H    0.146508
    24  H    0.137065
    25  H    0.139806
    26  H    0.137548
    27  H    0.145106
    28  N   -0.330412
    29  C   -0.254829
    30  H    0.253013
    31  H    0.113641
    32  H    0.134431
    33  H    0.122849
 Sum of Mulliken charges =  -0.00000

 Dipole moment (field-independent basis, Debye):
    X=              1.0247    Y=             -5.2419    Z=             -3.2135  Tot=              6.2333
 Quadrupole moment (field-independent basis, Debye-Ang):
   XX=            -81.0154   YY=            -86.8267   ZZ=            -88.1773
   XY=            -18.6356   XZ=             -5.6513   YZ=              1.8580

  Exact polarizability: 275.192  -7.278 232.495  -4.642  19.743 183.678
 Approx polarizability: 209.891  -2.752 179.297  -3.880  18.543 159.023

 ******    1 imaginary frequencies (negative Signs) ******

                      1                      2                      3
                      A                      A                      A
 Frequencies --   -384.8151                38.8114                55.6125
 Red. masses --      5.9369                 3.5853                 3.2946
 Frc consts  --      0.5180                 0.0032                 0.0060
 IR Inten    --    941.5215                 3.3517                 3.9268

                      4                      5                      6
                      A                      A                      A
 Frequencies --     62.5150                75.5391                87.0583
 Red. masses --      3.1386                 2.6928                 3.0741
 Frc consts  --      0.0072                 0.0091                 0.0137
 IR Inten    --      5.9408                 6.9264                10.4530

                      7                      8                      9
                      A                      A                      A
 Frequencies --     91.4735               104.1119               137.8450
 Red. masses --      1.9700                 2.0192                 1.8556
 Frc consts  --      0.0097                 0.0129                 0.0208
 IR Inten    --     11.6675                35.2694                 4.6640

                     10                     11                     12
                      A                      A                      A
 Frequencies --    155.5053               167.6684               184.0355
 Red. masses --      1.1762                 3.0616                 1.7876
 Frc consts  --      0.0168                 0.0507                 0.0357
 IR Inten    --      5.1096                 3.0835                 4.8445

                     13                     14                     15
                      A                      A                      A
 Frequencies --    214.7307               256.3909               288.2555
 Red. masses --      1.5908                 3.6257                 3.0979
 Frc consts  --      0.0432                 0.1404                 0.1517
 IR Inten    --      5.2665                 1.8141                61.0712

                     16                     17                     18
                      A                      A                      A
 Frequencies --    296.7441               326.5663               398.8589
 Red. masses --      3.9776                 2.6932                 5.4327
 Frc consts  --      0.2064                 0.1692                 0.5092
 IR Inten    --      1.1317                68.9578                22.5612

                     19                     20                     21
                      A                      A                      A
 Frequencies --    412.8179               421.6457               431.7720
 Red. masses --      2.9934                 1.8676                 2.2874
 Frc consts  --      0.3006                 0.1956                 0.2513
 IR Inten    --     12.7542                20.0229                 7.1040

                     22                     23                     24
                      A                      A                      A
 Frequencies --    470.7713               553.5419               614.1788
 Red. masses --      2.6398                 3.5597                 3.3874
 Frc consts  --      0.3447                 0.6426                 0.7528
 IR Inten    --     91.8539                71.0858                27.2599

                     25                     26                     27
                      A                      A                      A
 Frequencies --    639.7553               671.7888               702.0128
 Red. masses --      5.8960                 1.9492                 2.4993
 Frc consts  --      1.4218                 0.5183                 0.7257
 IR Inten    --      2.0765                43.9143                 3.5514

                     28                     29                     30
                      A                      A                      A
 Frequencies --    730.4352               786.8338               800.3613
 Red. masses --      1.4940                 3.2367                 7.1692
 Frc consts  --      0.4696                 1.1806                 2.7058
 IR Inten    --     98.3149                 5.4340                48.6594

                     31                     32                     33
                      A                      A                      A
 Frequencies --    808.1616               877.1247               944.7663
 Red. masses --      2.7557                 1.2475                 1.5188
 Frc consts  --      1.0604                 0.5655                 0.7987
 IR Inten    --     36.2136                 2.2272                16.8452

                     34                     35                     36
                      A                      A                      A
 Frequencies --    960.5751               976.8749              1005.6397
 Red. masses --      1.6121                 3.0603                 1.2419
 Frc consts  --      0.8764                 1.7207                 0.7400
 IR Inten    --     31.6799                 7.9734                14.3059

                     37                     38                     39
                      A                      A                      A
 Frequencies --   1009.3459              1022.2346              1023.3825
 Red. masses --      1.3887                 1.3069                 5.2606
 Frc consts  --      0.8336                 0.8046                 3.2461
 IR Inten    --      0.9043                 0.1491                 0.3952

                     40                     41                     42
                      A                      A                      A
 Frequencies --   1041.8143              1051.8745              1062.9107
 Red. masses --      1.5192                 1.2535                 2.0313
 Frc consts  --      0.9715                 0.8172                 1.3521
 IR Inten    --     24.5326               121.9838                10.6320

                     43                     44                     45
                      A                      A                      A
 Frequencies --   1079.2182              1108.8730              1133.4066
 Red. masses --      3.4868                 1.5921                 2.3791
 Frc consts  --      2.3927                 1.1534                 1.8007
 IR Inten    --    190.7010                16.1562                33.9816

                     46                     47                     48
                      A                      A                      A
 Frequencies --   1147.9600              1154.7565              1180.4558
 Red. masses --      1.8884                 1.4796                 1.1343
 Frc consts  --      1.4662                 1.1625                 0.9313
 IR Inten    --     12.4241                42.1610                 0.2107

                     49                     50                     51
                      A                      A                      A
 Frequencies --   1181.8212              1207.8228              1215.3396
 Red. masses --      1.8010                 1.1654                 1.2612
 Frc consts  --      1.4820                 1.0017                 1.0976
 IR Inten    --     31.1860                 6.5014               123.7893

                     52                     53                     54
                      A                      A                      A
 Frequencies --   1223.9923              1246.8748              1295.7986
 Red. masses --      1.7999                 1.4397                 3.3743
 Frc consts  --      1.5887                 1.3187                 3.3382
 IR Inten    --     63.3401                98.8130               169.8684

                     55                     56                     57
                      A                      A                      A
 Frequencies --   1322.6755              1349.2465              1359.3026
 Red. masses --      2.4976                 1.3150                 1.4370
 Frc consts  --      2.5744                 1.4104                 1.5644
 IR Inten    --    233.6925                20.3709                 3.6026

                     58                     59                     60
                      A                      A                      A
 Frequencies --   1385.5917              1410.0116              1448.3493
 Red. masses --      2.1983                 1.3878                 1.8134
 Frc consts  --      2.4866                 1.6257                 2.2412
 IR Inten    --     40.0319                11.9874               220.8507

                     61                     62                     63
                      A                      A                      A
 Frequencies --   1454.3048              1465.5555              1475.1808
 Red. masses --      1.2506                 1.3262                 1.0551
 Frc consts  --      1.5584                 1.6782                 1.3528
 IR Inten    --     29.1256                53.7444                25.0611

                     64                     65                     66
                      A                      A                      A
 Frequencies --   1482.0748              1486.3179              1491.6805
 Red. masses --      1.0660                 1.4742                 1.2945
 Frc consts  --      1.3796                 1.9188                 1.6971
 IR Inten    --      3.7081                19.0125                31.7493

                     67                     68                     69
                      A                      A                      A
 Frequencies --   1496.2596              1507.0841              1508.6895
 Red. masses --      1.2468                 1.0551                 1.1276
 Frc consts  --      1.6446                 1.4119                 1.5123
 IR Inten    --     93.2344                 7.8661                28.0698

                     70                     71                     72
                      A                      A                      A
 Frequencies --   1541.7212              1546.7644              1613.5274
 Red. masses --      2.4111                 1.9436                 4.0332
 Frc consts  --      3.3765                 2.7397                 6.1866
 IR Inten    --     40.6805               614.1459               708.0829

                     73                     74                     75
                      A                      A                      A
 Frequencies --   1638.1258              1644.7993              1667.9449
 Red. masses --      5.3394                 1.1591                 5.7920
 Frc consts  --      8.4418                 1.8476                 9.4939
 IR Inten    --     15.5860               104.8487                23.9885

                     76                     77                     78
                      A                      A                      A
 Frequencies --   3030.1838              3064.1588              3065.6217
 Red. masses --      1.0455                 1.0344                 1.0379
 Frc consts  --      5.6558                 5.7221                 5.7472
 IR Inten    --    113.0502                56.5328                26.2792

                     79                     80                     81
                      A                      A                      A
 Frequencies --   3101.6650              3134.4227              3136.2470
 Red. masses --      1.0915                 1.0986                 1.1027
 Frc consts  --      6.1868                 6.3592                 6.3907
 IR Inten    --     53.5718                21.8073                28.5925

                     82                     83                     84
                      A                      A                      A
 Frequencies --   3141.2440              3148.6452              3158.9994
 Red. masses --      1.0947                 1.1025                 1.1003
 Frc consts  --      6.3642                 6.4400                 6.4693
 IR Inten    --      1.1750                28.8985                54.9317

                     85                     86                     87
                      A                      A                      A
 Frequencies --   3165.8673              3183.7857              3186.0912
 Red. masses --      1.1042                 1.0856                 1.0877
 Frc consts  --      6.5203                 6.4837                 6.5055
 IR Inten    --     15.9377                16.2256                 3.8605

                     88                     89                     90
                      A                      A                      A
 Frequencies --   3197.7980              3203.7888              3217.2373
 Red. masses --      1.0908                 1.0948                 1.0986
 Frc consts  --      6.5722                 6.6210                 6.6995
 IR Inten    --     11.2832                58.1446                21.8117

                     91                     92                     93
                      A                      A                      A
 Frequencies --   3501.3611              3600.2044              3668.0730
 Red. masses --      1.0542                 1.0937                 1.0773
 Frc consts  --      7.6148                 8.3523                 8.5404
 IR Inten    --     34.9282                52.2314                70.4114

 - Thermochemistry -
 -------------------
 Temperature   298.150 Kelvin.  Pressure   1.00000 Atm.
 Atom     1 has atomic number  6 and mass  12.00000

 Molecular mass:   206.14191 amu.
 Principal axes and moments of inertia in atomic units:
                           1         2         3
     Eigenvalues --  2603.658183834.375035650.36011
           X            0.99799  -0.06326  -0.00429
           Y            0.06322   0.99797  -0.00729
           Z            0.00474   0.00700   0.99996
 This molecule is an asymmetric top.
 Rotational symmetry number  1.
 Warning -- assumption of classical behavior for rotation
           may cause significant error
 Rotational temperatures (Kelvin)      0.03327     0.02259     0.01533
 Rotational constants (GHZ):           0.69316     0.47067     0.31940
    1 imaginary frequencies ignored.
 Zero-point vibrational energy     749695.3 (Joules/Mol)
                                  179.18147 (Kcal/Mol)
 Warning -- explicit consideration of  23 degrees of freedom as
           vibrations may cause significant error
 Vibrational temperatures:     55.84    80.01    89.95   108.68   125.26
          (Kelvin)            131.61   149.79   198.33   223.74   241.24
                              264.79   308.95   368.89   414.74   426.95
                              469.86   573.87   593.95   606.65   621.22
                              677.33   796.42   883.67   920.47   966.55
                             1010.04  1050.93  1132.08  1151.54  1162.76
                             1261.99  1359.31  1382.05  1405.51  1446.89
                             1452.22  1470.77  1472.42  1498.94  1513.41
                             1529.29  1552.75  1595.42  1630.72  1651.66
                             1661.44  1698.41  1700.38  1737.79  1748.60
                             1761.05  1793.97  1864.37  1903.04  1941.26
                             1955.73  1993.56  2028.69  2083.85  2092.42
                             2108.61  2122.46  2132.38  2138.48  2146.20
                             2152.78  2168.36  2170.67  2218.19  2225.45
                             2321.51  2356.90  2366.50  2399.80  4359.76
                             4408.64  4410.75  4462.60  4509.74  4512.36
                             4519.55  4530.20  4545.10  4554.98  4580.76
                             4584.07  4600.92  4609.54  4628.89  5037.68
                             5179.89  5277.54

 Zero-point correction=                           0.285544 (Hartree/Particle)
 Thermal correction to Energy=                    0.301878
 Thermal correction to Enthalpy=                  0.302823
 Thermal correction to Gibbs Free Energy=         0.240808
 Sum of electronic and zero-point Energies=           -652.568639
 Sum of electronic and thermal Energies=              -652.552304
 Sum of electronic and thermal Enthalpies=            -652.551360
 Sum of electronic and thermal Free Energies=         -652.613375

                     E (Thermal)             CV                S
                      KCal/Mol        Cal/Mol-Kelvin    Cal/Mol-Kelvin
 Total                  189.432             58.989            130.522
 Electronic               0.000              0.000              0.000
 Translational            0.889              2.981             41.874
 Rotational               0.889              2.981             32.400
 Vibrational            187.654             53.028             56.247
 Vibration     1          0.594              1.981              5.319
 Vibration     2          0.596              1.975              4.607
 Vibration     3          0.597              1.972              4.376
 Vibration     4          0.599              1.965              4.004
 Vibration     5          0.601              1.958              3.725
 Vibration     6          0.602              1.955              3.628
 Vibration     7          0.605              1.946              3.376
 Vibration     8          0.614              1.916              2.834
 Vibration     9          0.620              1.897              2.604
 Vibration    10          0.624              1.882              2.461
 Vibration    11          0.631              1.862              2.287
 Vibration    12          0.645              1.819              2.003
 Vibration    13          0.666              1.752              1.686
 Vibration    14          0.685              1.696              1.484
 Vibration    15          0.690              1.680              1.435
 Vibration    16          0.710              1.622              1.277
 Vibration    17          0.765              1.473              0.967
 Vibration    18          0.777              1.442              0.917
 Vibration    19          0.784              1.423              0.886
 Vibration    20          0.793              1.401              0.853
 Vibration    21          0.828              1.315              0.735
 Vibration    22          0.909              1.132              0.537
 Vibration    23          0.974              1.002              0.426

 Optimization completed.
    -- Stationary point found.
 Normal termination of Gaussian 16 at Sun Feb 14 10:34:37 2021.
