 Gaussian 16, Revision A.03,
 Gaussian 16:  ES64L-G16RevA.03 25-Dec-2016

 ----------------------------------------------------------------------
 # wB97XD def2tzvp, opt=(ts, noeigen, calcfc, maxcycles=70, maxstep=3),
  freq=noraman, scrf=(iefpcm, solvent=water)
 ----------------------------------------------------------------------

 ------------------------
 0_iteration/TS-422-0.out
 ------------------------
 Symbolic Z-matrix:
 Charge =  0 Multiplicity = 1

 SCF Done:  E(RwB97XD) =  -731.461996858     A.U. after   14 cycles
 SCF Done:  E(RwB97XD) =  -731.461997655     A.U. after   10 cycles
 Optimization completed.
    -- Stationary point found.
 Normal termination of Gaussian 16 at Mon Apr 12 20:37:38 2021.

 ---------------------------------------------------------------------
 #N Geom=AllCheck Guess=TCheck SCRF=Check GenChk RwB97XD/def2TZVP Freq
 ---------------------------------------------------------------------

 Structure from the checkpoint file:  "/beegfs/scratch/user/q/tla25/Gau-132558.chk"
 ------------------------
 0_iteration/TS-422-0.out
 ------------------------
 Charge =  0 Multiplicity = 1

                         Standard orientation:
 ---------------------------------------------------------------------
 Center     Atomic      Atomic             Coordinates (Angstroms)
 Number     Number       Type             X           Y           Z
 ---------------------------------------------------------------------
      1          6           0        0.961885    0.565351    0.616077
      2          6           0        1.471799   -0.286541   -0.409964
      3          8           0        0.941920   -0.371647   -1.549972
      4          6           0       -0.391501    0.998754    0.496505
      5          6           0        0.460072    3.079436   -1.150606
      6          1           0        0.673498    3.380952   -2.176553
      7          1           0        0.049541    3.928681   -0.607675
      8          1           0        1.390238    2.760187   -0.679158
      9          7           0       -0.470147    1.960620   -1.109031
     10          1           0       -1.395610    2.228146   -1.417970
     11          1           0       -0.117055    1.174734   -1.668207
     12          6           0       -0.867920    2.016838    1.512394
     13          1           0       -0.210953    2.883247    1.560784
     14          1           0       -1.877351    2.358870    1.289885
     15          1           0       -0.880234    1.552600    2.500666
     16          6           0       -1.472360   -0.037793    0.220966
     17          6           0       -1.254046   -1.376945    0.534677
     18          6           0       -2.248904   -2.328180    0.368660
     19          6           0       -3.498273   -1.959808   -0.106990
     20          6           0       -3.742040   -0.626806   -0.400697
     21          6           0       -2.743038    0.319477   -0.230014
     22          1           0       -0.287545   -1.671819    0.919928
     23          1           0       -2.045214   -3.362479    0.617115
     24          1           0       -4.276873   -2.700730   -0.237242
     25          1           0       -4.715715   -0.316852   -0.759051
     26          1           0       -2.982318    1.353579   -0.444215
     27          6           0        1.887458    1.195818    1.633460
     28          1           0        1.705614    0.869335    2.665217
     29          1           0        2.925889    0.958791    1.402928
     30          1           0        1.819099    2.287672    1.640102
     31          7           0        2.631181   -1.010007   -0.181369
     32          6           0        2.896157   -1.632133    1.098894
     33          6           0        3.265380   -1.666275   -1.300793
     34          1           0        2.167887   -1.306576    1.836182
     35          1           0        2.823349   -2.722515    1.009353
     36          1           0        3.897837   -1.389530    1.465558
     37          1           0        3.209829   -1.037195   -2.185560
     38          1           0        4.314910   -1.845017   -1.058041
     39          1           0        2.800565   -2.632350   -1.536884
 ---------------------------------------------------------------------

 SCF Done:  E(RwB97XD) =  -731.461997655     A.U. after    1 cycles

 The electronic state is 1-A.
 Alpha  occ. eigenvalues --  -19.18744 -14.46865 -14.43586 -10.35372 -10.34304
 Alpha  occ. eigenvalues --  -10.30965 -10.29983 -10.29943 -10.29549 -10.29020
 Alpha  occ. eigenvalues --  -10.28906 -10.28790 -10.28728 -10.28477 -10.27673
 Alpha  occ. eigenvalues --  -10.26289 -10.23611  -1.10884  -1.02991  -1.01058
 Alpha  occ. eigenvalues --   -0.96731  -0.91016  -0.85308  -0.84741  -0.82224
 Alpha  occ. eigenvalues --   -0.80070  -0.78233  -0.77178  -0.75097  -0.70348
 Alpha  occ. eigenvalues --   -0.69618  -0.65418  -0.63247  -0.61201  -0.59863
 Alpha  occ. eigenvalues --   -0.57242  -0.56724  -0.55135  -0.54820  -0.54548
 Alpha  occ. eigenvalues --   -0.53546  -0.53013  -0.51083  -0.50567  -0.49692
 Alpha  occ. eigenvalues --   -0.48839  -0.47964  -0.47722  -0.47513  -0.46830
 Alpha  occ. eigenvalues --   -0.46404  -0.45716  -0.45065  -0.44498  -0.43696
 Alpha  occ. eigenvalues --   -0.43532  -0.42241  -0.41379  -0.40358  -0.33941
 Alpha  occ. eigenvalues --   -0.33553  -0.32039  -0.30474  -0.24279
 Alpha virt. eigenvalues --    0.04028   0.05520   0.08832   0.10245   0.11893
 Alpha virt. eigenvalues --    0.12931   0.13870   0.15255   0.15803   0.15967
 Alpha virt. eigenvalues --    0.16343   0.16868   0.17122   0.17524   0.18309

 Mulliken charges:
               1
     1  C   -0.444758
     2  C    0.317327
     3  O   -0.618599
     4  C    0.338931
     5  C   -0.323792
     6  H    0.152148
     7  H    0.155407
     8  H    0.157376
     9  N   -0.275884
    10  H    0.256692
    11  H    0.273076
    12  C   -0.370333
    13  H    0.133477
    14  H    0.143538
    15  H    0.145991
    16  C    0.160863
    17  C   -0.185248
    18  C   -0.175446
    19  C   -0.138411
    20  C   -0.177849
    21  C   -0.281291
    22  H    0.163006
    23  H    0.136290
    24  H    0.141768
    25  H    0.140213
    26  H    0.150852
    27  C   -0.424525
    28  H    0.120626
    29  H    0.137506
    30  H    0.115896
    31  N   -0.130183
    32  C   -0.298578
    33  C   -0.292548
    34  H    0.154165
    35  H    0.126530
    36  H    0.137925
    37  H    0.131229
    38  H    0.130245
    39  H    0.116368
 Sum of Mulliken charges =  -0.00000

 Dipole moment (field-independent basis, Debye):
    X=             -1.7557    Y=              3.9849    Z=              1.0190  Tot=              4.4722
 Quadrupole moment (field-independent basis, Debye-Ang):
   XX=            -95.4652   YY=            -87.5715   ZZ=           -108.7667
   XY=             -5.6907   XZ=              5.2953   YZ=             -8.1354

  Exact polarizability: 286.830 -15.664 277.286  19.297  -5.892 216.159
 Approx polarizability: 221.331 -10.454 220.246  16.588  -6.397 184.325

 ******    1 imaginary frequencies (negative Signs) ******

                      1                      2                      3
                      A                      A                      A
 Frequencies --   -415.2384                54.7146                56.1869
 Red. masses --      5.3460                 3.6814                 3.7450
 Frc consts  --      0.5431                 0.0065                 0.0070
 IR Inten    --    728.5699                 0.7750                 1.4292

                      4                      5                      6
                      A                      A                      A
 Frequencies --     70.6169                86.7856               111.3543
 Red. masses --      2.7735                 2.6317                 2.7785
 Frc consts  --      0.0081                 0.0117                 0.0203
 IR Inten    --      4.9391                 1.4016                 1.4661

                      7                      8                      9
                      A                      A                      A
 Frequencies --    128.5041               129.7132               155.3891
 Red. masses --      2.3015                 1.9384                 3.0960
 Frc consts  --      0.0224                 0.0192                 0.0440
 IR Inten    --      0.6340                13.0197                13.8264

                     10                     11                     12
                      A                      A                      A
 Frequencies --    169.3183               183.0699               205.7416
 Red. masses --      1.2169                 1.1988                 2.4697
 Frc consts  --      0.0206                 0.0237                 0.0616
 IR Inten    --      2.3805                 8.5370                25.2532

                     13                     14                     15
                      A                      A                      A
 Frequencies --    222.5331               226.6007               239.9567
 Red. masses --      3.2141                 1.2268                 1.7846
 Frc consts  --      0.0938                 0.0371                 0.0605
 IR Inten    --      4.2440                 0.3376                 7.0694

                     16                     17                     18
                      A                      A                      A
 Frequencies --    257.6402               285.0945               292.8248
 Red. masses --      1.3106                 3.2387                 2.3759
 Frc consts  --      0.0513                 0.1551                 0.1200
 IR Inten    --      1.8031                 9.4079                15.0593

                     19                     20                     21
                      A                      A                      A
 Frequencies --    308.2988               325.2540               362.5494
 Red. masses --      2.5559                 3.3006                 3.3589
 Frc consts  --      0.1431                 0.2057                 0.2601
 IR Inten    --      6.1055                24.0661                 5.2911

                     22                     23                     24
                      A                      A                      A
 Frequencies --    378.1667               390.6274               427.3620
 Red. masses --      3.0138                 2.5520                 3.0740
 Frc consts  --      0.2539                 0.2294                 0.3308
 IR Inten    --     42.1574                 9.5747                 2.0936

                     25                     26                     27
                      A                      A                      A
 Frequencies --    436.0188               438.9154               550.0004
 Red. masses --      4.2421                 2.7404                 3.6426
 Frc consts  --      0.4752                 0.3110                 0.6492
 IR Inten    --      8.0006                 1.0752                43.9470

                     28                     29                     30
                      A                      A                      A
 Frequencies --    569.9634               605.2445               635.8195
 Red. masses --      3.5294                 3.3171                 4.5044
 Frc consts  --      0.6755                 0.7159                 1.0729
 IR Inten    --     10.6170               115.8192                14.3492

                     31                     32                     33
                      A                      A                      A
 Frequencies --    640.4994               710.8918               730.2146
 Red. masses --      5.8688                 4.0907                 1.6341
 Frc consts  --      1.4185                 1.2180                 0.5134
 IR Inten    --     11.6136                48.5159                87.7458

                     34                     35                     36
                      A                      A                      A
 Frequencies --    753.1076               792.1702               798.7413
 Red. masses --      1.7527                 2.6085                 2.9710
 Frc consts  --      0.5857                 0.9645                 1.1168
 IR Inten    --     55.7936                26.5590                42.9448

                     37                     38                     39
                      A                      A                      A
 Frequencies --    806.6613               881.7988               930.1011
 Red. masses --      3.3197                 1.2431                 2.7131
 Frc consts  --      1.2727                 0.5695                 1.3829
 IR Inten    --     30.6099                 0.9363                54.3407

                     40                     41                     42
                      A                      A                      A
 Frequencies --    962.5769              1005.3822              1009.6928
 Red. masses --      1.4051                 1.6646                 1.2548
 Frc consts  --      0.7671                 0.9913                 0.7537
 IR Inten    --     14.3039                19.8337                24.9992

                     43                     44                     45
                      A                      A                      A
 Frequencies --   1023.9422              1027.6263              1030.0743
 Red. masses --      2.4026                 1.6710                 1.3913
 Frc consts  --      1.4842                 1.0397                 0.8698
 IR Inten    --      3.3827                12.6771                 1.9248

                     46                     47                     48
                      A                      A                      A
 Frequencies --   1045.3829              1058.9432              1066.1455
 Red. masses --      1.4409                 2.1991                 1.5818
 Frc consts  --      0.9278                 1.4529                 1.0593
 IR Inten    --     73.5872                17.0434                56.7700

                     49                     50                     51
                      A                      A                      A
 Frequencies --   1078.1837              1087.9991              1091.5385
 Red. masses --      1.6606                 1.3821                 2.7474
 Frc consts  --      1.1373                 0.9640                 1.9287
 IR Inten    --     68.7657                29.3356                26.6800

                     52                     53                     54
                      A                      A                      A
 Frequencies --   1099.2552              1108.3062              1127.0875
 Red. masses --      1.7661                 1.6297                 1.5381
 Frc consts  --      1.2574                 1.1794                 1.1512
 IR Inten    --    118.4345               154.7507                43.0333

                     55                     56                     57
                      A                      A                      A
 Frequencies --   1134.0143              1168.4891              1182.8098
 Red. masses --      1.2341                 1.4080                 1.2538
 Frc consts  --      0.9350                 1.1327                 1.0335
 IR Inten    --      2.1610                24.6989                 9.2962

                     58                     59                     60
                      A                      A                      A
 Frequencies --   1184.6151              1216.2849              1237.7302
 Red. masses --      2.2273                 1.1632                 2.2311
 Frc consts  --      1.8416                 1.0138                 2.0138
 IR Inten    --     50.8487                 8.3045                48.6614

                     61                     62                     63
                      A                      A                      A
 Frequencies --   1253.2782              1294.7833              1320.6343
 Red. masses --      1.8746                 5.1150                 4.2263
 Frc consts  --      1.7348                 5.0523                 4.3429
 IR Inten    --     75.3713                39.4597                 3.8784

                     64                     65                     66
                      A                      A                      A
 Frequencies --   1329.2203              1355.1803              1374.2422
 Red. masses --      4.1358                 1.5533                 1.3974
 Frc consts  --      4.3053                 1.6807                 1.5549
 IR Inten    --      6.6964                42.2656                37.8545

                     67                     68                     69
                      A                      A                      A
 Frequencies --   1390.2484              1404.9736              1418.2366
 Red. masses --      2.4445                 1.7947                 1.4176
 Frc consts  --      2.7837                 2.0872                 1.6799
 IR Inten    --    633.6054               276.8786                33.0503

                     70                     71                     72
                      A                      A                      A
 Frequencies --   1426.5620              1443.7883              1452.0632
 Red. masses --      1.3932                 1.2055                 1.2078
 Frc consts  --      1.6705                 1.4806                 1.5005
 IR Inten    --     90.7516                40.1599                 8.1081

                     73                     74                     75
                      A                      A                      A
 Frequencies --   1471.8630              1477.4855              1482.8778
 Red. masses --      1.1311                 1.0688                 1.1136
 Frc consts  --      1.4438                 1.3746                 1.4428
 IR Inten    --     64.6681                 1.4791                 2.8621

                     76                     77                     78
                      A                      A                      A
 Frequencies --   1486.1148              1490.4632              1495.5706
 Red. masses --      1.1366                 1.9446                 1.0652
 Frc consts  --      1.4790                 2.5452                 1.4038
 IR Inten    --     44.1223                23.7282                34.3450

                     79                     80                     81
                      A                      A                      A
 Frequencies --   1500.0117              1501.1479              1505.1579
 Red. masses --      1.0931                 1.0686                 1.0471
 Frc consts  --      1.4492                 1.4188                 1.3976
 IR Inten    --     47.1363                38.6549                 9.8499

                     82                     83                     84
                      A                      A                      A
 Frequencies --   1508.2820              1514.6469              1531.1747
 Red. masses --      1.0478                 1.0735                 1.3401
 Frc consts  --      1.4044                 1.4510                 1.8512
 IR Inten    --     24.9458                19.2302               252.1959

                     85                     86                     87
                      A                      A                      A
 Frequencies --   1543.2018              1564.3925              1647.4691
 Red. masses --      2.2081                 4.6903                 1.1838
 Frc consts  --      3.0982                 6.7630                 1.8930
 IR Inten    --     23.0902               529.4138                25.2955

                     88                     89                     90
                      A                      A                      A
 Frequencies --   1651.5644              1673.9517              2999.5342
 Red. masses --      4.7352                 5.9161                 1.0525
 Frc consts  --      7.6098                 9.7672                 5.5793
 IR Inten    --      0.8824                 5.4234               200.3135

                     91                     92                     93
                      A                      A                      A
 Frequencies --   3002.0671              3012.7975              3054.7449
 Red. masses --      1.0521                 1.0454                 1.0869
 Frc consts  --      5.5867                 5.5909                 5.9759
 IR Inten    --     83.8117               166.8357                47.5488

                     94                     95                     96
                      A                      A                      A
 Frequencies --   3063.7082              3066.6642              3066.9838
 Red. masses --      1.0334                 1.0647                 1.0709
 Frc consts  --      5.7149                 5.8995                 5.9352
 IR Inten    --     65.6808                33.0179                88.7365

                     97                     98                     99
                      A                      A                      A
 Frequencies --   3086.8084              3125.4156              3136.7933
 Red. masses --      1.0871                 1.0945                 1.1038
 Frc consts  --      6.1032                 6.2990                 6.3991
 IR Inten    --     50.2969                35.2887                16.5950

                    100                    101                    102
                      A                      A                      A
 Frequencies --   3138.9866              3158.5143              3161.0092
 Red. masses --      1.0986                 1.1040                 1.0990
 Frc consts  --      6.3780                 6.4893                 6.4698
 IR Inten    --     23.3027                32.5939                20.7317

                    103                    104                    105
                      A                      A                      A
 Frequencies --   3161.7892              3176.2225              3191.6360
 Red. masses --      1.1042                 1.0951                 1.0854
 Frc consts  --      6.5038                 6.5091                 6.5142
 IR Inten    --     21.4547                14.2594                 4.4691

                    106                    107                    108
                      A                      A                      A
 Frequencies --   3197.8762              3207.6701              3218.3435
 Red. masses --      1.0883                 1.0925                 1.0959
 Frc consts  --      6.5574                 6.6231                 6.6877
 IR Inten    --      4.6540                36.7367                26.5240

                    109                    110                    111
                      A                      A                      A
 Frequencies --   3225.5378              3307.4107              3590.8699
 Red. masses --      1.0948                 1.0704                 1.0807
 Frc consts  --      6.7111                 6.8987                 8.2100
 IR Inten    --     12.2763               245.0821                53.1358

 - Thermochemistry -
 -------------------
 Temperature   298.150 Kelvin.  Pressure   1.00000 Atm.
 Atom     1 has atomic number  6 and mass  12.00000

 Molecular mass:   234.17321 amu.
 Principal axes and moments of inertia in atomic units:
                           1         2         3
     Eigenvalues --  2913.552564726.371925970.72641
           X            0.99965  -0.02513   0.00884
           Y            0.02514   0.99968  -0.00039
           Z           -0.00882   0.00062   0.99996
 This molecule is an asymmetric top.
 Rotational symmetry number  1.
 Warning -- assumption of classical behavior for rotation
           may cause significant error
 Rotational temperatures (Kelvin)      0.02973     0.01833     0.01451
 Rotational constants (GHZ):           0.61943     0.38184     0.30226
    1 imaginary frequencies ignored.
 Zero-point vibrational energy     898123.4 (Joules/Mol)
                                  214.65663 (Kcal/Mol)
 Warning -- explicit consideration of  28 degrees of freedom as
           vibrations may cause significant error
 Vibrational temperatures:     78.72    80.84   101.60   124.87   160.21
          (Kelvin)            184.89   186.63   223.57   243.61   263.40
                              296.02   320.18   326.03   345.24   370.69
                              410.19   421.31   443.57   467.97   521.63
                              544.10   562.03   614.88   627.33   631.50
                              791.33   820.05   870.81   914.80   921.54
                             1022.81  1050.62  1083.55  1139.76  1149.21
                             1160.61  1268.71  1338.21  1384.93  1446.52
                             1452.72  1473.22  1478.53  1482.05  1504.07
                             1523.58  1533.95  1551.27  1565.39  1570.48
                             1581.58  1594.61  1621.63  1631.59  1681.20
                             1701.80  1704.40  1749.96  1780.82  1803.19
                             1862.90  1900.10  1912.45  1949.80  1977.23
                             2000.26  2021.44  2040.53  2052.50  2077.29
                             2089.20  2117.68  2125.77  2133.53  2138.19
                             2144.44  2151.79  2158.18  2159.82  2165.59
                             2170.08  2179.24  2203.02  2220.32  2250.81
                             2370.34  2376.23  2408.44  4315.66  4319.30
                             4334.74  4395.10  4407.99  4412.25  4412.71
                             4441.23  4496.78  4513.15  4516.30  4544.40
                             4547.99  4549.11  4569.88  4592.05  4601.03
                             4615.12  4630.48  4640.83  4758.63  5166.46

 Zero-point correction=                           0.342077 (Hartree/Particle)
 Thermal correction to Energy=                    0.360275
 Thermal correction to Enthalpy=                  0.361219
 Thermal correction to Gibbs Free Energy=         0.297001
 Sum of electronic and zero-point Energies=           -731.119921
 Sum of electronic and thermal Energies=              -731.101722
 Sum of electronic and thermal Enthalpies=            -731.100778
 Sum of electronic and thermal Free Energies=         -731.164997

                     E (Thermal)             CV                S
                      KCal/Mol        Cal/Mol-Kelvin    Cal/Mol-Kelvin
 Total                  226.076             68.788            135.160
 Electronic               0.000              0.000              0.000
 Translational            0.889              2.981             42.254
 Rotational               0.889              2.981             32.775
 Vibrational            224.299             62.826             60.131
 Vibration     1          0.596              1.976              4.639
 Vibration     2          0.596              1.975              4.587
 Vibration     3          0.598              1.968              4.136
 Vibration     4          0.601              1.958              3.731
 Vibration     5          0.607              1.940              3.245
 Vibration     6          0.611              1.925              2.968
 Vibration     7          0.612              1.924              2.950
 Vibration     8          0.620              1.897              2.605
 Vibration     9          0.625              1.880              2.443
 Vibration    10          0.631              1.863              2.297
 Vibration    11          0.640              1.832              2.081
 Vibration    12          0.648              1.807              1.938
 Vibration    13          0.650              1.800              1.906
 Vibration    14          0.657              1.779              1.803
 Vibration    15          0.667              1.750              1.678
 Vibration    16          0.683              1.701              1.503
 Vibration    17          0.688              1.687              1.458
 Vibration    18          0.698              1.658              1.371
 Vibration    19          0.709              1.625              1.284
 Vibration    20          0.736              1.549              1.111
 Vibration    21          0.748              1.517              1.046
 Vibration    22          0.758              1.490              0.998
 Vibration    23          0.789              1.411              0.867
 Vibration    24          0.796              1.392              0.839
 Vibration    25          0.799              1.385              0.830
 Vibration    26          0.905              1.140              0.544
 Vibration    27          0.926              1.096              0.504
 Vibration    28          0.964              1.021              0.441

 Optimization completed.
    -- Stationary point found.
 Normal termination of Gaussian 16 at Mon Apr 12 21:32:26 2021.
