 Gaussian 16, Revision A.03,
 Gaussian 16:  ES64L-G16RevA.03 25-Dec-2016

 ----------------------------------------------------------------------
 # wB97XD def2tzvp, opt=(ts, noeigen, calcfc, maxcycles=70, maxstep=1),
  freq=noraman, scrf=(iefpcm, solvent=water)
 ----------------------------------------------------------------------

 ------------------------
 0_iteration/TS-457-0.out
 ------------------------
 Symbolic Z-matrix:
 Charge =  0 Multiplicity = 1

 SCF Done:  E(RwB97XD) =  -366.425560102     A.U. after   14 cycles
 SCF Done:  E(RwB97XD) =  -366.425531661     A.U. after   10 cycles
 SCF Done:  E(RwB97XD) =  -366.425506894     A.U. after   10 cycles
 SCF Done:  E(RwB97XD) =  -366.425485861     A.U. after   10 cycles
 SCF Done:  E(RwB97XD) =  -366.425468677     A.U. after   10 cycles
 SCF Done:  E(RwB97XD) =  -366.425455580     A.U. after   10 cycles
 SCF Done:  E(RwB97XD) =  -366.425447142     A.U. after   10 cycles
 SCF Done:  E(RwB97XD) =  -366.425444983     A.U. after   10 cycles
 SCF Done:  E(RwB97XD) =  -366.425452832     A.U. after   10 cycles
 SCF Done:  E(RwB97XD) =  -366.425468441     A.U. after   10 cycles
 SCF Done:  E(RwB97XD) =  -366.426156841     A.U. after   10 cycles
 SCF Done:  E(RwB97XD) =  -366.426200458     A.U. after   10 cycles
 SCF Done:  E(RwB97XD) =  -366.426238881     A.U. after   10 cycles
 SCF Done:  E(RwB97XD) =  -366.426270974     A.U. after   10 cycles
 SCF Done:  E(RwB97XD) =  -366.426294945     A.U. after   10 cycles
 SCF Done:  E(RwB97XD) =  -366.426309499     A.U. after   10 cycles
 SCF Done:  E(RwB97XD) =  -366.426314084     A.U. after   10 cycles
 SCF Done:  E(RwB97XD) =  -366.426314315     A.U. after    7 cycles
 SCF Done:  E(RwB97XD) =  -366.426314396     A.U. after    6 cycles
 Optimization completed.
    -- Stationary point found.
 Normal termination of Gaussian 16 at Sat Feb 13 07:00:29 2021.

 ---------------------------------------------------------------------
 #N Geom=AllCheck Guess=TCheck SCRF=Check GenChk RwB97XD/def2TZVP Freq
 ---------------------------------------------------------------------

 Structure from the checkpoint file:  "/beegfs/scratch/user/q/tla25/Gau-116382.chk"
 ------------------------
 0_iteration/TS-457-0.out
 ------------------------
 Charge =  0 Multiplicity = 1

                         Standard orientation:
 ---------------------------------------------------------------------
 Center     Atomic      Atomic             Coordinates (Angstroms)
 Number     Number       Type             X           Y           Z
 ---------------------------------------------------------------------
      1          6           0        0.664465   -0.426466   -0.046427
      2          6           0        1.584214    0.462974   -0.628289
      3          8           0        2.746609    0.709605   -0.261854
      4          6           0       -0.606849   -0.527657   -0.636209
      5          6           0       -1.257241    2.005694    0.369437
      6          1           0       -1.125164    2.446081   -0.617533
      7          1           0       -1.887456    2.656455    0.975025
      8          1           0       -0.278630    1.908264    0.839045
      9          7           0       -1.833713    0.676074    0.224539
     10          1           0       -2.690390    0.695268   -0.316222
     11          1           0       -2.048621    0.268140    1.126901
     12          6           0       -1.419362   -1.787574   -0.507306
     13          1           0       -0.916329   -2.583415   -1.060673
     14          1           0       -1.501605   -2.110752    0.530906
     15          1           0       -2.421269   -1.673289   -0.920144
     16          1           0       -0.697187   -0.040566   -1.603862
     17          6           0        1.015353   -1.191322    1.199638
     18          1           0        0.957680   -2.274911    1.058995
     19          1           0        2.034519   -0.949505    1.501553
     20          1           0        0.354487   -0.944498    2.038467
     21          1           0        1.199593    0.979468   -1.534465
 ---------------------------------------------------------------------

 SCF Done:  E(RwB97XD) =  -366.426314396     A.U. after    1 cycles

 The electronic state is 1-A.
 Alpha  occ. eigenvalues --  -19.18966 -14.48110 -10.33334 -10.32598 -10.31392
 Alpha  occ. eigenvalues --  -10.27994 -10.26340 -10.24720  -1.08844  -1.03631
 Alpha  occ. eigenvalues --   -0.90735  -0.82783  -0.78408  -0.76816  -0.68440
 Alpha  occ. eigenvalues --   -0.63615  -0.60225  -0.56769  -0.56260  -0.54775
 Alpha  occ. eigenvalues --   -0.51285  -0.49536  -0.48670  -0.47684  -0.47380
 Alpha  occ. eigenvalues --   -0.46567  -0.44102  -0.43518  -0.42670  -0.40753
 Alpha  occ. eigenvalues --   -0.31003  -0.26387
 Alpha virt. eigenvalues --    0.06664   0.09678   0.12955   0.13712   0.14121
 Alpha virt. eigenvalues --    0.15627   0.16842   0.17749   0.18466   0.19263
 Alpha virt. eigenvalues --    0.19895   0.20462   0.21559   0.22323   0.23327

 Mulliken charges:
               1
     1  C   -0.085485
     2  C    0.082070
     3  O   -0.561356
     4  C   -0.064586
     5  C   -0.303023
     6  H    0.153049
     7  H    0.156438
     8  H    0.161190
     9  N   -0.324813
    10  H    0.285947
    11  H    0.280814
    12  C   -0.349116
    13  H    0.144228
    14  H    0.143954
    15  H    0.138588
    16  H    0.155329
    17  C   -0.425321
    18  H    0.127663
    19  H    0.122645
    20  H    0.118661
    21  H    0.043125
 Sum of Mulliken charges =  -0.00000

 Dipole moment (field-independent basis, Debye):
    X=            -12.3753    Y=              0.0655    Z=              0.6352  Tot=             12.3917
 Quadrupole moment (field-independent basis, Debye-Ang):
   XX=            -61.5039   YY=            -48.3089   ZZ=            -48.4878
   XY=             -7.6740   XZ=              0.7330   YZ=              0.6646

  Exact polarizability: 158.899   5.479 113.387  -1.155  -4.103 102.939
 Approx polarizability: 123.374   5.130  90.476   0.437  -2.141  86.211

 ******    1 imaginary frequencies (negative Signs) ******

                      1                      2                      3
                      A                      A                      A
 Frequencies --   -363.9163                60.8654                90.7776
 Red. masses --      5.6522                 2.1805                 3.2697
 Frc consts  --      0.4410                 0.0048                 0.0159
 IR Inten    --    875.5153                 0.5391                 1.3725

                      4                      5                      6
                      A                      A                      A
 Frequencies --    116.6915               127.3619               168.9739
 Red. masses --      1.1326                 1.4925                 1.4961
 Frc consts  --      0.0091                 0.0143                 0.0252
 IR Inten    --      0.1710                 8.6794                 6.6500

                      7                      8                      9
                      A                      A                      A
 Frequencies --    225.5353               232.5323               248.7280
 Red. masses --      3.0769                 1.1563                 2.9082
 Frc consts  --      0.0922                 0.0368                 0.1060
 IR Inten    --      3.5073                 2.7116                 6.3849

                     10                     11                     12
                      A                      A                      A
 Frequencies --    286.8142               331.1812               380.6335
 Red. masses --      2.3389                 2.9854                 2.2937
 Frc consts  --      0.1134                 0.1929                 0.1958
 IR Inten    --      5.6468                 9.5405                 8.1071

                     13                     14                     15
                      A                      A                      A
 Frequencies --    488.5683               502.4534               606.5920
 Red. masses --      2.4529                 3.3362                 2.0559
 Frc consts  --      0.3450                 0.4962                 0.4457
 IR Inten    --    113.1188                18.5283                35.3942

                     16                     17                     18
                      A                      A                      A
 Frequencies --    713.7135               832.8206               959.1435
 Red. masses --      1.8570                 3.0574                 1.4530
 Frc consts  --      0.5573                 1.2494                 0.7876
 IR Inten    --     22.1070                 9.9455                42.7911

                     19                     20                     21
                      A                      A                      A
 Frequencies --    996.3079               998.7779              1023.4173
 Red. masses --      1.2402                 1.1468                 1.6156
 Frc consts  --      0.7253                 0.6740                 0.9970
 IR Inten    --    104.9120                52.0952                 4.3420

                     22                     23                     24
                      A                      A                      A
 Frequencies --   1030.4328              1065.1984              1066.6222
 Red. masses --      1.2962                 1.4568                 1.6368
 Frc consts  --      0.8109                 0.9739                 1.0971
 IR Inten    --     52.4956                44.6942                64.6466

                     25                     26                     27
                      A                      A                      A
 Frequencies --   1092.9711              1136.9578              1181.2181
 Red. masses --      3.0168                 2.5414                 1.1679
 Frc consts  --      2.1233                 1.9356                 0.9601
 IR Inten    --     16.2831                21.0543                90.3369

                     28                     29                     30
                      A                      A                      A
 Frequencies --   1217.6803              1275.3459              1349.8127
 Red. masses --      1.4105                 1.5023                 1.3200
 Frc consts  --      1.2322                 1.4397                 1.4170
 IR Inten    --     20.5588               117.5184                 1.0258

                     31                     32                     33
                      A                      A                      A
 Frequencies --   1386.0168              1406.9710              1420.0580
 Red. masses --      1.3877                 1.3607                 1.5931
 Frc consts  --      1.5707                 1.5870                 1.8928
 IR Inten    --     38.2240               187.2188                36.8250

                     34                     35                     36
                      A                      A                      A
 Frequencies --   1435.3530              1445.7618              1471.6314
 Red. masses --      2.0121                 1.1834                 1.2184
 Frc consts  --      2.4424                 1.4574                 1.5546
 IR Inten    --     60.8221                 9.9425                29.8750

                     37                     38                     39
                      A                      A                      A
 Frequencies --   1485.6626              1491.7028              1493.7991
 Red. masses --      1.0531                 1.0814                 1.0569
 Frc consts  --      1.3695                 1.4177                 1.3896
 IR Inten    --     12.1616                 4.3959                 3.5692

                     40                     41                     42
                      A                      A                      A
 Frequencies --   1495.0654              1497.5156              1527.0008
 Red. masses --      1.0438                 1.0595                 2.1262
 Frc consts  --      1.3747                 1.3999                 2.9210
 IR Inten    --     20.8085                25.3164               296.5168

                     43                     44                     45
                      A                      A                      A
 Frequencies --   1637.6046              1650.6359              2867.0912
 Red. masses --      5.9904                 1.0897                 1.0798
 Frc consts  --      9.4651                 1.7493                 5.2297
 IR Inten    --   1244.4041                41.9651               216.7609

                     46                     47                     48
                      A                      A                      A
 Frequencies --   3017.2829              3059.2130              3065.4571
 Red. masses --      1.0429                 1.0381                 1.0958
 Frc consts  --      5.5942                 5.7240                 6.0672
 IR Inten    --     79.2727                17.2557                68.1633

                     49                     50                     51
                      A                      A                      A
 Frequencies --   3067.4972              3128.9823              3131.9240
 Red. masses --      1.0331                 1.0999                 1.0964
 Frc consts  --      5.7274                 6.3446                 6.3362
 IR Inten    --     25.7976                14.7824                25.4809

                     52                     53                     54
                      A                      A                      A
 Frequencies --   3139.3038              3147.7216              3154.1632
 Red. masses --      1.0974                 1.1050                 1.0957
 Frc consts  --      6.3720                 6.4505                 6.4226
 IR Inten    --      5.2746                 9.3859                57.0154

                     55                     56                     57
                      A                      A                      A
 Frequencies --   3160.0480              3528.6852              3610.0552
 Red. masses --      1.1054                 1.0505                 1.0960
 Frc consts  --      6.5037                 7.7065                 8.4159
 IR Inten    --     13.5685                40.8859                40.1917

 - Thermochemistry -
 -------------------
 Temperature   298.150 Kelvin.  Pressure   1.00000 Atm.
 Atom     1 has atomic number  6 and mass  12.00000

 Molecular mass:   115.09971 amu.
 Principal axes and moments of inertia in atomic units:
                           1         2         3
     Eigenvalues --   775.060451238.535461645.21649
           X            0.99938  -0.03205   0.01437
           Y            0.03222   0.99941  -0.01189
           Z           -0.01398   0.01234   0.99983
 This molecule is an asymmetric top.
 Rotational symmetry number  1.
 Warning -- assumption of classical behavior for rotation
           may cause significant error
 Rotational temperatures (Kelvin)      0.11175     0.06993     0.05265
 Rotational constants (GHZ):           2.32852     1.45716     1.09696
    1 imaginary frequencies ignored.
 Zero-point vibrational energy     488855.9 (Joules/Mol)
                                  116.83938 (Kcal/Mol)
 Warning -- explicit consideration of  14 degrees of freedom as
           vibrations may cause significant error
 Vibrational temperatures:     87.57   130.61   167.89   183.25   243.12
          (Kelvin)            324.49   334.56   357.86   412.66   476.50
                              547.65   702.94   722.92   872.75  1026.87
                             1198.24  1379.99  1433.46  1437.02  1472.47
                             1482.56  1532.58  1534.63  1572.54  1635.83
                             1699.51  1751.97  1834.94  1942.08  1994.17
                             2024.32  2043.15  2065.15  2080.13  2117.35
                             2137.54  2146.23  2149.24  2151.07  2154.59
                             2197.01  2356.15  2374.90  4125.10  4341.20
                             4401.53  4410.51  4413.44  4501.91  4506.14
                             4516.76  4528.87  4538.14  4546.60  5076.99
                             5194.06

 Zero-point correction=                           0.186195 (Hartree/Particle)
 Thermal correction to Energy=                    0.196467
 Thermal correction to Enthalpy=                  0.197411
 Thermal correction to Gibbs Free Energy=         0.150736
 Sum of electronic and zero-point Energies=           -366.240119
 Sum of electronic and thermal Energies=              -366.229848
 Sum of electronic and thermal Enthalpies=            -366.228904
 Sum of electronic and thermal Free Energies=         -366.275578

                     E (Thermal)             CV                S
                      KCal/Mol        Cal/Mol-Kelvin    Cal/Mol-Kelvin
 Total                  123.285             35.611             98.235
 Electronic               0.000              0.000              0.000
 Translational            0.889              2.981             40.137
 Rotational               0.889              2.981             28.848
 Vibrational            121.507             29.650             29.250
 Vibration     1          0.597              1.973              4.429
 Vibration     2          0.602              1.956              3.643
 Vibration     3          0.608              1.936              3.154
 Vibration     4          0.611              1.926              2.986
 Vibration     5          0.625              1.881              2.447
 Vibration     6          0.650              1.802              1.914
 Vibration     7          0.653              1.791              1.859
 Vibration     8          0.662              1.765              1.740
 Vibration     9          0.684              1.698              1.493
 Vibration    10          0.714              1.613              1.254
 Vibration    11          0.750              1.511              1.037
 Vibration    12          0.844              1.275              0.687
 Vibration    13          0.858              1.245              0.652
 Vibration    14          0.965              1.018              0.438

 Optimization completed.
    -- Stationary point found.
 Normal termination of Gaussian 16 at Sat Feb 13 07:09:49 2021.
