 Gaussian 16, Revision A.03,
 Gaussian 16:  ES64L-G16RevA.03 25-Dec-2016

 ----------------------------------------------------------------------
 # wB97XD def2tzvp, opt=(ts, noeigen, calcfc, maxcycles=70, maxstep=8),
  freq=noraman, scrf=(iefpcm, solvent=water)
 ----------------------------------------------------------------------

 -----------------------
 1_iteration/TS-43-1.out
 -----------------------
 Symbolic Z-matrix:
 Charge =  0 Multiplicity = 1

 SCF Done:  E(RwB97XD) =  -805.285552270     A.U. after   15 cycles
 Optimization completed.
    -- Stationary point found.
 Normal termination of Gaussian 16 at Sun Jan 31 07:28:30 2021.

 ---------------------------------------------------------------------
 #N Geom=AllCheck Guess=TCheck SCRF=Check GenChk RwB97XD/def2TZVP Freq
 ---------------------------------------------------------------------

 Structure from the checkpoint file:  "/beegfs/scratch/user/q/tla25/Gau-111128.chk"
 -----------------------
 1_iteration/TS-43-1.out
 -----------------------
 Charge =  0 Multiplicity = 1

                         Standard orientation:
 ---------------------------------------------------------------------
 Center     Atomic      Atomic             Coordinates (Angstroms)
 Number     Number       Type             X           Y           Z
 ---------------------------------------------------------------------
      1          6           0       -0.927089   -0.741081   -0.461519
      2          6           0       -1.974018   -1.675972   -0.739949
      3          8           0       -1.781817   -2.913462   -0.790759
      4          6           0        0.371491   -1.306099   -0.421159
      5          6           0        0.050102   -1.951780    2.307431
      6          1           0       -0.279977   -2.732570    2.992651
      7          1           0        0.885041   -1.414609    2.751411
      8          1           0       -0.776159   -1.258691    2.137361
      9          7           0        0.445472   -2.500369    1.019181
     10          1           0        1.342483   -2.969759    1.048681
     11          1           0       -0.263397   -3.132920    0.649631
     12          6           0        1.602490   -0.483418   -0.263429
     13          6           0        1.745470    0.468192    0.745781
     14          6           0        2.913799    1.202113    0.863381
     15          6           0        3.957339    1.005324   -0.031809
     16          6           0        3.827640    0.060604   -1.038229
     17          6           0        2.661451   -0.683557   -1.144509
     18          1           0        0.933439    0.645131    1.437921
     19          1           0        3.009048    1.935303    1.654361
     20          1           0        4.867788    1.584265    0.058091
     21          1           0        4.636470   -0.103215   -1.739039
     22          1           0        2.568811   -1.427807   -1.926839
     23          1           0        0.521632   -2.129259   -1.113649
     24          6           0       -1.216741    0.692129   -0.209599
     25          6           0       -0.658492    1.691540   -1.012769
     26          6           0       -0.911043    3.034639   -0.780779
     27          6           0       -1.753113    3.418628    0.253841
     28          6           0       -2.336322    2.443428    1.050581
     29          6           0       -2.065881    1.102098    0.822711
     30          1           0       -0.007551    1.402510   -1.829179
     31          1           0       -0.456084    3.784490   -1.416689
     32          1           0       -1.956394    4.466758    0.434341
     33          1           0       -2.996333    2.728047    1.861121
     34          1           0       -2.519040    0.351778    1.460081
     35          7           0       -3.255629   -1.209913   -0.920339
     36          1           0       -3.398810   -0.243123   -1.154859
     37          1           0       -3.907828   -1.867384   -1.311029
 ---------------------------------------------------------------------

 SCF Done:  E(RwB97XD) =  -805.285552270     A.U. after    1 cycles

 The electronic state is 1-A.
 Alpha  occ. eigenvalues --  -19.19240 -14.47693 -14.42809 -10.36510 -10.33473
 Alpha  occ. eigenvalues --  -10.31301 -10.30236 -10.29370 -10.29231 -10.29165
 Alpha  occ. eigenvalues --  -10.29125 -10.29092 -10.29060 -10.28496 -10.28437
 Alpha  occ. eigenvalues --  -10.28335 -10.28108 -10.28017 -10.24970  -1.11267
 Alpha  occ. eigenvalues --   -1.03379  -0.98312  -0.97137  -0.95832  -0.90071
 Alpha  occ. eigenvalues --   -0.86031  -0.85257  -0.84364  -0.81996  -0.78652
 Alpha  occ. eigenvalues --   -0.74537  -0.70850  -0.69680  -0.69254  -0.68275
 Alpha  occ. eigenvalues --   -0.64221  -0.62627  -0.61402  -0.60823  -0.58892
 Alpha  occ. eigenvalues --   -0.57410  -0.56242  -0.54734  -0.54596  -0.54102
 Alpha  occ. eigenvalues --   -0.52784  -0.52139  -0.51150  -0.50274  -0.49918
 Alpha  occ. eigenvalues --   -0.49199  -0.48382  -0.47466  -0.47193  -0.46818
 Alpha  occ. eigenvalues --   -0.45834  -0.43808  -0.43154  -0.42061  -0.41754
 Alpha  occ. eigenvalues --   -0.41514  -0.35049  -0.34485  -0.34096  -0.33574
 Alpha  occ. eigenvalues --   -0.32527  -0.32173  -0.25401
 Alpha virt. eigenvalues --    0.02961   0.04670   0.05506   0.06321   0.09875
 Alpha virt. eigenvalues --    0.10711   0.12701   0.13337   0.13607   0.13857
 Alpha virt. eigenvalues --    0.15138   0.16177   0.16650   0.16799   0.17582

 Mulliken charges:
               1
     1  C   -0.263362
     2  C    0.334594
     3  O   -0.598675
     4  C    0.046626
     5  C   -0.299511
     6  H    0.155363
     7  H    0.157125
     8  H    0.136875
     9  N   -0.280262
    10  H    0.276547
    11  H    0.273769
    12  C    0.171755
    13  C   -0.265620
    14  C   -0.155069
    15  C   -0.147501
    16  C   -0.137601
    17  C   -0.241834
    18  H    0.190511
    19  H    0.141673
    20  H    0.144466
    21  H    0.142778
    22  H    0.140047
    23  H    0.141632
    24  C    0.117426
    25  C   -0.203796
    26  C   -0.170559
    27  C   -0.145328
    28  C   -0.133017
    29  C   -0.262516
    30  H    0.140062
    31  H    0.135349
    32  H    0.139370
    33  H    0.136755
    34  H    0.144223
    35  N   -0.486310
    36  H    0.270535
    37  H    0.253481
 Sum of Mulliken charges =  -0.00000

 Dipole moment (field-independent basis, Debye):
    X=              3.7926    Y=              0.5092    Z=              3.2275  Tot=              5.0060
 Quadrupole moment (field-independent basis, Debye-Ang):
   XX=           -103.4387   YY=           -112.3932   ZZ=           -104.9860
   XY=            -10.4888   XZ=             -2.1847   YZ=             -7.3586

  Exact polarizability: 316.018   8.502 310.604 -18.672  13.950 248.160
 Approx polarizability: 241.674   6.619 249.155 -20.076  12.847 212.789

 ******    1 imaginary frequencies (negative Signs) ******

                      1                      2                      3
                      A                      A                      A
 Frequencies --   -389.3265                40.6198                47.7369
 Red. masses --      5.6688                 4.5525                 3.9318
 Frc consts  --      0.5063                 0.0044                 0.0053
 IR Inten    --    802.8579                 0.4178                 0.5322

                      4                      5                      6
                      A                      A                      A
 Frequencies --     59.9853                77.5178                86.9356
 Red. masses --      4.3039                 4.1985                 3.0316
 Frc consts  --      0.0091                 0.0149                 0.0135
 IR Inten    --      2.9615                 0.9970                 2.4260

                      7                      8                      9
                      A                      A                      A
 Frequencies --    102.7082               116.6699               134.9168
 Red. masses --      3.9411                 6.0048                 3.3822
 Frc consts  --      0.0245                 0.0482                 0.0363
 IR Inten    --      0.3048                17.3794                 6.8959

                     10                     11                     12
                      A                      A                      A
 Frequencies --    179.3755               198.8248               215.0072
 Red. masses --      3.3587                 1.7659                 4.0756
 Frc consts  --      0.0637                 0.0411                 0.1110
 IR Inten    --     24.1071                31.6128                 2.5036

                     13                     14                     15
                      A                      A                      A
 Frequencies --    260.9417               272.6766               283.6261
 Red. masses --      2.6264                 2.2381                 3.6237
 Frc consts  --      0.1054                 0.0980                 0.1717
 IR Inten    --     20.2250                 9.1836                22.9034

                     16                     17                     18
                      A                      A                      A
 Frequencies --    310.9712               355.9528               364.6884
 Red. masses --      3.8894                 1.6281                 3.2140
 Frc consts  --      0.2216                 0.1215                 0.2519
 IR Inten    --      3.7715               275.8174               106.1868

                     19                     20                     21
                      A                      A                      A
 Frequencies --    415.7031               426.5954               429.7946
 Red. masses --      3.8034                 2.8973                 2.8970
 Frc consts  --      0.3872                 0.3107                 0.3153
 IR Inten    --     32.3229                 1.2430                 1.4959

                     22                     23                     24
                      A                      A                      A
 Frequencies --    467.4084               511.8504               528.4687
 Red. masses --      1.8665                 1.8280                 2.8700
 Frc consts  --      0.2403                 0.2822                 0.4723
 IR Inten    --     32.3367                20.9764                 7.7170

                     25                     26                     27
                      A                      A                      A
 Frequencies --    572.2203               590.5845               632.2743
 Red. masses --      4.0160                 3.2834                 5.9142
 Frc consts  --      0.7748                 0.6747                 1.3930
 IR Inten    --     47.4881               108.7517                 2.3334

                     28                     29                     30
                      A                      A                      A
 Frequencies --    638.5184               651.7498               675.4260
 Red. masses --      6.3664                 4.2052                 4.3390
 Frc consts  --      1.5293                 1.0524                 1.1663
 IR Inten    --      0.9244                23.7719                 2.0180

                     31                     32                     33
                      A                      A                      A
 Frequencies --    716.3023               729.2565               730.0518
 Red. masses --      1.6983                 1.5941                 1.5417
 Frc consts  --      0.5134                 0.4995                 0.4841
 IR Inten    --     64.0419                41.7127               145.5336

                     34                     35                     36
                      A                      A                      A
 Frequencies --    762.9240               793.6759               802.3606
 Red. masses --      3.7794                 3.5099                 2.2789
 Frc consts  --      1.2961                 1.3027                 0.8644
 IR Inten    --     86.4007                19.1379                 5.4345

                     37                     38                     39
                      A                      A                      A
 Frequencies --    821.8565               878.0070               879.7292
 Red. masses --      3.5782                 2.8354                 1.3420
 Frc consts  --      1.4240                 1.2878                 0.6119
 IR Inten    --     23.2768                21.7727                 4.3453

                     40                     41                     42
                      A                      A                      A
 Frequencies --    882.3845               955.4297               964.1033
 Red. masses --      1.2567                 1.4674                 1.4296
 Frc consts  --      0.5765                 0.7892                 0.7829
 IR Inten    --      0.4975                 1.7702                 4.5738

                     43                     44                     45
                      A                      A                      A
 Frequencies --   1012.6422              1014.7836              1016.5545
 Red. masses --      1.1635                 1.3740                 1.3820
 Frc consts  --      0.7029                 0.8336                 0.8414
 IR Inten    --     82.1702                 6.4565                 0.6710

                     46                     47                     48
                      A                      A                      A
 Frequencies --   1024.4951              1025.6419              1026.9174
 Red. masses --      2.0213                 2.2429                 4.6233
 Frc consts  --      1.2499                 1.3901                 2.8726
 IR Inten    --      0.9640                 1.4139                 1.3741

                     49                     50                     51
                      A                      A                      A
 Frequencies --   1033.1935              1039.0765              1052.1493
 Red. masses --      1.3974                 3.5386                 3.0152
 Frc consts  --      0.8789                 2.2510                 1.9666
 IR Inten    --      1.5588                62.6664               128.6721

                     52                     53                     54
                      A                      A                      A
 Frequencies --   1063.8174              1069.7274              1084.2871
 Red. masses --      2.1979                 1.8925                 1.2720
 Frc consts  --      1.4655                 1.2759                 0.8811
 IR Inten    --      3.8163                19.8009                58.9251

                     55                     56                     57
                      A                      A                      A
 Frequencies --   1095.0936              1109.7962              1120.4863
 Red. masses --      1.7050                 1.5758                 1.5864
 Frc consts  --      1.2047                 1.1435                 1.1735
 IR Inten    --     71.2088                 8.3635                12.6556

                     58                     59                     60
                      A                      A                      A
 Frequencies --   1179.3637              1182.8270              1186.0509
 Red. masses --      1.2023                 1.5413                 1.4698
 Frc consts  --      0.9853                 1.2705                 1.2182
 IR Inten    --      6.8480                19.8470                24.2651

                     61                     62                     63
                      A                      A                      A
 Frequencies --   1208.8311              1212.1882              1214.5671
 Red. masses --      1.1325                 1.4274                 1.1307
 Frc consts  --      0.9750                 1.2357                 0.9827
 IR Inten    --      1.0164                55.4383                 2.6787

                     64                     65                     66
                      A                      A                      A
 Frequencies --   1229.2437              1271.4170              1304.9674
 Red. masses --      1.8009                 1.3798                 4.4875
 Frc consts  --      1.6033                 1.3141                 4.5025
 IR Inten    --     12.9932               133.6140                 2.9174

                     67                     68                     69
                      A                      A                      A
 Frequencies --   1328.1451              1355.5460              1357.8568
 Red. masses --      4.5798                 1.4735                 1.4752
 Frc consts  --      4.7598                 1.5953                 1.6025
 IR Inten    --      2.4801                43.9446                16.0375

                     70                     71                     72
                      A                      A                      A
 Frequencies --   1364.6052              1374.9297              1405.7921
 Red. masses --      1.5582                 1.7721                 4.5304
 Frc consts  --      1.7096                 1.9738                 5.2751
 IR Inten    --      9.0311               198.7790               336.2574

                     73                     74                     75
                      A                      A                      A
 Frequencies --   1441.0992              1454.2469              1487.7185
 Red. masses --      1.9523                 1.4703                 2.2744
 Frc consts  --      2.3889                 1.8321                 2.9659
 IR Inten    --    385.1424               137.3195                35.0509

                     76                     77                     78
                      A                      A                      A
 Frequencies --   1497.4589              1504.1076              1508.3104
 Red. masses --      1.0447                 2.1287                 1.0839
 Frc consts  --      1.3802                 2.8374                 1.4528
 IR Inten    --     17.3968                89.0086                 0.3937

                     79                     80                     81
                      A                      A                      A
 Frequencies --   1542.1149              1550.2567              1589.6061
 Red. masses --      2.4146                 2.4497                 3.2751
 Frc consts  --      3.3832                 3.4687                 4.8759
 IR Inten    --     36.2132                 2.0546               834.5076

                     82                     83                     84
                      A                      A                      A
 Frequencies --   1626.0264              1639.6336              1654.9142
 Red. masses --      1.4301                 5.5320                 3.8491
 Frc consts  --      2.2278                 8.7625                 6.2110
 IR Inten    --    356.7929                12.5396                12.2508

                     85                     86                     87
                      A                      A                      A
 Frequencies --   1657.2909              1668.8857              1679.1188
 Red. masses --      1.2767                 5.8562                 5.8578
 Frc consts  --      2.0661                 9.6099                 9.7308
 IR Inten    --      3.2635                20.8118                 0.0707

                     88                     89                     90
                      A                      A                      A
 Frequencies --   3062.3411              3133.4425              3138.5901
 Red. masses --      1.0340                 1.1037                 1.0889
 Frc consts  --      5.7131                 6.3849                 6.3200
 IR Inten    --     46.3189                12.4854                29.5307

                     91                     92                     93
                      A                      A                      A
 Frequencies --   3167.2735              3185.5836              3189.5774
 Red. masses --      1.1042                 1.0855                 1.0877
 Frc consts  --      6.5261                 6.4901                 6.5198
 IR Inten    --     20.0027                 9.9240                 0.2274

                     94                     95                     96
                      A                      A                      A
 Frequencies --   3190.3096              3197.6701              3199.9034
 Red. masses --      1.0874                 1.0881                 1.0913
 Frc consts  --      6.5208                 6.5552                 6.5838
 IR Inten    --      7.1448                 1.1532                17.2230

                     97                     98                     99
                      A                      A                      A
 Frequencies --   3205.6032              3207.5868              3217.1319
 Red. masses --      1.0950                 1.0921                 1.0987
 Frc consts  --      6.6296                 6.6204                 6.6998
 IR Inten    --     55.2011                23.5478                22.0183

                    100                    101                    102
                      A                      A                      A
 Frequencies --   3218.0590              3225.3407              3456.5944
 Red. masses --      1.0955                 1.0968                 1.0586
 Frc consts  --      6.6842                 6.7223                 7.4522
 IR Inten    --     30.1706                 8.3079                93.8601

                    103                    104                    105
                      A                      A                      A
 Frequencies --   3590.2351              3611.1098              3731.6425
 Red. masses --      1.0894                 1.0460                 1.1027
 Frc consts  --      8.2734                 8.0362                 9.0474
 IR Inten    --     78.4260                55.5929                62.4700

 - Thermochemistry -
 -------------------
 Temperature   298.150 Kelvin.  Pressure   1.00000 Atm.
 Atom     1 has atomic number  6 and mass  12.00000

 Molecular mass:   254.14191 amu.
 Principal axes and moments of inertia in atomic units:
                           1         2         3
     Eigenvalues --  3955.255005093.788547273.08796
           X            0.99984  -0.01640  -0.00651
           Y            0.01631   0.99978  -0.01303
           Z            0.00672   0.01292   0.99989
 This molecule is an asymmetric top.
 Rotational symmetry number  1.
 Warning -- assumption of classical behavior for rotation
           may cause significant error
 Rotational temperatures (Kelvin)      0.02190     0.01700     0.01191
 Rotational constants (GHZ):           0.45629     0.35430     0.24814
    1 imaginary frequencies ignored.
 Zero-point vibrational energy     819200.4 (Joules/Mol)
                                  195.79359 (Kcal/Mol)
 Warning -- explicit consideration of  25 degrees of freedom as
           vibrations may cause significant error
 Vibrational temperatures:     58.44    68.68    86.31   111.53   125.08
          (Kelvin)            147.77   167.86   194.12   258.08   286.06
                              309.35   375.44   392.32   408.07   447.42
                              512.14   524.71   598.10   613.78   618.38
                              672.50   736.44   760.35   823.30   849.72
                              909.70   918.69   937.72   971.79  1030.60
                             1049.24  1050.38  1097.68  1141.92  1154.42
                             1182.47  1263.26  1265.73  1269.55  1374.65
                             1387.13  1456.97  1460.05  1462.60  1474.02
                             1475.67  1477.51  1486.53  1495.00  1513.81
                             1530.60  1539.10  1560.05  1575.60  1596.75
                             1612.13  1696.84  1701.82  1706.46  1739.24
                             1744.07  1747.49  1768.61  1829.29  1877.56
                             1910.90  1950.33  1953.65  1963.36  1978.22
                             2022.62  2073.42  2092.34  2140.50  2154.51
                             2164.08  2170.12  2218.76  2230.47  2287.09
                             2339.49  2359.07  2381.05  2384.47  2401.15
                             2415.88  4406.03  4508.32  4515.73  4557.00
                             4583.34  4589.09  4590.14  4600.73  4603.95
                             4612.15  4615.00  4628.74  4630.07  4640.55
                             4973.27  5165.55  5195.58  5369.00

 Zero-point correction=                           0.312017 (Hartree/Particle)
 Thermal correction to Energy=                    0.329172
 Thermal correction to Enthalpy=                  0.330116
 Thermal correction to Gibbs Free Energy=         0.266663
 Sum of electronic and zero-point Energies=           -804.973535
 Sum of electronic and thermal Energies=              -804.956380
 Sum of electronic and thermal Enthalpies=            -804.955436
 Sum of electronic and thermal Free Energies=         -805.018889

                     E (Thermal)             CV                S
                      KCal/Mol        Cal/Mol-Kelvin    Cal/Mol-Kelvin
 Total                  206.559             66.583            133.548
 Electronic               0.000              0.000              0.000
 Translational            0.889              2.981             42.498
 Rotational               0.889              2.981             33.349
 Vibrational            204.781             60.622             57.701
 Vibration     1          0.594              1.981              5.229
 Vibration     2          0.595              1.978              4.909
 Vibration     3          0.597              1.973              4.458
 Vibration     4          0.599              1.964              3.953
 Vibration     5          0.601              1.958              3.728
 Vibration     6          0.605              1.947              3.402
 Vibration     7          0.608              1.936              3.155
 Vibration     8          0.613              1.918              2.875
 Vibration     9          0.629              1.868              2.335
 Vibration    10          0.637              1.842              2.144
 Vibration    11          0.645              1.818              2.001
 Vibration    12          0.669              1.744              1.655
 Vibration    13          0.676              1.724              1.579
 Vibration    14          0.682              1.704              1.512
 Vibration    15          0.700              1.653              1.357
 Vibration    16          0.731              1.563              1.140
 Vibration    17          0.738              1.545              1.102
 Vibration    18          0.779              1.436              0.907
 Vibration    19          0.788              1.412              0.870
 Vibration    20          0.791              1.405              0.859
 Vibration    21          0.825              1.322              0.745
 Vibration    22          0.867              1.224              0.629
 Vibration    23          0.883              1.187              0.591
 Vibration    24          0.928              1.091              0.500
 Vibration    25          0.948              1.052              0.466

 Optimization completed.
    -- Stationary point found.
 Normal termination of Gaussian 16 at Sun Jan 31 09:44:51 2021.
