 Gaussian 16, Revision A.03,
 Gaussian 16:  ES64L-G16RevA.03 25-Dec-2016

 ----------------------------------------------------------------------
 # wB97XD def2tzvp, opt=(ts, noeigen, calcfc, maxcycles=70, maxstep=3),
  freq=noraman, scrf=(iefpcm, solvent=water)
 ----------------------------------------------------------------------

 ------------------------
 0_iteration/TS-401-0.out
 ------------------------
 Symbolic Z-matrix:
 Charge =  0 Multiplicity = 1

 SCF Done:  E(RwB97XD) =  -789.208791905     A.U. after   15 cycles
 SCF Done:  E(RwB97XD) =  -789.208793352     A.U. after   10 cycles
 Optimization completed.
    -- Stationary point found.
 Normal termination of Gaussian 16 at Thu Mar 25 17:59:56 2021.

 ---------------------------------------------------------------------
 #N Geom=AllCheck Guess=TCheck SCRF=Check GenChk RwB97XD/def2TZVP Freq
 ---------------------------------------------------------------------

 Structure from the checkpoint file:  "/beegfs/scratch/user/q/tla25/Gau-29911.chk"
 ------------------------
 0_iteration/TS-401-0.out
 ------------------------
 Charge =  0 Multiplicity = 1

                         Standard orientation:
 ---------------------------------------------------------------------
 Center     Atomic      Atomic             Coordinates (Angstroms)
 Number     Number       Type             X           Y           Z
 ---------------------------------------------------------------------
      1          6           0       -0.502680   -0.139129    0.470617
      2          6           0       -0.145335   -0.236050    1.828114
      3          8           0       -0.898506   -0.489017    2.784271
      4          6           0        0.454504    0.215969   -0.524029
      5          6           0        0.663984    2.792872    0.639366
      6          1           0        1.721616    2.726265    0.883143
      7          1           0        0.367070    3.839544    0.588457
      8          1           0        0.088389    2.296660    1.419774
      9          7           0        0.406083    2.109993   -0.625075
     10          1           0       -0.561957    2.241637   -0.899183
     11          1           0        0.973153    2.485363   -1.377944
     12          6           0        0.091142   -0.043435   -1.976352
     13          1           0        0.104525   -1.121104   -2.146826
     14          1           0       -0.905823    0.320071   -2.222299
     15          1           0        0.819394    0.409354   -2.649034
     16          6           0        1.911087   -0.125693   -0.282762
     17          6           0        2.207709   -1.430669    0.115410
     18          6           0        3.517076   -1.860189    0.252695
     19          6           0        4.568087   -0.993346   -0.008158
     20          6           0        4.289953    0.298660   -0.421874
     21          6           0        2.976434    0.723014   -0.567278
     22          1           0        1.394902   -2.114869    0.319385
     23          1           0        3.714501   -2.877436    0.566434
     24          1           0        5.592708   -1.323584    0.104649
     25          1           0        5.096643    0.987481   -0.638009
     26          1           0        2.813958    1.734617   -0.909166
     27          6           0       -1.942783   -0.263385    0.108404
     28          6           0       -2.831216    0.788031    0.334503
     29          6           0       -4.173094    0.683693   -0.004574
     30          6           0       -4.656300   -0.484401   -0.576608
     31          6           0       -3.788977   -1.544785   -0.800634
     32          6           0       -2.449081   -1.432523   -0.458657
     33          1           0       -2.465594    1.700876    0.792024
     34          1           0       -4.842093    1.515520    0.179171
     35          1           0       -5.702367   -0.569379   -0.843163
     36          1           0       -4.157637   -2.462875   -1.241768
     37          1           0       -1.776841   -2.264298   -0.634895
     38          1           0        0.927869   -0.073461    2.041508
 ---------------------------------------------------------------------

 SCF Done:  E(RwB97XD) =  -789.208793352     A.U. after    1 cycles

 The electronic state is 1-A.
 Alpha  occ. eigenvalues --  -19.19269 -14.49431 -10.36164 -10.33008 -10.31914
 Alpha  occ. eigenvalues --  -10.31012 -10.29685 -10.29348 -10.29279 -10.29278
 Alpha  occ. eigenvalues --  -10.29220 -10.29168 -10.28676 -10.28647 -10.28543
 Alpha  occ. eigenvalues --  -10.28472 -10.28408 -10.28270 -10.25286  -1.09197
 Alpha  occ. eigenvalues --   -1.05012  -0.97655  -0.96259  -0.92146  -0.86570
 Alpha  occ. eigenvalues --   -0.85528  -0.84596  -0.83663  -0.80871  -0.78788
 Alpha  occ. eigenvalues --   -0.72792  -0.71007  -0.69891  -0.69512  -0.67728
 Alpha  occ. eigenvalues --   -0.65052  -0.63065  -0.60669  -0.58646  -0.57707
 Alpha  occ. eigenvalues --   -0.57069  -0.56617  -0.54218  -0.53771  -0.53565
 Alpha  occ. eigenvalues --   -0.53070  -0.51631  -0.51073  -0.50432  -0.49747
 Alpha  occ. eigenvalues --   -0.49169  -0.48403  -0.48099  -0.46668  -0.46524
 Alpha  occ. eigenvalues --   -0.45370  -0.44657  -0.43784  -0.43494  -0.42292
 Alpha  occ. eigenvalues --   -0.41492  -0.40999  -0.34190  -0.34106  -0.33382
 Alpha  occ. eigenvalues --   -0.32802  -0.30694  -0.27099
 Alpha virt. eigenvalues --    0.03773   0.04662   0.05387   0.05772   0.06842
 Alpha virt. eigenvalues --    0.09813   0.12472   0.13024   0.13139   0.14429
 Alpha virt. eigenvalues --    0.14755   0.14856   0.15840   0.16638   0.17295

 Mulliken charges:
               1
     1  C   -0.178917
     2  C    0.089297
     3  O   -0.546112
     4  C    0.148888
     5  C   -0.308712
     6  H    0.161740
     7  H    0.164000
     8  H    0.161874
     9  N   -0.314609
    10  H    0.281590
    11  H    0.286163
    12  C   -0.355737
    13  H    0.152125
    14  H    0.155592
    15  H    0.154549
    16  C    0.232520
    17  C   -0.294894
    18  C   -0.127955
    19  C   -0.150213
    20  C   -0.160369
    21  C   -0.258505
    22  H    0.165470
    23  H    0.144116
    24  H    0.145331
    25  H    0.144081
    26  H    0.144853
    27  C    0.150549
    28  C   -0.290228
    29  C   -0.155089
    30  C   -0.141459
    31  C   -0.151013
    32  C   -0.244483
    33  H    0.155960
    34  H    0.137867
    35  H    0.140998
    36  H    0.137464
    37  H    0.144132
    38  H    0.079134
 Sum of Mulliken charges =  -0.00000

 Dipole moment (field-independent basis, Debye):
    X=              4.8428    Y=              6.7741    Z=             -8.9372  Tot=             12.2153
 Quadrupole moment (field-independent basis, Debye-Ang):
   XX=           -103.5025   YY=            -90.9264   ZZ=           -133.4689
   XY=             -0.4294   XZ=              8.6708   YZ=              1.1955

  Exact polarizability: 342.994   3.732 290.415   0.348 -10.580 236.570
 Approx polarizability: 261.216   2.556 246.902  -1.070  -8.658 201.953

 ******    1 imaginary frequencies (negative Signs) ******

                      1                      2                      3
                      A                      A                      A
 Frequencies --   -339.1987                30.3493                38.0474
 Red. masses --      5.1557                 3.5681                 4.4465
 Frc consts  --      0.3495                 0.0019                 0.0038
 IR Inten    --    669.7622                 0.8791                 0.9403

                      4                      5                      6
                      A                      A                      A
 Frequencies --     40.9355                67.1956                98.4290
 Red. masses --      3.9319                 5.1614                 5.8018
 Frc consts  --      0.0039                 0.0137                 0.0331
 IR Inten    --      0.5419                 6.5566                 9.3018

                      7                      8                      9
                      A                      A                      A
 Frequencies --    107.2349               132.4736               158.3584
 Red. masses --      4.5349                 2.7729                 1.2863
 Frc consts  --      0.0307                 0.0287                 0.0190
 IR Inten    --      2.5009                 1.0679                 1.0693

                     10                     11                     12
                      A                      A                      A
 Frequencies --    192.0445               192.4468               237.5617
 Red. masses --      4.0418                 3.5634                 3.2289
 Frc consts  --      0.0878                 0.0778                 0.1074
 IR Inten    --      7.8318                 9.8030                11.6801

                     13                     14                     15
                      A                      A                      A
 Frequencies --    250.7088               270.5044               289.8334
 Red. masses --      2.7201                 2.2189                 3.3989
 Frc consts  --      0.1007                 0.0957                 0.1682
 IR Inten    --      5.0021                 0.4909                 3.9323

                     16                     17                     18
                      A                      A                      A
 Frequencies --    296.0452               317.7774               335.1753
 Red. masses --      1.4731                 2.3827                 2.7342
 Frc consts  --      0.0761                 0.1418                 0.1810
 IR Inten    --      4.7485                 5.5440                12.4523

                     19                     20                     21
                      A                      A                      A
 Frequencies --    354.4144               424.0258               426.0894
 Red. masses --      3.2539                 2.8901                 2.9047
 Frc consts  --      0.2408                 0.3062                 0.3107
 IR Inten    --      2.7593                 0.0853                 0.9741

                     22                     23                     24
                      A                      A                      A
 Frequencies --    462.3822               499.3141               521.0567
 Red. masses --      3.9142                 5.0177                 3.6673
 Frc consts  --      0.4931                 0.7371                 0.5866
 IR Inten    --      2.7203                17.7088                74.4164

                     25                     26                     27
                      A                      A                      A
 Frequencies --    530.0991               597.9007               609.0648
 Red. masses --      3.7909                 3.6241                 2.8466
 Frc consts  --      0.6276                 0.7633                 0.6222
 IR Inten    --     14.2842                17.8804                51.9609

                     28                     29                     30
                      A                      A                      A
 Frequencies --    637.6947               640.9810               666.4522
 Red. masses --      5.0674                 4.9154                 4.8720
 Frc consts  --      1.2141                 1.1899                 1.2750
 IR Inten    --      5.7591                 6.2231               104.0255

                     31                     32                     33
                      A                      A                      A
 Frequencies --    705.6188               727.2601               730.7161
 Red. masses --      2.1006                 1.5734                 1.6421
 Frc consts  --      0.6162                 0.4903                 0.5166
 IR Inten    --     72.7348                89.0341                86.0332

                     34                     35                     36
                      A                      A                      A
 Frequencies --    745.0739               794.1689               798.4610
 Red. masses --      3.0940                 2.3388                 2.5656
 Frc consts  --      1.0120                 0.8691                 0.9637
 IR Inten    --     27.9394                52.8613                10.9903

                     37                     38                     39
                      A                      A                      A
 Frequencies --    855.0405               874.7093               881.7838
 Red. masses --      2.5540                 1.2462                 1.2445
 Frc consts  --      1.1001                 0.5618                 0.5701
 IR Inten    --     26.2775                 0.5143                 0.3685

                     40                     41                     42
                      A                      A                      A
 Frequencies --    954.1061               957.9225              1004.5144
 Red. masses --      1.4047                 1.4645                 1.1433
 Frc consts  --      0.7534                 0.7918                 0.6797
 IR Inten    --      2.0807                 3.3306                43.8090

                     43                     44                     45
                      A                      A                      A
 Frequencies --   1012.2198              1014.6777              1024.8043
 Red. masses --      1.3723                 1.3710                 4.4536
 Frc consts  --      0.8284                 0.8317                 2.7558
 IR Inten    --      2.0402                 1.2454                16.3876

                     46                     47                     48
                      A                      A                      A
 Frequencies --   1026.0805              1026.5264              1031.0657
 Red. masses --      5.9848                 1.3096                 1.3935
 Frc consts  --      3.7125                 0.8130                 0.8728
 IR Inten    --      0.3624                 0.6010                45.4440

                     49                     50                     51
                      A                      A                      A
 Frequencies --   1033.9913              1039.9115              1047.2749
 Red. masses --      1.4807                 1.6790                 2.7728
 Frc consts  --      0.9327                 1.0698                 1.7918
 IR Inten    --    100.4897                 1.5099                15.3923

                     52                     53                     54
                      A                      A                      A
 Frequencies --   1055.9674              1066.1120              1070.0548
 Red. masses --      1.9070                 1.8985                 1.6735
 Frc consts  --      1.2529                 1.2714                 1.1290
 IR Inten    --     22.4115                 5.4443                10.5833

                     55                     56                     57
                      A                      A                      A
 Frequencies --   1084.6206              1106.5397              1116.5134
 Red. masses --      3.4031                 1.5498                 1.9488
 Frc consts  --      2.3587                 1.1180                 1.4313
 IR Inten    --      8.6001                21.9820                10.6261

                     58                     59                     60
                      A                      A                      A
 Frequencies --   1124.9555              1171.2851              1181.1694
 Red. masses --      1.6425                 2.9469                 1.1357
 Frc consts  --      1.2247                 2.3820                 0.9335
 IR Inten    --     11.5257                 6.0710                 0.0432

                     61                     62                     63
                      A                      A                      A
 Frequencies --   1185.3558              1204.6921              1220.2489
 Red. masses --      1.1270                 1.1218                 1.1242
 Frc consts  --      0.9330                 0.9592                 0.9862
 IR Inten    --      0.1686                 0.0418                 2.4110

                     64                     65                     66
                      A                      A                      A
 Frequencies --   1241.5136              1270.0616              1306.9660
 Red. masses --      1.5091                 3.1238                 4.4228
 Frc consts  --      1.3704                 2.9688                 4.4512
 IR Inten    --     53.4349                11.5415                 6.9214

                     67                     68                     69
                      A                      A                      A
 Frequencies --   1314.8704              1350.7128              1352.0054
 Red. masses --      4.2835                 2.2927                 1.3544
 Frc consts  --      4.3633                 2.4645                 1.4587
 IR Inten    --     47.1870               482.4665                41.1789

                     70                     71                     72
                      A                      A                      A
 Frequencies --   1355.8068              1362.9900              1417.6715
 Red. masses --      1.5434                 1.4225                 2.7234
 Frc consts  --      1.6716                 1.5570                 3.2249
 IR Inten    --     98.1489                54.1202                69.1965

                     73                     74                     75
                      A                      A                      A
 Frequencies --   1422.9604              1448.1130              1462.0072
 Red. masses --      1.4708                 1.2909                 1.5539
 Frc consts  --      1.7546                 1.5950                 1.9569
 IR Inten    --     28.1402                 8.8719                 8.0424

                     76                     77                     78
                      A                      A                      A
 Frequencies --   1484.3785              1485.7167              1488.1322
 Red. masses --      1.0676                 2.1487                 1.9528
 Frc consts  --      1.3860                 2.7945                 2.5479
 IR Inten    --      8.6959                 3.9152                20.8419

                     79                     80                     81
                      A                      A                      A
 Frequencies --   1493.9386              1501.4030              1508.5620
 Red. masses --      1.0698                 1.2012                 1.0555
 Frc consts  --      1.4068                 1.5953                 1.4153
 IR Inten    --     26.4197                17.0231                13.1454

                     82                     83                     84
                      A                      A                      A
 Frequencies --   1543.3324              1546.1724              1628.1249
 Red. masses --      2.3169                 2.4814                 5.3862
 Frc consts  --      3.2514                 3.4952                 8.4122
 IR Inten    --     50.5618                14.4144              1094.2648

                     85                     86                     87
                      A                      A                      A
 Frequencies --   1644.0197              1649.0144              1657.5494
 Red. masses --      5.7114                 2.9842                 1.3611
 Frc consts  --      9.0951                 4.7811                 2.2034
 IR Inten    --     21.1720                 9.6791                45.4697

                     88                     89                     90
                      A                      A                      A
 Frequencies --   1673.2518              1675.8930              2932.2648
 Red. masses --      5.9780                 5.5344                 1.0811
 Frc consts  --      9.8613                 9.1583                 5.4769
 IR Inten    --     54.2742                 4.6599               202.7057

                     91                     92                     93
                      A                      A                      A
 Frequencies --   3064.3701              3076.6856              3139.8142
 Red. masses --      1.0356                 1.0332                 1.1018
 Frc consts  --      5.7294                 5.7624                 6.3995
 IR Inten    --     15.9459                33.7854                20.0714

                     94                     95                     96
                      A                      A                      A
 Frequencies --   3153.8777              3154.8980              3175.3780
 Red. masses --      1.1038                 1.1045                 1.1051
 Frc consts  --      6.4692                 6.4775                 6.5654
 IR Inten    --     35.2798                 6.1190                13.4492

                     97                     98                     99
                      A                      A                      A
 Frequencies --   3181.3992              3186.0370              3196.9900
 Red. masses --      1.0874                 1.0874                 1.0905
 Frc consts  --      6.4843                 6.5031                 6.5669
 IR Inten    --     14.6309                 6.0168                 8.8628

                    100                    101                    102
                      A                      A                      A
 Frequencies --   3197.7659              3204.7147              3205.8828
 Red. masses --      1.0861                 1.0947                 1.0895
 Frc consts  --      6.5433                 6.6242                 6.5971
 IR Inten    --      0.8607                49.9133                 7.8319

                    103                    104                    105
                      A                      A                      A
 Frequencies --   3216.3367              3217.3247              3223.7289
 Red. masses --      1.0930                 1.0986                 1.0968
 Frc consts  --      6.6621                 6.7000                 6.7156
 IR Inten    --     26.5448                19.7559                23.7177

                    106                    107                    108
                      A                      A                      A
 Frequencies --   3236.1358              3514.1730              3587.6318
 Red. masses --      1.0931                 1.0518                 1.0948
 Frc consts  --      6.7445                 7.6530                 8.3026
 IR Inten    --     19.8064                30.3171                50.7437

 - Thermochemistry -
 -------------------
 Temperature   298.150 Kelvin.  Pressure   1.00000 Atm.
 Atom     1 has atomic number  6 and mass  12.00000

 Molecular mass:   253.14666 amu.
 Principal axes and moments of inertia in atomic units:
                           1         2         3
     Eigenvalues --  2410.136427725.365768119.44731
           X            0.99999   0.00128   0.00505
           Y           -0.00150   0.99910   0.04236
           Z           -0.00499  -0.04236   0.99909
 This molecule is an asymmetric top.
 Rotational symmetry number  1.
 Warning -- assumption of classical behavior for rotation
           may cause significant error
 Rotational temperatures (Kelvin)      0.03594     0.01121     0.01067
 Rotational constants (GHZ):           0.74881     0.23361     0.22227
    1 imaginary frequencies ignored.
 Zero-point vibrational energy     846050.6 (Joules/Mol)
                                  202.21095 (Kcal/Mol)
 Warning -- explicit consideration of  26 degrees of freedom as
           vibrations may cause significant error
 Vibrational temperatures:     43.67    54.74    58.90    96.68   141.62
          (Kelvin)            154.29   190.60   227.84   276.31   276.89
                              341.80   360.71   389.20   417.01   425.94
                              457.21   482.24   509.92   610.08   613.05
                              665.26   718.40   749.68   762.69   860.25
                              876.31   917.50   922.23   958.88  1015.23
                             1046.37  1051.34  1072.00  1142.63  1148.81
                             1230.21  1258.51  1268.69  1372.75  1378.24
                             1445.27  1456.36  1459.89  1474.46  1476.30
                             1476.94  1483.47  1487.68  1496.20  1506.79
                             1519.30  1533.90  1539.57  1560.53  1592.06
                             1606.41  1618.56  1685.22  1699.44  1705.46
                             1733.28  1755.67  1786.26  1827.34  1880.43
                             1891.81  1943.37  1945.23  1950.70  1961.04
                             2039.71  2047.32  2083.51  2103.50  2135.69
                             2137.61  2141.09  2149.44  2160.18  2170.48
                             2220.51  2224.60  2342.51  2365.38  2372.56
                             2384.84  2407.44  2411.24  4218.88  4408.95
                             4426.66  4517.49  4537.73  4539.19  4568.66
                             4577.32  4584.00  4599.76  4600.87  4610.87
                             4612.55  4627.59  4629.01  4638.23  4656.08
                             5056.11  5161.80

 Zero-point correction=                           0.322244 (Hartree/Particle)
 Thermal correction to Energy=                    0.339600
 Thermal correction to Enthalpy=                  0.340544
 Thermal correction to Gibbs Free Energy=         0.276196
 Sum of electronic and zero-point Energies=           -788.886550
 Sum of electronic and thermal Energies=              -788.869194
 Sum of electronic and thermal Enthalpies=            -788.868250
 Sum of electronic and thermal Free Energies=         -788.932597

                     E (Thermal)             CV                S
                      KCal/Mol        Cal/Mol-Kelvin    Cal/Mol-Kelvin
 Total                  213.102             67.218            135.431
 Electronic               0.000              0.000              0.000
 Translational            0.889              2.981             42.487
 Rotational               0.889              2.981             33.380
 Vibrational            211.324             61.256             59.565
 Vibration     1          0.594              1.984              5.806
 Vibration     2          0.594              1.982              5.358
 Vibration     3          0.594              1.981              5.213
 Vibration     4          0.598              1.970              4.234
 Vibration     5          0.604              1.950              3.485
 Vibration     6          0.606              1.943              3.318
 Vibration     7          0.613              1.921              2.910
 Vibration     8          0.621              1.893              2.569
 Vibration     9          0.634              1.851              2.208
 Vibration    10          0.634              1.850              2.204
 Vibration    11          0.656              1.783              1.821
 Vibration    12          0.663              1.762              1.726
 Vibration    13          0.674              1.728              1.593
 Vibration    14          0.686              1.693              1.475
 Vibration    15          0.690              1.681              1.439
 Vibration    16          0.704              1.640              1.322
 Vibration    17          0.716              1.605              1.235
 Vibration    18          0.730              1.566              1.147
 Vibration    19          0.786              1.418              0.878
 Vibration    20          0.788              1.413              0.872
 Vibration    21          0.820              1.333              0.759
 Vibration    22          0.855              1.252              0.660
 Vibration    23          0.876              1.203              0.608
 Vibration    24          0.885              1.183              0.587
 Vibration    25          0.956              1.036              0.453
 Vibration    26          0.968              1.013              0.434

 Optimization completed.
    -- Stationary point found.
 Normal termination of Gaussian 16 at Thu Mar 25 20:03:07 2021.
