 Gaussian 16, Revision A.03,
 Gaussian 16:  ES64L-G16RevA.03 25-Dec-2016

 ----------------------------------------------------------------------
 # wB97XD def2tzvp, opt=(ts, noeigen, calcfc, maxcycles=70, maxstep=3),
  freq=noraman, scrf=(iefpcm, solvent=water)
 ----------------------------------------------------------------------

 ------------------------
 0_iteration/TS-468-0.out
 ------------------------
 Symbolic Z-matrix:
 Charge =  0 Multiplicity = 1

 SCF Done:  E(RwB97XD) =  -3015.28139530     A.U. after   14 cycles
 SCF Done:  E(RwB97XD) =  -3015.28139554     A.U. after   11 cycles
 SCF Done:  E(RwB97XD) =  -3015.28141708     A.U. after    9 cycles
 SCF Done:  E(RwB97XD) =  -3015.28149885     A.U. after   10 cycles
 SCF Done:  E(RwB97XD) =  -3015.28171991     A.U. after   11 cycles
 SCF Done:  E(RwB97XD) =  -3015.28201755     A.U. after   11 cycles
 SCF Done:  E(RwB97XD) =  -3015.28234406     A.U. after   11 cycles
 SCF Done:  E(RwB97XD) =  -3015.28271500     A.U. after   11 cycles
 SCF Done:  E(RwB97XD) =  -3015.28307417     A.U. after   11 cycles
 SCF Done:  E(RwB97XD) =  -3015.28341635     A.U. after   11 cycles
 SCF Done:  E(RwB97XD) =  -3015.28373132     A.U. after   11 cycles
 SCF Done:  E(RwB97XD) =  -3015.28400678     A.U. after   11 cycles
 SCF Done:  E(RwB97XD) =  -3015.28424025     A.U. after   11 cycles
 SCF Done:  E(RwB97XD) =  -3015.28440317     A.U. after   11 cycles
 SCF Done:  E(RwB97XD) =  -3015.28451313     A.U. after   11 cycles
 SCF Done:  E(RwB97XD) =  -3015.28456450     A.U. after   11 cycles
 SCF Done:  E(RwB97XD) =  -3015.28457149     A.U. after   10 cycles
 SCF Done:  E(RwB97XD) =  -3015.28457299     A.U. after    9 cycles
 SCF Done:  E(RwB97XD) =  -3015.28457302     A.U. after    7 cycles
 Optimization completed.
    -- Stationary point found.
 Normal termination of Gaussian 16 at Tue Apr 13 11:43:20 2021.

 ---------------------------------------------------------------------
 #N Geom=AllCheck Guess=TCheck SCRF=Check GenChk RwB97XD/def2TZVP Freq
 ---------------------------------------------------------------------

 Structure from the checkpoint file:  "/beegfs/scratch/user/q/tla25/Gau-75880.chk"
 ------------------------
 0_iteration/TS-468-0.out
 ------------------------
 Charge =  0 Multiplicity = 1

                         Standard orientation:
 ---------------------------------------------------------------------
 Center     Atomic      Atomic             Coordinates (Angstroms)
 Number     Number       Type             X           Y           Z
 ---------------------------------------------------------------------
      1          6           0        0.085019    0.027565    0.379658
      2          6           0        1.016884   -1.051384    0.287267
      3          8           0        0.727466   -2.225138    0.502312
      4          6           0       -1.235601   -0.227322    0.736707
      5          6           0       -3.519567   -1.447217   -0.639911
      6          1           0       -3.861820   -1.992185   -1.520775
      7          1           0       -3.526896   -2.120526    0.216937
      8          1           0       -4.205292   -0.625234   -0.446677
      9          7           0       -2.168305   -0.919508   -0.816756
     10          1           0       -1.521640   -1.644912   -1.103130
     11          1           0       -2.135805   -0.184296   -1.513266
     12          6           0       -2.183311    0.848127    1.175719
     13          1           0       -1.802456    1.294455    2.096458
     14          1           0       -2.270885    1.641000    0.433688
     15          1           0       -3.171471    0.442309    1.383390
     16          1           0       -1.346012   -1.168714    1.264639
     17         35           0        0.580054    1.762875   -0.252155
     18          8           0        2.271636   -0.691890   -0.052566
     19          6           0        3.220846   -1.744924   -0.156704
     20          1           0        4.154333   -1.272915   -0.452902
     21          1           0        3.348829   -2.253114    0.799362
     22          1           0        2.916917   -2.472785   -0.909382
 ---------------------------------------------------------------------

 SCF Done:  E(RwB97XD) =  -3015.28457302     A.U. after    1 cycles

 The electronic state is 1-A.
 Alpha  occ. eigenvalues -- -483.11821 -62.66660 -56.45761 -56.45428 -56.45424
 Alpha  occ. eigenvalues --  -19.28338 -19.21279 -14.47736 -10.39940 -10.34229
 Alpha  occ. eigenvalues --  -10.32674 -10.31721 -10.29936 -10.28317  -8.80779
 Alpha  occ. eigenvalues --   -6.62883  -6.61817  -6.61805  -2.73281  -2.72966
 Alpha  occ. eigenvalues --   -2.72957  -2.72094  -2.72094  -1.19722  -1.09921
 Alpha  occ. eigenvalues --   -1.03296  -0.93036  -0.86219  -0.82826  -0.79340
 Alpha  occ. eigenvalues --   -0.77751  -0.69178  -0.63340  -0.62638  -0.59855
 Alpha  occ. eigenvalues --   -0.56942  -0.56037  -0.55746  -0.54431  -0.51876
 Alpha  occ. eigenvalues --   -0.49784  -0.49614  -0.48292  -0.47703  -0.46852
 Alpha  occ. eigenvalues --   -0.44163  -0.43183  -0.41804  -0.38976  -0.38027
 Alpha  occ. eigenvalues --   -0.37465  -0.34631  -0.26994
 Alpha virt. eigenvalues --    0.06066   0.08663   0.10328   0.13294   0.14025
 Alpha virt. eigenvalues --    0.14817   0.15842   0.16149   0.17472   0.18129
 Alpha virt. eigenvalues --    0.19284   0.19866   0.20098   0.20285   0.21172

 Mulliken charges:
               1
     1  C   -0.229060
     2  C    0.427338
     3  O   -0.524598
     4  C   -0.036134
     5  C   -0.292250
     6  H    0.152658
     7  H    0.152411
     8  H    0.158072
     9  N   -0.345386
    10  H    0.281378
    11  H    0.279255
    12  C   -0.348256
    13  H    0.150113
    14  H    0.140022
    15  H    0.146801
    16  H    0.154437
    17  Br  -0.162382
    18  O   -0.304482
    19  C   -0.191664
    20  H    0.138320
    21  H    0.127118
    22  H    0.126289
 Sum of Mulliken charges =  -0.00000

 Dipole moment (field-independent basis, Debye):
    X=             -6.7291    Y=             -1.3513    Z=             -2.5096  Tot=              7.3079
 Quadrupole moment (field-independent basis, Debye-Ang):
   XX=            -52.3172   YY=            -80.4021   ZZ=            -70.2972
   XY=              1.8248   XZ=              2.3956   YZ=              4.9437

  Exact polarizability: 185.797   4.248 156.845   1.360  -2.179 119.705
 Approx polarizability: 135.436   4.980 130.304   0.259  -3.776 104.386

 ******    1 imaginary frequencies (negative Signs) ******

                      1                      2                      3
                      A                      A                      A
 Frequencies --   -353.6981                37.0731                60.9076
 Red. masses --      6.0931                 3.4007                 2.6386
 Frc consts  --      0.4491                 0.0028                 0.0058
 IR Inten    --    858.3127                 0.4546                 6.0557

                      4                      5                      6
                      A                      A                      A
 Frequencies --     72.0121                99.9792               125.2037
 Red. masses --      2.8971                 3.9467                 2.7449
 Frc consts  --      0.0089                 0.0232                 0.0254
 IR Inten    --      8.4437                 7.4993                11.6361

                      7                      8                      9
                      A                      A                      A
 Frequencies --    152.9670               166.6846               167.4776
 Red. masses --      2.2058                 1.7634                 1.4117
 Frc consts  --      0.0304                 0.0289                 0.0233
 IR Inten    --      1.9719                 3.5392                 0.4837

                     10                     11                     12
                      A                      A                      A
 Frequencies --    182.1973               224.7106               253.9248
 Red. masses --      2.8078                 2.0664                 1.2548
 Frc consts  --      0.0549                 0.0615                 0.0477
 IR Inten    --     10.6743                 6.1626                 1.3392

                     13                     14                     15
                      A                      A                      A
 Frequencies --    298.4640               320.7685               404.9965
 Red. masses --      3.3101                 4.0377                 9.0477
 Frc consts  --      0.1737                 0.2448                 0.8744
 IR Inten    --     31.0599                 7.7216                24.3910

                     16                     17                     18
                      A                      A                      A
 Frequencies --    424.3081               446.2365               580.8839
 Red. masses --      3.2009                 4.5910                 3.1309
 Frc consts  --      0.3395                 0.5386                 0.6224
 IR Inten    --      6.8886               126.3850                 9.0189

                     19                     20                     21
                      A                      A                      A
 Frequencies --    661.1725               756.3277               785.6748
 Red. masses --      1.3798                 5.5911                11.0735
 Frc consts  --      0.3554                 1.8844                 4.0274
 IR Inten    --     41.4178                29.9360                63.4910

                     22                     23                     24
                      A                      A                      A
 Frequencies --    954.0198               957.3778              1001.4585
 Red. masses --      1.5431                 5.1322                 1.1590
 Frc consts  --      0.8275                 2.7716                 0.6848
 IR Inten    --     56.9197                 8.4184                 6.4332

                     25                     26                     27
                      A                      A                      A
 Frequencies --   1037.9771              1040.7556              1071.9055
 Red. masses --      1.1241                 1.4787                 3.8518
 Frc consts  --      0.7136                 0.9437                 2.6075
 IR Inten    --     93.9424                37.7582               212.7890

                     28                     29                     30
                      A                      A                      A
 Frequencies --   1119.0002              1144.6471              1182.6761
 Red. masses --      4.7830                 2.4257                 1.2809
 Frc consts  --      3.5287                 1.8725                 1.0556
 IR Inten    --    272.0940                79.5287                 1.7191

                     31                     32                     33
                      A                      A                      A
 Frequencies --   1185.9108              1217.2526              1219.8534
 Red. masses --      1.2339                 1.4507                 1.5355
 Frc consts  --      1.0225                 1.2665                 1.3462
 IR Inten    --     98.2577                50.3998                73.4406

                     34                     35                     36
                      A                      A                      A
 Frequencies --   1266.5038              1327.5675              1348.5679
 Red. masses --      1.3882                 5.2907                 1.3381
 Frc consts  --      1.3119                 5.4939                 1.4338
 IR Inten    --     50.2790               786.5999                38.2093

                     37                     38                     39
                      A                      A                      A
 Frequencies --   1413.2099              1455.9794              1474.1190
 Red. masses --      1.2639                 1.3372                 1.3096
 Frc consts  --      1.4872                 1.6701                 1.6767
 IR Inten    --     24.9168               115.4475                67.8946

                     40                     41                     42
                      A                      A                      A
 Frequencies --   1479.9680              1482.1379              1484.4048
 Red. masses --      1.1529                 1.0746                 1.0890
 Frc consts  --      1.4878                 1.3909                 1.4138
 IR Inten    --    127.7184                34.4649                29.3073

                     43                     44                     45
                      A                      A                      A
 Frequencies --   1492.8618              1496.5418              1502.2323
 Red. masses --      1.1454                 1.0631                 1.3534
 Frc consts  --      1.5039                 1.4028                 1.7995
 IR Inten    --     94.2264                 1.2117               254.7971

                     46                     47                     48
                      A                      A                      A
 Frequencies --   1512.4648              1646.4209              1670.7287
 Red. masses --      1.1661                 1.1172                 8.2947
 Frc consts  --      1.5716                 1.7843                13.6416
 IR Inten    --     50.7001                51.8488               561.5657

                     49                     50                     51
                      A                      A                      A
 Frequencies --   3061.0003              3063.4836              3068.0173
 Red. masses --      1.0309                 1.0347                 1.0375
 Frc consts  --      5.6911                 5.7211                 5.7537
 IR Inten    --     65.1058                52.8371                12.0498

                     52                     53                     54
                      A                      A                      A
 Frequencies --   3136.2186              3136.9270              3138.1842
 Red. masses --      1.1067                 1.1047                 1.0999
 Frc consts  --      6.4135                 6.4047                 6.3822
 IR Inten    --     37.3727                22.2668                16.4041

                     55                     56                     57
                      A                      A                      A
 Frequencies --   3157.9111              3165.8220              3170.7397
 Red. masses --      1.1010                 1.1032                 1.1052
 Frc consts  --      6.4689                 6.5145                 6.5467
 IR Inten    --     15.7968                16.8769                25.4960

                     58                     59                     60
                      A                      A                      A
 Frequencies --   3176.7353              3527.1544              3608.9292
 Red. masses --      1.0922                 1.0509                 1.0966
 Frc consts  --      6.4937                 7.7033                 8.4147
 IR Inten    --     15.7869                18.2781                45.3517

 - Thermochemistry -
 -------------------
 Temperature   298.150 Kelvin.  Pressure   1.00000 Atm.
 Atom     1 has atomic number  6 and mass  12.00000

 Molecular mass:   209.00514 amu.
 Principal axes and moments of inertia in atomic units:
                           1         2         3
     Eigenvalues --  1857.471472566.498563959.58536
           X            0.99815  -0.06077  -0.00017
           Y            0.06074   0.99767   0.03099
           Z           -0.00171  -0.03094   0.99952
 This molecule is an asymmetric top.
 Rotational symmetry number  1.
 Warning -- assumption of classical behavior for rotation
           may cause significant error
 Rotational temperatures (Kelvin)      0.04663     0.03375     0.02187
 Rotational constants (GHZ):           0.97161     0.70319     0.45579
    1 imaginary frequencies ignored.
 Zero-point vibrational energy     477427.4 (Joules/Mol)
                                  114.10790 (Kcal/Mol)
 Warning -- explicit consideration of  17 degrees of freedom as
           vibrations may cause significant error
 Vibrational temperatures:     53.34    87.63   103.61   143.85   180.14
          (Kelvin)            220.09   239.82   240.96   262.14   323.31
                              365.34   429.42   461.51   582.70   610.48
                              642.03   835.76   951.28  1088.19  1130.41
                             1372.62  1377.45  1440.88  1493.42  1497.42
                             1542.23  1609.99  1646.89  1701.61  1706.26
                             1751.35  1755.10  1822.22  1910.07  1940.29
                             2033.29  2094.83  2120.93  2129.34  2132.47
                             2135.73  2147.90  2153.19  2161.38  2176.10
                             2368.83  2403.81  4404.10  4407.67  4414.19
                             4512.32  4513.34  4515.15  4543.53  4554.91
                             4561.99  4570.61  5074.79  5192.44

 Zero-point correction=                           0.181843 (Hartree/Particle)
 Thermal correction to Energy=                    0.194587
 Thermal correction to Enthalpy=                  0.195532
 Thermal correction to Gibbs Free Energy=         0.140966
 Sum of electronic and zero-point Energies=          -3015.102731
 Sum of electronic and thermal Energies=             -3015.089986
 Sum of electronic and thermal Enthalpies=           -3015.089041
 Sum of electronic and thermal Free Energies=        -3015.143607

                     E (Thermal)             CV                S
                      KCal/Mol        Cal/Mol-Kelvin    Cal/Mol-Kelvin
 Total                  122.105             42.639            114.842
 Electronic               0.000              0.000              0.000
 Translational            0.889              2.981             41.915
 Rotational               0.889              2.981             31.313
 Vibrational            120.328             36.677             41.614
 Vibration     1          0.594              1.982              5.410
 Vibration     2          0.597              1.973              4.428
 Vibration     3          0.598              1.967              4.098
 Vibration     4          0.604              1.949              3.455
 Vibration     5          0.610              1.928              3.018
 Vibration     6          0.619              1.899              2.635
 Vibration     7          0.624              1.883              2.473
 Vibration     8          0.624              1.882              2.464
 Vibration     9          0.630              1.864              2.306
 Vibration    10          0.649              1.803              1.921
 Vibration    11          0.665              1.756              1.703
 Vibration    12          0.692              1.677              1.426
 Vibration    13          0.706              1.634              1.306
 Vibration    14          0.770              1.459              0.944
 Vibration    15          0.786              1.417              0.877
 Vibration    16          0.805              1.369              0.807
 Vibration    17          0.938              1.073              0.484

 Optimization completed.
    -- Stationary point found.
 Normal termination of Gaussian 16 at Tue Apr 13 11:50:02 2021.
