 Gaussian 16, Revision A.03,
 Gaussian 16:  ES64L-G16RevA.03 25-Dec-2016

 ----------------------------------------------------------------------
 # wB97XD def2tzvp, opt=(ts, noeigen, calcfc, maxcycles=70, maxstep=3),
  freq=noraman, scrf=(iefpcm, solvent=water)
 ----------------------------------------------------------------------

 ------------------------
 0_iteration/TS-476-0.out
 ------------------------
 Symbolic Z-matrix:
 Charge =  0 Multiplicity = 1

 SCF Done:  E(RwB97XD) =  -901.275949443     A.U. after   15 cycles
 SCF Done:  E(RwB97XD) =  -901.275953681     A.U. after   10 cycles
 SCF Done:  E(RwB97XD) =  -901.275967686     A.U. after    9 cycles
 SCF Done:  E(RwB97XD) =  -901.276026820     A.U. after   10 cycles
 SCF Done:  E(RwB97XD) =  -901.276223017     A.U. after   11 cycles
 SCF Done:  E(RwB97XD) =  -901.276528694     A.U. after   12 cycles
 SCF Done:  E(RwB97XD) =  -901.276871432     A.U. after   11 cycles
 SCF Done:  E(RwB97XD) =  -901.277250052     A.U. after   11 cycles
 SCF Done:  E(RwB97XD) =  -901.277614298     A.U. after   11 cycles
 SCF Done:  E(RwB97XD) =  -901.277963987     A.U. after   11 cycles
 SCF Done:  E(RwB97XD) =  -901.278614569     A.U. after   11 cycles
 SCF Done:  E(RwB97XD) =  -901.278866773     A.U. after   11 cycles
 SCF Done:  E(RwB97XD) =  -901.279059825     A.U. after   11 cycles
 SCF Done:  E(RwB97XD) =  -901.279179581     A.U. after   11 cycles
 SCF Done:  E(RwB97XD) =  -901.279258271     A.U. after   11 cycles
 SCF Done:  E(RwB97XD) =  -901.279294018     A.U. after   11 cycles
 SCF Done:  E(RwB97XD) =  -901.279296615     A.U. after    9 cycles
 SCF Done:  E(RwB97XD) =  -901.279296904     A.U. after    8 cycles
 SCF Done:  E(RwB97XD) =  -901.279297064     A.U. after    7 cycles
 Optimization completed.
    -- Stationary point found.
 Normal termination of Gaussian 16 at Tue Apr 13 02:04:32 2021.

 ---------------------------------------------------------------------
 #N Geom=AllCheck Guess=TCheck SCRF=Check GenChk RwB97XD/def2TZVP Freq
 ---------------------------------------------------------------------

 Structure from the checkpoint file:  "/beegfs/scratch/user/q/tla25/Gau-171250.chk"
 ------------------------
 0_iteration/TS-476-0.out
 ------------------------
 Charge =  0 Multiplicity = 1

                         Standard orientation:
 ---------------------------------------------------------------------
 Center     Atomic      Atomic             Coordinates (Angstroms)
 Number     Number       Type             X           Y           Z
 ---------------------------------------------------------------------
      1          6           0        0.162601    0.460182    0.267708
      2          6           0        1.210350   -0.507083    0.275311
      3          8           0        1.064178   -1.675132    0.627292
      4          6           0       -1.122709    0.103112    0.668875
      5          6           0       -3.252060   -1.506292   -0.505534
      6          1           0       -3.173409   -2.068273    0.424852
      7          1           0       -4.029244   -0.753161   -0.397078
      8          1           0       -3.531937   -2.188829   -1.308954
      9          7           0       -1.973448   -0.849696   -0.771573
     10          1           0       -1.250155   -1.523961   -0.992457
     11          1           0       -2.034804   -0.197562   -1.544607
     12          6           0       -2.169394    1.127469    0.991777
     13          1           0       -1.834986    1.710860    1.851738
     14          1           0       -2.327954    1.817294    0.163623
     15          1           0       -3.115872    0.657809    1.252452
     16          1           0       -1.131938   -0.773690    1.307097
     17         17           0        0.432431    2.029617   -0.480200
     18          8           0        2.410255   -0.044566   -0.136181
     19          6           0        3.475756   -0.985028   -0.142915
     20          1           0        3.667433   -1.368533    0.859596
     21          1           0        3.256680   -1.821061   -0.807762
     22          1           0        4.346271   -0.443083   -0.504303
 ---------------------------------------------------------------------

 SCF Done:  E(RwB97XD) =  -901.279297064     A.U. after    1 cycles

 The electronic state is 1-A.
 Alpha  occ. eigenvalues -- -101.68307 -19.28197 -19.21093 -14.47929 -10.39715
 Alpha  occ. eigenvalues --  -10.34126 -10.32610 -10.31783 -10.30083 -10.28275
 Alpha  occ. eigenvalues --   -9.56829  -7.31450  -7.30626  -7.30612  -1.19539
 Alpha  occ. eigenvalues --   -1.09736  -1.03489  -0.95987  -0.87765  -0.83265
 Alpha  occ. eigenvalues --   -0.79399  -0.77811  -0.69249  -0.63470  -0.62673
 Alpha  occ. eigenvalues --   -0.60135  -0.56884  -0.56362  -0.55697  -0.54517
 Alpha  occ. eigenvalues --   -0.51976  -0.50765  -0.49664  -0.48374  -0.47762
 Alpha  occ. eigenvalues --   -0.46842  -0.44795  -0.43372  -0.42625  -0.40646
 Alpha  occ. eigenvalues --   -0.39525  -0.37943  -0.35000  -0.26788
 Alpha virt. eigenvalues --    0.06315   0.09924   0.12112   0.13512   0.14183
 Alpha virt. eigenvalues --    0.14961   0.16157   0.16343   0.17587   0.18300
 Alpha virt. eigenvalues --    0.19431   0.19940   0.20211   0.20446   0.21269

 Mulliken charges:
               1
     1  C   -0.180556
     2  C    0.410088
     3  O   -0.530352
     4  C   -0.034750
     5  C   -0.292348
     6  H    0.152425
     7  H    0.158376
     8  H    0.153574
     9  N   -0.337780
    10  H    0.282320
    11  H    0.280610
    12  C   -0.348320
    13  H    0.148701
    14  H    0.136991
    15  H    0.144828
    16  H    0.151698
    17  Cl  -0.187328
    18  O   -0.307853
    19  C   -0.189862
    20  H    0.126442
    21  H    0.125423
    22  H    0.137673
 Sum of Mulliken charges =  -0.00000

 Dipole moment (field-independent basis, Debye):
    X=             -6.7205    Y=             -2.1934    Z=             -2.3624  Tot=              7.4536
 Quadrupole moment (field-independent basis, Debye-Ang):
   XX=            -48.2231   YY=            -74.1228   ZZ=            -65.0539
   XY=              2.6521   XZ=              1.7618   YZ=              5.5268

  Exact polarizability: 175.781   4.698 141.173   1.400  -3.007 111.054
 Approx polarizability: 127.030   4.316 119.675   0.372  -4.789  97.826

 ******    1 imaginary frequencies (negative Signs) ******

                      1                      2                      3
                      A                      A                      A
 Frequencies --   -358.8058                44.2232                62.6727
 Red. masses --      6.1235                 3.7695                 3.6752
 Frc consts  --      0.4645                 0.0043                 0.0085
 IR Inten    --    885.3228                 1.3410                 7.3993

                      4                      5                      6
                      A                      A                      A
 Frequencies --     77.2739               111.1660               129.1621
 Red. masses --      2.0240                 3.3486                 2.3594
 Frc consts  --      0.0071                 0.0244                 0.0232
 IR Inten    --      6.5891                 6.5621                17.3307

                      7                      8                      9
                      A                      A                      A
 Frequencies --    159.6049               166.8239               178.1228
 Red. masses --      1.6515                 1.4635                 2.1001
 Frc consts  --      0.0248                 0.0240                 0.0393
 IR Inten    --      1.1392                 2.4816                 3.7471

                     10                     11                     12
                      A                      A                      A
 Frequencies --    207.6233               236.1278               252.9781
 Red. masses --      3.2654                 2.6326                 1.3246
 Frc consts  --      0.0829                 0.0865                 0.0499
 IR Inten    --     14.5888                 2.2850                 2.0067

                     13                     14                     15
                      A                      A                      A
 Frequencies --    299.9981               339.4244               420.8759
 Red. masses --      3.2269                 3.7448                 3.3931
 Frc consts  --      0.1711                 0.2542                 0.3541
 IR Inten    --     30.8730                17.5151                10.3464

                     16                     17                     18
                      A                      A                      A
 Frequencies --    451.2487               471.9444               606.1851
 Red. masses --      5.5540                 8.8763                 2.7050
 Frc consts  --      0.6663                 1.1648                 0.5856
 IR Inten    --     77.2161                61.4974                10.1972

                     19                     20                     21
                      A                      A                      A
 Frequencies --    674.8026               765.1031               785.3182
 Red. masses --      1.4596                 5.7830                11.0280
 Frc consts  --      0.3916                 1.9945                 4.0072
 IR Inten    --     38.1763                35.4703                61.2261

                     22                     23                     24
                      A                      A                      A
 Frequencies --    955.1814               962.5542              1003.8763
 Red. masses --      1.7283                 3.5792                 1.1707
 Frc consts  --      0.9290                 1.9538                 0.6951
 IR Inten    --     48.8901                14.0902                 7.5376

                     25                     26                     27
                      A                      A                      A
 Frequencies --   1042.0760              1042.3070              1072.9907
 Red. masses --      1.3258                 1.2695                 3.6082
 Frc consts  --      0.8482                 0.8126                 2.4475
 IR Inten    --      2.5739               123.6065               213.4967

                     28                     29                     30
                      A                      A                      A
 Frequencies --   1120.1644              1150.1326              1182.8577
 Red. masses --      4.7611                 2.4824                 1.2806
 Frc consts  --      3.5198                 1.9347                 1.0557
 IR Inten    --    283.4252                96.2891                 1.4950

                     31                     32                     33
                      A                      A                      A
 Frequencies --   1190.7836              1218.3773              1221.4595
 Red. masses --      1.2313                 1.5230                 1.4652
 Frc consts  --      1.0287                 1.3320                 1.2880
 IR Inten    --    113.1452                88.7234                29.5458

                     34                     35                     36
                      A                      A                      A
 Frequencies --   1268.4962              1335.4527              1349.6856
 Red. masses --      1.4018                 4.4933                 1.3901
 Frc consts  --      1.3290                 4.7214                 1.4920
 IR Inten    --     54.7664               681.4933                82.9743

                     37                     38                     39
                      A                      A                      A
 Frequencies --   1411.2714              1456.3213              1474.2379
 Red. masses --      1.2674                 1.3404                 1.2883
 Frc consts  --      1.4872                 1.6750                 1.6497
 IR Inten    --     26.2824               120.9214                58.3226

                     40                     41                     42
                      A                      A                      A
 Frequencies --   1480.7954              1481.5628              1484.8174
 Red. masses --      1.1259                 1.0863                 1.0888
 Frc consts  --      1.4546                 1.4048                 1.4143
 IR Inten    --    103.3282                50.1959                29.9255

                     43                     44                     45
                      A                      A                      A
 Frequencies --   1492.6966              1496.4391              1503.0564
 Red. masses --      1.1327                 1.0710                 1.3869
 Frc consts  --      1.4869                 1.4130                 1.8461
 IR Inten    --     86.8877                10.7064               279.2605

                     46                     47                     48
                      A                      A                      A
 Frequencies --   1513.0929              1647.5232              1671.6765
 Red. masses --      1.1808                 1.1262                 7.8711
 Frc consts  --      1.5928                 1.8010                12.9595
 IR Inten    --     58.8252                58.2590               536.4803

                     49                     50                     51
                      A                      A                      A
 Frequencies --   3059.9734              3064.9711              3068.8513
 Red. masses --      1.0310                 1.0343                 1.0374
 Frc consts  --      5.6879                 5.7247                 5.7564
 IR Inten    --     64.1245                51.0099                13.6268

                     52                     53                     54
                      A                      A                      A
 Frequencies --   3134.3855              3138.8222              3139.3693
 Red. masses --      1.1066                 1.1050                 1.0998
 Frc consts  --      6.4055                 6.4143                 6.3864
 IR Inten    --     39.8593                20.0902                17.9762

                     55                     56                     57
                      A                      A                      A
 Frequencies --   3158.8644              3166.3193              3169.6982
 Red. masses --      1.1019                 1.1037                 1.1051
 Frc consts  --      6.4783                 6.5196                 6.5414
 IR Inten    --     15.0548                15.8390                26.8786

                     58                     59                     60
                      A                      A                      A
 Frequencies --   3179.6811              3528.1698              3610.0709
 Red. masses --      1.0917                 1.0509                 1.0966
 Frc consts  --      6.5033                 7.7071                 8.4202
 IR Inten    --     13.6615                18.2762                45.6464

 - Thermochemistry -
 -------------------
 Temperature   298.150 Kelvin.  Pressure   1.00000 Atm.
 Atom     1 has atomic number  6 and mass  12.00000

 Molecular mass:   165.05566 amu.
 Principal axes and moments of inertia in atomic units:
                           1         2         3
     Eigenvalues --  1222.900622498.155333301.05733
           X            0.99998  -0.00549  -0.00257
           Y            0.00559   0.99923   0.03889
           Z            0.00235  -0.03890   0.99924
 This molecule is an asymmetric top.
 Rotational symmetry number  1.
 Warning -- assumption of classical behavior for rotation
           may cause significant error
 Rotational temperatures (Kelvin)      0.07083     0.03467     0.02624
 Rotational constants (GHZ):           1.47579     0.72243     0.54672
    1 imaginary frequencies ignored.
 Zero-point vibrational energy     479043.0 (Joules/Mol)
                                  114.49403 (Kcal/Mol)
 Warning -- explicit consideration of  17 degrees of freedom as
           vibrations may cause significant error
 Vibrational temperatures:     63.63    90.17   111.18   159.94   185.84
          (Kelvin)            229.64   240.02   256.28   298.72   339.74
                              363.98   431.63   488.36   605.55   649.25
                              679.02   872.17   970.89  1100.81  1129.90
                             1374.29  1384.90  1444.35  1499.31  1499.65
                             1543.79  1611.67  1654.78  1701.87  1713.27
                             1752.97  1757.41  1825.08  1921.42  1941.90
                             2030.50  2095.32  2121.10  2130.53  2131.64
                             2136.32  2147.66  2153.04  2162.56  2177.00
                             2370.42  2405.17  4402.62  4409.81  4415.39
                             4509.68  4516.07  4516.85  4544.90  4555.63
                             4560.49  4574.85  5076.25  5194.09

 Zero-point correction=                           0.182458 (Hartree/Particle)
 Thermal correction to Energy=                    0.194950
 Thermal correction to Enthalpy=                  0.195894
 Thermal correction to Gibbs Free Energy=         0.142780
 Sum of electronic and zero-point Energies=           -901.096839
 Sum of electronic and thermal Energies=              -901.084347
 Sum of electronic and thermal Enthalpies=            -901.083403
 Sum of electronic and thermal Free Energies=         -901.136517

                     E (Thermal)             CV                S
                      KCal/Mol        Cal/Mol-Kelvin    Cal/Mol-Kelvin
 Total                  122.333             42.229            111.787
 Electronic               0.000              0.000              0.000
 Translational            0.889              2.981             41.212
 Rotational               0.889              2.981             30.690
 Vibrational            120.555             36.268             39.886
 Vibration     1          0.595              1.980              5.060
 Vibration     2          0.597              1.972              4.371
 Vibration     3          0.599              1.964              3.959
 Vibration     4          0.607              1.940              3.248
 Vibration     5          0.612              1.924              2.958
 Vibration     6          0.621              1.892              2.554
 Vibration     7          0.624              1.883              2.471
 Vibration     8          0.629              1.869              2.348
 Vibration     9          0.641              1.829              2.064
 Vibration    10          0.655              1.785              1.832
 Vibration    11          0.664              1.758              1.710
 Vibration    12          0.693              1.674              1.417
 Vibration    13          0.719              1.597              1.215
 Vibration    14          0.783              1.425              0.889
 Vibration    15          0.810              1.358              0.792
 Vibration    16          0.829              1.312              0.732
 Vibration    17          0.965              1.019              0.439

 Optimization completed.
    -- Stationary point found.
 Normal termination of Gaussian 16 at Tue Apr 13 02:10:31 2021.
