 Gaussian 16, Revision A.03,
 Gaussian 16:  ES64L-G16RevA.03 25-Dec-2016

 ----------------------------------------------------------------------
 # wB97XD def2tzvp, opt=(ts, noeigen, calcfc, maxcycles=70, maxstep=8),
  freq=noraman, scrf=(iefpcm, solvent=water)
 ----------------------------------------------------------------------

 ------------------------
 1_iteration/TS-405-1.out
 ------------------------
 Symbolic Z-matrix:
 Charge =  0 Multiplicity = 1

 SCF Done:  E(RwB97XD) =  -883.903020795     A.U. after   15 cycles
 SCF Done:  E(RwB97XD) =  -883.903020647     A.U. after    7 cycles
 Optimization completed.
    -- Stationary point found.
 Normal termination of Gaussian 16 at Thu Apr 15 22:21:43 2021.

 ---------------------------------------------------------------------
 #N Geom=AllCheck Guess=TCheck SCRF=Check GenChk RwB97XD/def2TZVP Freq
 ---------------------------------------------------------------------

 Structure from the checkpoint file:  "/beegfs/scratch/user/q/tla25/Gau-189050.chk"
 ------------------------
 1_iteration/TS-405-1.out
 ------------------------
 Charge =  0 Multiplicity = 1

                         Standard orientation:
 ---------------------------------------------------------------------
 Center     Atomic      Atomic             Coordinates (Angstroms)
 Number     Number       Type             X           Y           Z
 ---------------------------------------------------------------------
      1          6           0        0.464713    0.149411    0.059959
      2          6           0        0.251931    1.570345    0.136322
      3          8           0       -0.711537    2.090385    0.748054
      4          6           0       -0.600098   -0.712739    0.438295
      5          6           0        0.191935   -0.459466    3.133953
      6          1           0        0.140835    0.158724    4.031035
      7          1           0        0.251291   -1.506640    3.424915
      8          1           0        1.089766   -0.191461    2.575633
      9          7           0       -0.956732   -0.250275    2.268188
     10          1           0       -1.802596   -0.643340    2.659170
     11          1           0       -1.099404    0.741336    2.056674
     12          6           0       -0.295174   -2.190938    0.569151
     13          1           0       -0.261409   -2.650048   -0.419159
     14          1           0        0.664693   -2.360114    1.054430
     15          1           0       -1.073898   -2.696900    1.137840
     16          6           0       -1.987157   -0.483394   -0.132517
     17          6           0       -2.130608    0.198746   -1.338069
     18          6           0       -3.371404    0.345969   -1.938217
     19          6           0       -4.502683   -0.198261   -1.348860
     20          6           0       -4.374545   -0.900887   -0.160253
     21          6           0       -3.130181   -1.046754    0.433664
     22          1           0       -1.250605    0.614749   -1.810227
     23          1           0       -3.452101    0.886007   -2.873456
     24          1           0       -5.473014   -0.084811   -1.815481
     25          1           0       -5.244762   -1.344735    0.306786
     26          1           0       -3.067019   -1.624516    1.347164
     27          6           0        1.812824   -0.373556   -0.279611
     28          6           0        2.955499    0.001942    0.437504
     29          6           0        4.214713   -0.471364    0.102314
     30          6           0        4.370470   -1.351547   -0.959944
     31          6           0        3.254469   -1.735330   -1.689556
     32          6           0        2.000690   -1.241789   -1.359968
     33          1           0        2.850508    0.682183    1.275149
     34          1           0        5.076492   -0.160413    0.680451
     35          1           0        5.351571   -1.729196   -1.219179
     36          1           0        3.361489   -2.411203   -2.529458
     37          1           0        1.142680   -1.526821   -1.957095
     38          7           0        1.147034    2.395948   -0.481118
     39          6           0        1.158279    3.819985   -0.254128
     40          1           0        1.950786    1.980639   -0.914716
     41          1           0        1.983028    4.254379   -0.816221
     42          1           0        0.229585    4.282223   -0.592184
     43          1           0        1.290216    4.064937    0.803768
 ---------------------------------------------------------------------

 SCF Done:  E(RwB97XD) =  -883.903020647     A.U. after    1 cycles

 The electronic state is 1-A.
 Alpha  occ. eigenvalues --  -19.19263 -14.46596 -14.43552 -10.36274 -10.34826
 Alpha  occ. eigenvalues --  -10.30908 -10.30233 -10.30028 -10.29414 -10.29104
 Alpha  occ. eigenvalues --  -10.28962 -10.28859 -10.28792 -10.28594 -10.28544
 Alpha  occ. eigenvalues --  -10.28510 -10.28352 -10.28181 -10.28065 -10.27788
 Alpha  occ. eigenvalues --  -10.24504  -1.11537  -1.02687  -1.00210  -0.96926
 Alpha  occ. eigenvalues --   -0.96022  -0.91201  -0.86431  -0.85035  -0.84470
 Alpha  occ. eigenvalues --   -0.82920  -0.81105  -0.78175  -0.77205  -0.71910
 Alpha  occ. eigenvalues --   -0.70275  -0.69645  -0.68590  -0.66897  -0.64321
 Alpha  occ. eigenvalues --   -0.62359  -0.61641  -0.60536  -0.57503  -0.56680
 Alpha  occ. eigenvalues --   -0.55493  -0.54974  -0.53956  -0.53636  -0.53158
 Alpha  occ. eigenvalues --   -0.52921  -0.52409  -0.51165  -0.50727  -0.50260
 Alpha  occ. eigenvalues --   -0.49549  -0.48760  -0.47732  -0.47043  -0.46501
 Alpha  occ. eigenvalues --   -0.46310  -0.45666  -0.45537  -0.44765  -0.43487
 Alpha  occ. eigenvalues --   -0.42426  -0.42106  -0.41453  -0.39979  -0.34804
 Alpha  occ. eigenvalues --   -0.33870  -0.33517  -0.33196  -0.32520  -0.31701
 Alpha  occ. eigenvalues --   -0.24936
 Alpha virt. eigenvalues --    0.03274   0.05259   0.05675   0.05726   0.08589
 Alpha virt. eigenvalues --    0.10345   0.12207   0.13156   0.13644   0.13910
 Alpha virt. eigenvalues --    0.14951   0.15170   0.16098   0.16459   0.16814

 Mulliken charges:
               1
     1  C   -0.299804
     2  C    0.382337
     3  O   -0.608527
     4  C    0.275265
     5  C   -0.297610
     6  H    0.149637
     7  H    0.154652
     8  H    0.132079
     9  N   -0.300383
    10  H    0.257729
    11  H    0.268584
    12  C   -0.379800
    13  H    0.147016
    14  H    0.151562
    15  H    0.148984
    16  C    0.194445
    17  C   -0.207752
    18  C   -0.157834
    19  C   -0.142371
    20  C   -0.172912
    21  C   -0.295768
    22  H    0.156271
    23  H    0.139339
    24  H    0.142517
    25  H    0.140638
    26  H    0.152680
    27  C    0.084592
    28  C   -0.312763
    29  C   -0.132331
    30  C   -0.151926
    31  C   -0.153288
    32  C   -0.256000
    33  H    0.154067
    34  H    0.137124
    35  H    0.139748
    36  H    0.135389
    37  H    0.154019
    38  N   -0.307954
    39  C   -0.252306
    40  H    0.255341
    41  H    0.136062
    42  H    0.122267
    43  H    0.116984
 Sum of Mulliken charges =  -0.00000

 Dipole moment (field-independent basis, Debye):
    X=              0.5945    Y=             -3.3150    Z=              2.8439  Tot=              4.4080
 Quadrupole moment (field-independent basis, Debye-Ang):
   XX=           -114.1111   YY=           -127.2900   ZZ=           -110.1632
   XY=             10.5711   XZ=             -2.7499   YZ=             -6.7453

  Exact polarizability: 384.971   3.251 288.000  -9.205  -4.040 304.323
 Approx polarizability: 292.288   2.483 233.616  -6.625  -1.839 255.436

 ******    1 imaginary frequencies (negative Signs) ******

                      1                      2                      3
                      A                      A                      A
 Frequencies --   -405.2845                33.7076                45.4119
 Red. masses --      5.1957                 3.9799                 3.6857
 Frc consts  --      0.5028                 0.0027                 0.0045
 IR Inten    --    713.2674                 1.2967                 4.9944

                      4                      5                      6
                      A                      A                      A
 Frequencies --     54.7523                65.1545                68.6904
 Red. masses --      3.2385                 2.7656                 3.4662
 Frc consts  --      0.0057                 0.0069                 0.0096
 IR Inten    --      5.2023                 1.4879                 2.7737

                      7                      8                      9
                      A                      A                      A
 Frequencies --     81.6706                92.9998               117.6865
 Red. masses --      3.1267                 1.8667                 3.2155
 Frc consts  --      0.0123                 0.0095                 0.0262
 IR Inten    --      2.6370                 0.4529                 9.4671

                     10                     11                     12
                      A                      A                      A
 Frequencies --    134.6508               144.7587               163.1550
 Red. masses --      2.2967                 4.4209                 2.0838
 Frc consts  --      0.0245                 0.0546                 0.0327
 IR Inten    --      3.0453                29.7206                13.6134

                     13                     14                     15
                      A                      A                      A
 Frequencies --    179.9179               203.6698               226.7899
 Red. masses --      1.9075                 2.1776                 3.2233
 Frc consts  --      0.0364                 0.0532                 0.0977
 IR Inten    --      3.9441                 3.3270                 6.1160

                     16                     17                     18
                      A                      A                      A
 Frequencies --    254.0993               266.7480               288.2553
 Red. masses --      1.5861                 3.9793                 2.8032
 Frc consts  --      0.0603                 0.1668                 0.1372
 IR Inten    --      6.4839                 3.7323                22.6481

                     19                     20                     21
                      A                      A                      A
 Frequencies --    296.1010               306.6544               325.1745
 Red. masses --      2.9697                 2.6864                 3.0017
 Frc consts  --      0.1534                 0.1488                 0.1870
 IR Inten    --      5.0398                 4.0752                26.7638

                     22                     23                     24
                      A                      A                      A
 Frequencies --    337.1900               381.3598               414.0970
 Red. masses --      2.9173                 2.8898                 7.2442
 Frc consts  --      0.1954                 0.2476                 0.7319
 IR Inten    --     18.9854                52.1528                29.8257

                     25                     26                     27
                      A                      A                      A
 Frequencies --    425.4056               428.7112               434.1968
 Red. masses --      1.8039                 2.7844                 2.2786
 Frc consts  --      0.1923                 0.3015                 0.2531
 IR Inten    --     35.8690                 5.5480                19.1223

                     28                     29                     30
                      A                      A                      A
 Frequencies --    473.3907               537.5702               564.2118
 Red. masses --      3.0723                 3.3644                 3.2032
 Frc consts  --      0.4057                 0.5728                 0.6008
 IR Inten    --     12.9083                22.9565                30.9713

                     31                     32                     33
                      A                      A                      A
 Frequencies --    587.9808               624.3220               637.8114
 Red. masses --      4.6401                 3.6642                 6.3713
 Frc consts  --      0.9452                 0.8415                 1.5271
 IR Inten    --     82.0289                12.6488                 0.9787

                     34                     35                     36
                      A                      A                      A
 Frequencies --    641.1158               686.8115               720.2213
 Red. masses --      5.7151                 5.3419                 1.6038
 Frc consts  --      1.3840                 1.4846                 0.4901
 IR Inten    --      1.1276                34.6639                91.3441

                     37                     38                     39
                      A                      A                      A
 Frequencies --    729.2708               733.1058               762.1594
 Red. masses --      1.6521                 1.5707                 2.7841
 Frc consts  --      0.5177                 0.4974                 0.9529
 IR Inten    --     80.3439                81.0817                39.0971

                     40                     41                     42
                      A                      A                      A
 Frequencies --    794.3508               802.1053               816.1001
 Red. masses --      2.3146                 3.7812                 3.5057
 Frc consts  --      0.8605                 1.4333                 1.3757
 IR Inten    --     55.2166                28.1618                39.6039

                     43                     44                     45
                      A                      A                      A
 Frequencies --    844.9034               880.7174               882.2387
 Red. masses --      2.9419                 1.2440                 1.2447
 Frc consts  --      1.2374                 0.5685                 0.5708
 IR Inten    --     27.5307                 0.6740                 3.0571

                     46                     47                     48
                      A                      A                      A
 Frequencies --    956.1480               960.9373               982.4406
 Red. masses --      1.4877                 1.4198                 3.2343
 Frc consts  --      0.8013                 0.7724                 1.8393
 IR Inten    --      0.7518                15.6640                 3.1373

                     49                     50                     51
                      A                      A                      A
 Frequencies --    999.2269              1016.1903              1018.8744
 Red. masses --      1.1725                 1.4375                 1.8467
 Frc consts  --      0.6897                 0.8746                 1.1295
 IR Inten    --     40.3874                 2.1257                19.2830

                     52                     53                     54
                      A                      A                      A
 Frequencies --   1021.5683              1024.6410              1025.3645
 Red. masses --      2.1652                 1.5430                 3.8821
 Frc consts  --      1.3313                 0.9545                 2.4048
 IR Inten    --      4.1177                 0.0890                 4.5496

                     55                     56                     57
                      A                      A                      A
 Frequencies --   1028.3273              1031.5735              1054.7894
 Red. masses --      2.5676                 1.3341                 1.6730
 Frc consts  --      1.5997                 0.8364                 1.0966
 IR Inten    --      9.3572                 1.2362                93.8550

                     58                     59                     60
                      A                      A                      A
 Frequencies --   1061.3567              1067.1723              1079.8645
 Red. masses --      2.3714                 1.9160                 1.2585
 Frc consts  --      1.5739                 1.2856                 0.8646
 IR Inten    --     12.8745                28.4666                72.5992

                     61                     62                     63
                      A                      A                      A
 Frequencies --   1093.4103              1108.9446              1116.3622
 Red. masses --      3.2073                 1.5840                 1.7504
 Frc consts  --      2.2592                 1.1477                 1.2853
 IR Inten    --     10.1926                19.5470                 4.1040

                     64                     65                     66
                      A                      A                      A
 Frequencies --   1127.0723              1149.9842              1162.8722
 Red. masses --      1.9813                 1.4481                 1.9186
 Frc consts  --      1.4829                 1.1283                 1.5286
 IR Inten    --     34.6740                 3.5648                36.8048

                     67                     68                     69
                      A                      A                      A
 Frequencies --   1179.8137              1183.0933              1187.0150
 Red. masses --      1.1260                 1.1259                 2.1429
 Frc consts  --      0.9235                 0.9285                 1.7790
 IR Inten    --      0.4679                 0.0256                22.1631

                     70                     71                     72
                      A                      A                      A
 Frequencies --   1208.4311              1211.6584              1223.2360
 Red. masses --      1.1238                 1.2077                 1.2907
 Frc consts  --      0.9669                 1.0447                 1.1379
 IR Inten    --      0.9065                25.9558                53.7812

                     73                     74                     75
                      A                      A                      A
 Frequencies --   1262.9422              1280.4560              1300.5573
 Red. masses --      3.9678                 2.8058                 4.0457
 Frc consts  --      3.7287                 2.7105                 4.0318
 IR Inten    --     40.7605                57.0814               101.5926

                     76                     77                     78
                      A                      A                      A
 Frequencies --   1323.2859              1335.9936              1352.7335
 Red. masses --      4.0043                 3.7963                 1.4618
 Frc consts  --      4.1313                 3.9923                 1.5761
 IR Inten    --     72.1442               361.2265                13.1399

                     79                     80                     81
                      A                      A                      A
 Frequencies --   1360.3229              1366.1995              1401.3387
 Red. masses --      1.5214                 1.3710                 3.1354
 Frc consts  --      1.6587                 1.5077                 3.6277
 IR Inten    --     46.2756                 5.9417               350.5061

                     82                     83                     84
                      A                      A                      A
 Frequencies --   1419.5209              1451.5877              1454.3446
 Red. masses --      1.2949                 1.2145                 1.2586
 Frc consts  --      1.5374                 1.5078                 1.5685
 IR Inten    --     70.2303                 7.5214                43.1720

                     85                     86                     87
                      A                      A                      A
 Frequencies --   1473.7531              1482.5053              1485.3597
 Red. masses --      1.0446                 1.2824                 2.0984
 Frc consts  --      1.3367                 1.6606                 2.7278
 IR Inten    --     14.9827                 7.3980                 6.6268

                     88                     89                     90
                      A                      A                      A
 Frequencies --   1487.8642              1494.0525              1497.5235
 Red. masses --      1.1318                 1.6159                 1.0869
 Frc consts  --      1.4762                 2.1251                 1.4360
 IR Inten    --     13.2021                60.5181                 5.4685

                     91                     92                     93
                      A                      A                      A
 Frequencies --   1506.8276              1508.6108              1539.1087
 Red. masses --      1.0420                 1.1025                 2.3450
 Frc consts  --      1.3940                 1.4784                 3.2730
 IR Inten    --      4.9506                16.9507                84.4419

                     94                     95                     96
                      A                      A                      A
 Frequencies --   1542.6870              1544.3141              1603.6094
 Red. masses --      2.2431                 1.9986                 3.8104
 Frc consts  --      3.1453                 2.8083                 5.7732
 IR Inten    --     15.7360               626.7278               747.4406

                     97                     98                     99
                      A                      A                      A
 Frequencies --   1638.0415              1651.1956              1659.5837
 Red. masses --      5.4352                 5.0997                 1.1994
 Frc consts  --      8.5924                 8.1920                 1.9462
 IR Inten    --     10.9503                 9.3468                 9.2243

                    100                    101                    102
                      A                      A                      A
 Frequencies --   1667.3887              1673.6817              3037.5758
 Red. masses --      5.7777                 5.8793                 1.0405
 Frc consts  --      9.4642                 9.7033                 5.6564
 IR Inten    --     28.0121                 3.5688               103.6809

                    103                    104                    105
                      A                      A                      A
 Frequencies --   3062.1001              3072.9700              3098.2748
 Red. masses --      1.0334                 1.0360                 1.0988
 Frc consts  --      5.7090                 5.7641                 6.2143
 IR Inten    --     68.9305                17.5885                53.0026

                    106                    107                    108
                      A                      A                      A
 Frequencies --   3134.2571              3146.1562              3151.5270
 Red. masses --      1.1033                 1.1007                 1.1012
 Frc consts  --      6.3856                 6.4194                 6.4439
 IR Inten    --     12.5856                20.0284                28.7051

                    109                    110                    111
                      A                      A                      A
 Frequencies --   3157.1694              3160.6092              3183.6148
 Red. masses --      1.1046                 1.1039                 1.0865
 Frc consts  --      6.4874                 6.4969                 6.4880
 IR Inten    --     28.6078                27.6501                13.5125

                    112                    113                    114
                      A                      A                      A
 Frequencies --   3188.4895              3192.4127              3198.5806
 Red. masses --      1.0871                 1.0855                 1.0882
 Frc consts  --      6.5116                 6.5178                 6.5595
 IR Inten    --      2.9201                 3.9878                 3.5192

                    115                    116                    117
                      A                      A                      A
 Frequencies --   3198.7805              3204.9480              3208.0847
 Red. masses --      1.0912                 1.0948                 1.0921
 Frc consts  --      6.5782                 6.6254                 6.6224
 IR Inten    --     12.8349                54.0782                30.3392

                    118                    119                    120
                      A                      A                      A
 Frequencies --   3216.7153              3217.6393              3222.7480
 Red. masses --      1.0940                 1.0986                 1.0979
 Frc consts  --      6.6694                 6.7014                 6.7184
 IR Inten    --     31.5661                22.7065                14.6899

                    121                    122                    123
                      A                      A                      A
 Frequencies --   3356.4213              3594.6436              3683.2881
 Red. masses --      1.0687                 1.0820                 1.0775
 Frc consts  --      7.0937                 8.2372                 8.6124
 IR Inten    --    203.7976                59.8589                67.9155

 - Thermochemistry -
 -------------------
 Temperature   298.150 Kelvin.  Pressure   1.00000 Atm.
 Atom     1 has atomic number  6 and mass  12.00000

 Molecular mass:   282.17321 amu.
 Principal axes and moments of inertia in atomic units:
                           1         2         3
     Eigenvalues --  3866.311868148.813558779.65686
           X            0.99996   0.00911   0.00001
           Y           -0.00910   0.99885  -0.04700
           Z           -0.00044   0.04700   0.99889
 This molecule is an asymmetric top.
 Rotational symmetry number  1.
 Warning -- assumption of classical behavior for rotation
           may cause significant error
 Rotational temperatures (Kelvin)      0.02240     0.01063     0.00987
 Rotational constants (GHZ):           0.46679     0.22147     0.20556
    1 imaginary frequencies ignored.
 Zero-point vibrational energy     964322.7 (Joules/Mol)
                                  230.47865 (Kcal/Mol)
 Warning -- explicit consideration of  30 degrees of freedom as
           vibrations may cause significant error
 Vibrational temperatures:     48.50    65.34    78.78    93.74    98.83
          (Kelvin)            117.51   133.81   169.32   193.73   208.28
                              234.74   258.86   293.04   326.30   365.59
                              383.79   414.74   426.02   441.21   467.85
                              485.14   548.69   595.79   612.06   616.82
                              624.71   681.10   773.44   811.77   845.97
                              898.26   917.67   922.42   988.17  1036.24
                             1049.26  1054.78  1096.58  1142.89  1154.05
                             1174.19  1215.63  1267.16  1269.34  1375.68
                             1382.57  1413.51  1437.66  1462.07  1465.93
                             1469.81  1474.23  1475.27  1479.53  1484.20
                             1517.61  1527.06  1535.42  1553.68  1573.17
                             1595.52  1606.20  1621.61  1654.57  1673.11
                             1697.49  1702.21  1707.85  1738.66  1743.31
                             1759.96  1817.09  1842.29  1871.21  1903.91
                             1922.20  1946.28  1957.20  1965.66  2016.21
                             2042.37  2088.51  2092.48  2120.40  2132.99
                             2137.10  2140.70  2149.61  2154.60  2167.99
                             2170.55  2214.43  2219.58  2221.92  2307.24
                             2356.78  2375.70  2387.77  2399.00  2408.05
                             4370.39  4405.68  4421.32  4457.73  4509.50
                             4526.62  4534.34  4542.46  4547.41  4580.51
                             4587.53  4593.17  4602.04  4602.33  4611.21
                             4615.72  4628.14  4629.47  4636.82  4829.14
                             5171.89  5299.43

 Zero-point correction=                           0.367291 (Hartree/Particle)
 Thermal correction to Energy=                    0.387615
 Thermal correction to Enthalpy=                  0.388559
 Thermal correction to Gibbs Free Energy=         0.318010
 Sum of electronic and zero-point Energies=           -883.535730
 Sum of electronic and thermal Energies=              -883.515406
 Sum of electronic and thermal Enthalpies=            -883.514462
 Sum of electronic and thermal Free Energies=         -883.585011

                     E (Thermal)             CV                S
                      KCal/Mol        Cal/Mol-Kelvin    Cal/Mol-Kelvin
 Total                  243.232             77.497            148.483
 Electronic               0.000              0.000              0.000
 Translational            0.889              2.981             42.810
 Rotational               0.889              2.981             33.980
 Vibrational            241.455             71.536             71.693
 Vibration     1          0.594              1.983              5.598
 Vibration     2          0.595              1.979              5.008
 Vibration     3          0.596              1.976              4.638
 Vibration     4          0.597              1.971              4.295
 Vibration     5          0.598              1.969              4.191
 Vibration     6          0.600              1.962              3.850
 Vibration     7          0.602              1.954              3.596
 Vibration     8          0.608              1.935              3.138
 Vibration     9          0.613              1.919              2.879
 Vibration    10          0.616              1.908              2.740
 Vibration    11          0.623              1.888              2.513
 Vibration    12          0.629              1.867              2.329
 Vibration    13          0.639              1.835              2.100
 Vibration    14          0.650              1.800              1.904
 Vibration    15          0.665              1.756              1.702
 Vibration    16          0.672              1.734              1.617
 Vibration    17          0.685              1.696              1.484
 Vibration    18          0.690              1.681              1.439
 Vibration    19          0.697              1.661              1.380
 Vibration    20          0.709              1.625              1.284
 Vibration    21          0.718              1.601              1.225
 Vibration    22          0.751              1.510              1.034
 Vibration    23          0.778              1.440              0.912
 Vibration    24          0.787              1.415              0.874
 Vibration    25          0.790              1.408              0.863
 Vibration    26          0.795              1.396              0.845
 Vibration    27          0.830              1.309              0.728
 Vibration    28          0.893              1.167              0.571
 Vibration    29          0.920              1.109              0.515
 Vibration    30          0.945              1.057              0.471

 Optimization completed.
    -- Stationary point found.
 Normal termination of Gaussian 16 at Thu Apr 15 23:48:33 2021.
