 Gaussian 16, Revision A.03,
 Gaussian 16:  ES64L-G16RevA.03 25-Dec-2016

 ----------------------------------------------------------------------
 # wB97XD def2tzvp, opt=(ts, noeigen, calcfc, maxcycles=70, maxstep=5),
  freq=noraman, scrf=(iefpcm, solvent=water)
 ----------------------------------------------------------------------

 ------------------------
 2_iteration/TS-402-2.out
 ------------------------
 Symbolic Z-matrix:
 Charge =  0 Multiplicity = 1

 SCF Done:  E(RwB97XD) =  -828.524868412     A.U. after   14 cycles
 SCF Done:  E(RwB97XD) =  -828.525007824     A.U. after   12 cycles
 SCF Done:  E(RwB97XD) =  -828.524965335     A.U. after   12 cycles
 SCF Done:  E(RwB97XD) =  -828.525045653     A.U. after   12 cycles
 SCF Done:  E(RwB97XD) =  -828.525048597     A.U. after    9 cycles
 SCF Done:  E(RwB97XD) =  -828.525049572     A.U. after    8 cycles
 SCF Done:  E(RwB97XD) =  -828.525050839     A.U. after   10 cycles
 SCF Done:  E(RwB97XD) =  -828.525050960     A.U. after    9 cycles
 SCF Done:  E(RwB97XD) =  -828.525050917     A.U. after    9 cycles
 SCF Done:  E(RwB97XD) =  -828.525050803     A.U. after    7 cycles
 SCF Done:  E(RwB97XD) =  -828.525050859     A.U. after    9 cycles
 SCF Done:  E(RwB97XD) =  -828.525050862     A.U. after    9 cycles
 Optimization completed.
    -- Stationary point found.
 Normal termination of Gaussian 16 at Sat Apr 17 21:56:48 2021.

 ---------------------------------------------------------------------
 #N Geom=AllCheck Guess=TCheck SCRF=Check GenChk RwB97XD/def2TZVP Freq
 ---------------------------------------------------------------------

 Structure from the checkpoint file:  "/beegfs/scratch/user/q/tla25/Gau-416803.chk"
 ------------------------
 2_iteration/TS-402-2.out
 ------------------------
 Charge =  0 Multiplicity = 1

                         Standard orientation:
 ---------------------------------------------------------------------
 Center     Atomic      Atomic             Coordinates (Angstroms)
 Number     Number       Type             X           Y           Z
 ---------------------------------------------------------------------
      1          6           0       -0.515684    0.164046    0.433890
      2          6           0       -0.297360    0.378844    1.815420
      3          8           0       -1.159710    0.124491    2.684500
      4          6           0        0.468843    0.345743   -0.593837
      5          6           0       -0.400638    2.989770   -0.526026
      6          1           0       -0.734182    2.759834    0.483195
      7          1           0       -0.168490    4.050791   -0.603568
      8          1           0       -1.194036    2.738328   -1.226535
      9          7           0        0.778604    2.182262   -0.824775
     10          1           0        1.079505    2.343401   -1.779412
     11          1           0        1.548069    2.445454   -0.218629
     12          6           0        0.018669    0.027632   -2.012370
     13          1           0       -0.917890    0.525566   -2.260839
     14          1           0        0.782931    0.308287   -2.736911
     15          1           0       -0.139627   -1.046700   -2.103499
     16          6           0        1.876228   -0.183107   -0.375789
     17          6           0        2.050388   -1.320559    0.409395
     18          6           0        3.300345   -1.898771    0.567391
     19          6           0        4.407792   -1.353638   -0.063219
     20          6           0        4.246898   -0.235432   -0.867123
     21          6           0        2.993692    0.334379   -1.029952
     22          1           0        1.190593   -1.752089    0.903323
     23          1           0        3.405946   -2.779491    1.188274
     24          1           0        5.385955   -1.799621    0.063381
     25          1           0        5.098728    0.196185   -1.377053
     26          1           0        2.911192    1.191292   -1.685297
     27          6           0       -1.893984   -0.277500    0.055223
     28          6           0       -2.980960    0.596589    0.051775
     29          6           0       -4.254580    0.167131   -0.292520
     30          6           0       -4.473935   -1.158221   -0.642250
     31          6           0       -3.408890   -2.047291   -0.634421
     32          6           0       -2.139501   -1.608053   -0.285318
     33          1           0       -2.827832    1.631919    0.329652
     34          1           0       -5.078901    0.870236   -0.288803
     35          1           0       -5.466483   -1.495245   -0.914406
     36          1           0       -3.566662   -3.086413   -0.897323
     37          1           0       -1.314122   -2.311311   -0.275239
     38          6           0        0.989830    0.994624    2.346467
     39          1           0        1.469388    0.281974    3.020022
     40          1           0        1.723487    1.286901    1.600895
     41          1           0        0.716966    1.871817    2.935780
 ---------------------------------------------------------------------

 SCF Done:  E(RwB97XD) =  -828.525050862     A.U. after    1 cycles

 The electronic state is 1-A.
 Alpha  occ. eigenvalues --  -19.18256 -14.49856 -10.36050 -10.33541 -10.31988
 Alpha  occ. eigenvalues --  -10.30761 -10.29671 -10.29399 -10.29263 -10.29203
 Alpha  occ. eigenvalues --  -10.29076 -10.28862 -10.28389 -10.28328 -10.28307
 Alpha  occ. eigenvalues --  -10.28217 -10.27852 -10.27849 -10.26669 -10.24721
 Alpha  occ. eigenvalues --   -1.08776  -1.05390  -0.97570  -0.95848  -0.91826
 Alpha  occ. eigenvalues --   -0.86338  -0.85511  -0.84211  -0.83382  -0.82793
 Alpha  occ. eigenvalues --   -0.79528  -0.78040  -0.72642  -0.70773  -0.69443
 Alpha  occ. eigenvalues --   -0.68432  -0.66670  -0.64268  -0.62738  -0.61249
 Alpha  occ. eigenvalues --   -0.58540  -0.57447  -0.56390  -0.55398  -0.54664
 Alpha  occ. eigenvalues --   -0.53648  -0.53288  -0.52803  -0.51982  -0.51171
 Alpha  occ. eigenvalues --   -0.50515  -0.49965  -0.49871  -0.49002  -0.48296
 Alpha  occ. eigenvalues --   -0.47632  -0.46778  -0.46545  -0.45680  -0.44615
 Alpha  occ. eigenvalues --   -0.44024  -0.43158  -0.42531  -0.41400  -0.40936
 Alpha  occ. eigenvalues --   -0.40495  -0.34129  -0.33484  -0.32999  -0.32359
 Alpha  occ. eigenvalues --   -0.30601  -0.26251
 Alpha virt. eigenvalues --    0.03085   0.04734   0.05882   0.06019   0.07610
 Alpha virt. eigenvalues --    0.09697   0.12175   0.12650   0.13122   0.14408
 Alpha virt. eigenvalues --    0.14665   0.15186   0.16110   0.16372   0.16805

 Mulliken charges:
               1
     1  C   -0.203958
     2  C    0.176458
     3  O   -0.569801
     4  C    0.066510
     5  C   -0.325304
     6  H    0.162254
     7  H    0.169251
     8  H    0.166821
     9  N   -0.279589
    10  H    0.289475
    11  H    0.286166
    12  C   -0.374754
    13  H    0.153321
    14  H    0.151615
    15  H    0.152847
    16  C    0.194981
    17  C   -0.219238
    18  C   -0.155376
    19  C   -0.130786
    20  C   -0.174012
    21  C   -0.251306
    22  H    0.177264
    23  H    0.142515
    24  H    0.145313
    25  H    0.143569
    26  H    0.148071
    27  C    0.253063
    28  C   -0.276985
    29  C   -0.159320
    30  C   -0.143178
    31  C   -0.154455
    32  C   -0.272265
    33  H    0.147247
    34  H    0.134180
    35  H    0.138458
    36  H    0.134291
    37  H    0.150373
    38  C   -0.364605
    39  H    0.134985
    40  H    0.095543
    41  H    0.140361
 Sum of Mulliken charges =  -0.00000

 Dipole moment (field-independent basis, Debye):
    X=              7.0550    Y=              6.0116    Z=             -8.9782  Tot=             12.9042
 Quadrupole moment (field-independent basis, Debye-Ang):
   XX=           -112.8798   YY=            -96.8269   ZZ=           -135.4477
   XY=              1.7419   XZ=              8.1571   YZ=             -7.0763

  Exact polarizability: 356.992  -1.106 296.757  -7.359 -17.010 268.010
 Approx polarizability: 273.964  -0.763 251.104  -8.296 -15.923 223.523

 ******    1 imaginary frequencies (negative Signs) ******

                      1                      2                      3
                      A                      A                      A
 Frequencies --   -339.1361                38.7692                48.4099
 Red. masses --      5.3172                 3.8289                 3.5218
 Frc consts  --      0.3603                 0.0034                 0.0049
 IR Inten    --    689.0809                 0.7057                 0.6043

                      4                      5                      6
                      A                      A                      A
 Frequencies --     56.3101                73.9307                86.5817
 Red. masses --      4.2605                 4.4568                 4.3700
 Frc consts  --      0.0080                 0.0144                 0.0193
 IR Inten    --      1.9832                 6.7516                12.0177

                      7                      8                      9
                      A                      A                      A
 Frequencies --     94.6683                98.5511               123.1235
 Red. masses --      2.0172                 3.1212                 2.3206
 Frc consts  --      0.0107                 0.0179                 0.0207
 IR Inten    --      1.0836                 4.6406                 4.0268

                     10                     11                     12
                      A                      A                      A
 Frequencies --    161.6030               198.2407               210.1418
 Red. masses --      3.2636                 2.0936                 1.7985
 Frc consts  --      0.0502                 0.0485                 0.0468
 IR Inten    --      5.6395                 3.2586                 0.5395

                     13                     14                     15
                      A                      A                      A
 Frequencies --    213.5406               244.4008               272.8193
 Red. masses --      2.2121                 2.2791                 3.7982
 Frc consts  --      0.0594                 0.0802                 0.1666
 IR Inten    --      2.1271                 1.0376                 0.6536

                     16                     17                     18
                      A                      A                      A
 Frequencies --    285.5023               295.1166               324.6426
 Red. masses --      2.1686                 2.4346                 2.3935
 Frc consts  --      0.1041                 0.1249                 0.1486
 IR Inten    --      6.8641                 2.4292                26.6543

                     19                     20                     21
                      A                      A                      A
 Frequencies --    332.9962               352.4843               372.3920
 Red. masses --      3.1854                 1.7778                 3.0677
 Frc consts  --      0.2081                 0.1301                 0.2506
 IR Inten    --      8.1230                15.2887                 5.0672

                     22                     23                     24
                      A                      A                      A
 Frequencies --    420.1650               426.3172               427.8617
 Red. masses --      3.8204                 2.9466                 3.0461
 Frc consts  --      0.3974                 0.3155                 0.3285
 IR Inten    --      8.8610                 0.4456                 2.0170

                     25                     26                     27
                      A                      A                      A
 Frequencies --    480.2840               526.7896               551.3798
 Red. masses --      4.7610                 3.4223                 3.4652
 Frc consts  --      0.6471                 0.5596                 0.6207
 IR Inten    --      5.8343                19.4954                31.2333

                     28                     29                     30
                      A                      A                      A
 Frequencies --    584.9300               601.7007               634.1139
 Red. masses --      3.4540                 3.2246                 4.5741
 Frc consts  --      0.6963                 0.6878                 1.0837
 IR Inten    --     93.1012                 5.9972                48.2125

                     31                     32                     33
                      A                      A                      A
 Frequencies --    636.0493               639.5347               698.2247
 Red. masses --      5.9649                 6.1618                 3.6855
 Frc consts  --      1.4218                 1.4849                 1.0586
 IR Inten    --      1.7802                12.1729                 7.7003

                     34                     35                     36
                      A                      A                      A
 Frequencies --    703.7250               716.6589               729.5109
 Red. masses --      2.6787                 1.7788                 1.5272
 Frc consts  --      0.7816                 0.5383                 0.4789
 IR Inten    --     53.2616                24.0906               150.0784

                     37                     38                     39
                      A                      A                      A
 Frequencies --    730.4887               784.4662               797.4596
 Red. masses --      1.5714                 2.3601                 2.1378
 Frc consts  --      0.4940                 0.8557                 0.8010
 IR Inten    --     50.4364                23.0463                45.7990

                     40                     41                     42
                      A                      A                      A
 Frequencies --    839.3414               877.8847               879.9481
 Red. masses --      3.2197                 1.2469                 1.2465
 Frc consts  --      1.3364                 0.5662                 0.5687
 IR Inten    --     12.6173                 0.0945                 0.5311

                     43                     44                     45
                      A                      A                      A
 Frequencies --    919.6248               956.8966               960.6556
 Red. masses --      2.9025                 1.5130                 1.4537
 Frc consts  --      1.4462                 0.8162                 0.7904
 IR Inten    --     23.2991                 3.8413                11.2419

                     46                     47                     48
                      A                      A                      A
 Frequencies --   1009.5609              1012.5498              1017.1236
 Red. masses --      1.5884                 1.4481                 1.3573
 Frc consts  --      0.9539                 0.8747                 0.8273
 IR Inten    --     33.1414                15.3664                 0.8097

                     49                     50                     51
                      A                      A                      A
 Frequencies --   1021.8964              1024.0875              1025.0627
 Red. masses --      1.2727                 1.7265                 2.3004
 Frc consts  --      0.7831                 1.0668                 1.4241
 IR Inten    --      3.8903                 1.1879                 3.2757

                     52                     53                     54
                      A                      A                      A
 Frequencies --   1026.8565              1033.6221              1045.0277
 Red. masses --      5.9488                 1.3163                 1.8249
 Frc consts  --      3.6957                 0.8286                 1.1742
 IR Inten    --      0.7740                 5.0143                44.8598

                     55                     56                     57
                      A                      A                      A
 Frequencies --   1051.7604              1059.5423              1063.2551
 Red. masses --      1.9012                 1.3957                 2.0848
 Frc consts  --      1.2391                 0.9232                 1.3886
 IR Inten    --      6.4733                95.9982                10.5147

                     58                     59                     60
                      A                      A                      A
 Frequencies --   1066.9378              1079.4760              1088.8190
 Red. masses --      1.7720                 1.9721                 3.3896
 Frc consts  --      1.1885                 1.3540                 2.3676
 IR Inten    --     50.4150                 6.2227                 7.2183

                     61                     62                     63
                      A                      A                      A
 Frequencies --   1108.8313              1115.5965              1126.5903
 Red. masses --      1.5688                 2.1834                 1.6127
 Frc consts  --      1.1364                 1.6010                 1.2060
 IR Inten    --     16.8887                 4.7925                12.9351

                     64                     65                     66
                      A                      A                      A
 Frequencies --   1179.1996              1184.8822              1207.0798
 Red. masses --      1.1282                 1.1255                 1.1298
 Frc consts  --      0.9243                 0.9310                 0.9699
 IR Inten    --      0.0148                 0.2408                 0.0940

                     67                     68                     69
                      A                      A                      A
 Frequencies --   1216.5843              1223.0548              1255.6139
 Red. masses --      3.7057                 1.1577                 2.8758
 Frc consts  --      3.2315                 1.0203                 2.6713
 IR Inten    --     63.2627                 5.6961                60.2333

                     70                     71                     72
                      A                      A                      A
 Frequencies --   1259.5631              1305.4138              1319.3978
 Red. masses --      1.5665                 4.5809                 4.6730
 Frc consts  --      1.4643                 4.5994                 4.7929
 IR Inten    --     18.7828                 0.1228                 2.8579

                     73                     74                     75
                      A                      A                      A
 Frequencies --   1355.0698              1358.3176              1370.4534
 Red. masses --      1.4591                 1.3876                 1.5405
 Frc consts  --      1.5785                 1.5084                 1.7046
 IR Inten    --     15.9168                 9.0415                93.0258

                     76                     77                     78
                      A                      A                      A
 Frequencies --   1378.6953              1387.6032              1413.7003
 Red. masses --      1.7242                 1.8891                 2.9499
 Frc consts  --      1.9309                 2.1430                 3.4736
 IR Inten    --    292.9573               373.8369               132.2467

                     79                     80                     81
                      A                      A                      A
 Frequencies --   1421.7302              1462.9690              1476.9652
 Red. masses --      1.3106                 1.1773                 1.1615
 Frc consts  --      1.5608                 1.4846                 1.4928
 IR Inten    --     96.6335                 6.4912                22.8602

                     82                     83                     84
                      A                      A                      A
 Frequencies --   1483.7000              1484.3927              1485.8066
 Red. masses --      1.5472                 1.1333                 1.3590
 Frc consts  --      2.0067                 1.4713                 1.7676
 IR Inten    --      0.8068                14.6118                 5.0866

                     85                     86                     87
                      A                      A                      A
 Frequencies --   1489.9207              1499.8133              1500.9707
 Red. masses --      1.9906                 1.1555                 1.0466
 Frc consts  --      2.6035                 1.5314                 1.3892
 IR Inten    --     49.7006                45.1606                37.2602

                     88                     89                     90
                      A                      A                      A
 Frequencies --   1505.1876              1543.0725              1545.6714
 Red. masses --      1.0599                 2.3944                 2.2090
 Frc consts  --      1.4148                 3.3591                 3.1094
 IR Inten    --     33.2774                60.6475                11.8835

                     91                     92                     93
                      A                      A                      A
 Frequencies --   1577.8778              1642.9821              1648.2200
 Red. masses --      7.3355                 5.6672                 2.0413
 Frc consts  --     10.7604                 9.0133                 3.2674
 IR Inten    --    923.7495                 3.5007                32.4455

                     94                     95                     96
                      A                      A                      A
 Frequencies --   1656.3381              1670.9251              1675.1538
 Red. masses --      1.6611                 5.9630                 5.5255
 Frc consts  --      2.6850                 9.8090                 9.1355
 IR Inten    --     37.7188                36.6110                 1.5472

                     97                     98                     99
                      A                      A                      A
 Frequencies --   3064.5695              3067.1783              3082.4946
 Red. masses --      1.0403                 1.0359                 1.0330
 Frc consts  --      5.7563                 5.7416                 5.7829
 IR Inten    --     29.7116                15.9725                26.8734

                    100                    101                    102
                      A                      A                      A
 Frequencies --   3128.4637              3145.6323              3153.0758
 Red. masses --      1.1009                 1.1022                 1.1032
 Frc consts  --      6.3483                 6.4257                 6.4623
 IR Inten    --     22.6098                30.7261                23.9273

                    103                    104                    105
                      A                      A                      A
 Frequencies --   3166.2157              3179.6939              3180.5706
 Red. masses --      1.1051                 1.0871                 1.1007
 Frc consts  --      6.5273                 6.4758                 6.5604
 IR Inten    --     10.9089                11.9924                34.8368

                    106                    107                    108
                      A                      A                      A
 Frequencies --   3181.1478              3187.9687              3197.6399
 Red. masses --      1.1012                 1.0869                 1.0859
 Frc consts  --      6.5655                 6.5083                 6.5420
 IR Inten    --     26.5962                 0.0481                 0.8461

                    109                    110                    111
                      A                      A                      A
 Frequencies --   3198.0031              3205.5361              3207.6471
 Red. masses --      1.0918                 1.0890                 1.0937
 Frc consts  --      6.5787                 6.5930                 6.6300
 IR Inten    --     27.8035                 5.9623                51.6967

                    112                    113                    114
                      A                      A                      A
 Frequencies --   3216.2607              3216.2981              3223.5885
 Red. masses --      1.0977                 1.0927                 1.0933
 Frc consts  --      6.6899                 6.6601                 6.6937
 IR Inten    --     32.0567                15.9494                30.9797

                    115                    116                    117
                      A                      A                      A
 Frequencies --   3227.9672              3517.4267              3597.3974
 Red. masses --      1.0974                 1.0510                 1.0957
 Frc consts  --      6.7371                 7.6611                 8.3546
 IR Inten    --      7.1115                38.0162                49.2116

 - Thermochemistry -
 -------------------
 Temperature   298.150 Kelvin.  Pressure   1.00000 Atm.
 Atom     1 has atomic number  6 and mass  12.00000

 Molecular mass:   267.16231 amu.
 Principal axes and moments of inertia in atomic units:
                           1         2         3
     Eigenvalues --  3031.832327795.120748101.11137
           X            0.99997   0.00083   0.00768
           Y           -0.00057   0.99940  -0.03453
           Z           -0.00770   0.03453   0.99937
 This molecule is an asymmetric top.
 Rotational symmetry number  1.
 Warning -- assumption of classical behavior for rotation
           may cause significant error
 Rotational temperatures (Kelvin)      0.02857     0.01111     0.01069
 Rotational constants (GHZ):           0.59526     0.23152     0.22278
    1 imaginary frequencies ignored.
 Zero-point vibrational energy     920621.7 (Joules/Mol)
                                  220.03387 (Kcal/Mol)
 Warning -- explicit consideration of  28 degrees of freedom as
           vibrations may cause significant error
 Vibrational temperatures:     55.78    69.65    81.02   106.37   124.57
          (Kelvin)            136.21   141.79   177.15   232.51   285.22
                              302.35   307.24   351.64   392.53   410.77
                              424.61   467.09   479.11   507.15   535.79
                              604.52   613.38   615.60   691.02   757.93
                              793.31   841.58   865.71   912.35   915.13
                              920.15  1004.59  1012.50  1031.11  1049.60
                             1051.01  1128.67  1147.37  1207.63  1263.08
                             1266.05  1323.13  1376.76  1382.17  1452.53
                             1456.83  1463.41  1470.28  1473.43  1474.84
                             1477.42  1487.15  1503.56  1513.25  1524.44
                             1529.79  1535.09  1553.13  1566.57  1595.36
                             1605.09  1620.91  1696.61  1704.78  1736.72
                             1750.39  1759.70  1806.55  1812.23  1878.20
                             1898.32  1949.64  1954.32  1971.78  1983.64
                             1996.45  2034.00  2045.55  2104.89  2125.02
                             2134.71  2135.71  2137.74  2143.66  2157.90
                             2159.56  2165.63  2220.14  2223.88  2270.21
                             2363.88  2371.42  2383.10  2404.09  2410.17
                             4409.23  4412.99  4435.02  4501.16  4525.86
                             4536.57  4555.48  4574.87  4576.13  4576.96
                             4586.78  4600.69  4601.21  4612.05  4615.09
                             4627.48  4627.54  4638.02  4644.32  5060.79
                             5175.85

 Zero-point correction=                           0.350646 (Hartree/Particle)
 Thermal correction to Energy=                    0.369328
 Thermal correction to Enthalpy=                  0.370272
 Thermal correction to Gibbs Free Energy=         0.303766
 Sum of electronic and zero-point Energies=           -828.174405
 Sum of electronic and thermal Energies=              -828.155723
 Sum of electronic and thermal Enthalpies=            -828.154779
 Sum of electronic and thermal Free Energies=         -828.221285

                     E (Thermal)             CV                S
                      KCal/Mol        Cal/Mol-Kelvin    Cal/Mol-Kelvin
 Total                  231.757             72.720            139.974
 Electronic               0.000              0.000              0.000
 Translational            0.889              2.981             42.647
 Rotational               0.889              2.981             33.615
 Vibrational            229.979             66.759             63.712
 Vibration     1          0.594              1.981              5.321
 Vibration     2          0.595              1.978              4.881
 Vibration     3          0.596              1.975              4.582
 Vibration     4          0.599              1.966              4.046
 Vibration     5          0.601              1.959              3.736
 Vibration     6          0.603              1.953              3.561
 Vibration     7          0.604              1.950              3.483
 Vibration     8          0.610              1.930              3.051
 Vibration     9          0.622              1.889              2.531
 Vibration    10          0.637              1.842              2.149
 Vibration    11          0.642              1.825              2.042
 Vibration    12          0.644              1.820              2.013
 Vibration    13          0.660              1.772              1.771
 Vibration    14          0.676              1.723              1.578
 Vibration    15          0.683              1.701              1.500
 Vibration    16          0.689              1.683              1.444
 Vibration    17          0.709              1.626              1.287
 Vibration    18          0.715              1.610              1.246
 Vibration    19          0.729              1.570              1.155
 Vibration    20          0.744              1.529              1.070
 Vibration    21          0.783              1.426              0.891
 Vibration    22          0.788              1.413              0.871
 Vibration    23          0.789              1.410              0.866
 Vibration    24          0.837              1.294              0.709
 Vibration    25          0.882              1.191              0.594
 Vibration    26          0.907              1.137              0.541
 Vibration    27          0.942              1.064              0.476
 Vibration    28          0.960              1.028              0.447

 Optimization completed.
    -- Stationary point found.
 Normal termination of Gaussian 16 at Sat Apr 17 23:16:27 2021.
