 Gaussian 16, Revision A.03,
 Gaussian 16:  ES64L-G16RevA.03 25-Dec-2016

 ----------------------------------------------------------------------
 # wB97XD def2tzvp, opt=(ts, noeigen, calcfc, maxcycles=70, maxstep=8),
  freq=noraman, scrf=(iefpcm, solvent=water)
 ----------------------------------------------------------------------

 ------------------------
 1_iteration/TS-452-1.out
 ------------------------
 Symbolic Z-matrix:
 Charge =  0 Multiplicity = 1

 SCF Done:  E(RwB97XD) =  -441.670686391     A.U. after   14 cycles
 SCF Done:  E(RwB97XD) =  -441.670686461     A.U. after    7 cycles
 Optimization completed.
    -- Stationary point found.
 Normal termination of Gaussian 16 at Sat Feb 13 08:09:43 2021.

 ---------------------------------------------------------------------
 #N Geom=AllCheck Guess=TCheck SCRF=Check GenChk RwB97XD/def2TZVP Freq
 ---------------------------------------------------------------------

 Structure from the checkpoint file:  "/beegfs/scratch/user/q/tla25/Gau-32061.chk"
 ------------------------
 1_iteration/TS-452-1.out
 ------------------------
 Charge =  0 Multiplicity = 1

                         Standard orientation:
 ---------------------------------------------------------------------
 Center     Atomic      Atomic             Coordinates (Angstroms)
 Number     Number       Type             X           Y           Z
 ---------------------------------------------------------------------
      1          6           0        0.020166   -0.737143   -0.403350
      2          6           0       -1.171865   -0.214190    0.152928
      3          8           0       -1.314213    0.250736    1.284766
      4          6           0        1.183019   -0.791936    0.370576
      5          6           0        2.171646    1.585203   -0.743487
      6          1           0        3.090661    1.171244   -1.153688
      7          1           0        1.343086    1.349341   -1.414182
      8          1           0        2.270383    2.667610   -0.664879
      9          7           0        1.895901    0.966523    0.546377
     10          1           0        2.701558    0.984067    1.160823
     11          1           0        1.126414    1.426440    1.019353
     12          6           0        2.371464   -1.552761   -0.147223
     13          1           0        2.545895   -1.340409   -1.202931
     14          1           0        3.279090   -1.329334    0.413236
     15          1           0        2.173923   -2.621934   -0.050955
     16          1           0        1.034800   -0.867357    1.443452
     17          1           0        0.049309   -0.976801   -1.457684
     18          8           0       -2.225912   -0.248530   -0.713911
     19          6           0       -3.449371    0.290383   -0.241878
     20          1           0       -3.816043   -0.257158    0.627719
     21          1           0       -3.342535    1.343075    0.024902
     22          1           0       -4.157204    0.190564   -1.062044
 ---------------------------------------------------------------------

 SCF Done:  E(RwB97XD) =  -441.670686461     A.U. after    1 cycles

 The electronic state is 1-A.
 Alpha  occ. eigenvalues --  -19.27072 -19.20137 -14.47704 -10.38132 -10.32972
 Alpha  occ. eigenvalues --  -10.32109 -10.31279 -10.27798 -10.23632  -1.18077
 Alpha  occ. eigenvalues --   -1.08505  -1.03286  -0.89319  -0.82963  -0.78603
 Alpha  occ. eigenvalues --   -0.77667  -0.68359  -0.62812  -0.62264  -0.59203
 Alpha  occ. eigenvalues --   -0.56997  -0.55645  -0.55171  -0.53446  -0.50796
 Alpha  occ. eigenvalues --   -0.49730  -0.49011  -0.47245  -0.46580  -0.45508
 Alpha  occ. eigenvalues --   -0.43745  -0.42434  -0.40780  -0.37143  -0.34393
 Alpha  occ. eigenvalues --   -0.26927
 Alpha virt. eigenvalues --    0.07492   0.10337   0.13319   0.13530   0.15269
 Alpha virt. eigenvalues --    0.16301   0.16572   0.17314   0.17909   0.19359
 Alpha virt. eigenvalues --    0.19716   0.20431   0.20677   0.21358   0.21771

 Mulliken charges:
               1
     1  C   -0.535380
     2  C    0.459547
     3  O   -0.554067
     4  C    0.077359
     5  C   -0.293375
     6  H    0.154860
     7  H    0.142973
     8  H    0.152439
     9  N   -0.327844
    10  H    0.282183
    11  H    0.278537
    12  C   -0.379382
    13  H    0.137005
    14  H    0.137106
    15  H    0.144102
    16  H    0.134131
    17  H    0.125510
    18  O   -0.322216
    19  C   -0.184043
    20  H    0.119404
    21  H    0.118514
    22  H    0.132634
 Sum of Mulliken charges =  -0.00000

 Dipole moment (field-independent basis, Debye):
    X=              6.7175    Y=              2.8070    Z=             -0.5556  Tot=              7.3016
 Quadrupole moment (field-independent basis, Debye-Ang):
   XX=            -41.0307   YY=            -52.8252   ZZ=            -58.9203
   XY=              2.7749   XZ=              5.3899   YZ=             -0.7770

  Exact polarizability: 157.933   2.735 113.343   2.813   5.236 108.305
 Approx polarizability: 112.918   1.706  92.222   2.944   5.683  95.519

 ******    1 imaginary frequencies (negative Signs) ******

                      1                      2                      3
                      A                      A                      A
 Frequencies --   -373.8245                46.1896                76.8358
 Red. masses --      5.6750                 3.2566                 4.1460
 Frc consts  --      0.4672                 0.0041                 0.0144
 IR Inten    --    796.8890                 3.0352                19.1423

                      4                      5                      6
                      A                      A                      A
 Frequencies --     86.9415               129.2179               159.8858
 Red. masses --      2.3374                 2.6335                 2.0810
 Frc consts  --      0.0104                 0.0259                 0.0313
 IR Inten    --     11.7675                14.4389                 3.9815

                      7                      8                      9
                      A                      A                      A
 Frequencies --    181.9438               195.3981               229.2879
 Red. masses --      1.3292                 1.1442                 1.3561
 Frc consts  --      0.0259                 0.0257                 0.0420
 IR Inten    --      2.8202                 0.9526                 1.0542

                     10                     11                     12
                      A                      A                      A
 Frequencies --    249.8812               291.5992               332.4448
 Red. masses --      2.2892                 2.7215                 2.9239
 Frc consts  --      0.0842                 0.1363                 0.1904
 IR Inten    --      9.8471                27.4001                17.7106

                     13                     14                     15
                      A                      A                      A
 Frequencies --    389.5972               457.3342               533.3832
 Red. masses --      3.5317                 3.5618                 2.6107
 Frc consts  --      0.3158                 0.4389                 0.4376
 IR Inten    --      4.5059                10.2839                14.0311

                     16                     17                     18
                      A                      A                      A
 Frequencies --    681.5469               707.1278               722.6570
 Red. masses --      1.1713                 1.5121                 4.5662
 Frc consts  --      0.3206                 0.4455                 1.4050
 IR Inten    --    102.4388                74.6413                17.1245

                     19                     20                     21
                      A                      A                      A
 Frequencies --    804.1253               930.4461               950.7148
 Red. masses --      9.5244                 1.7585                 3.6643
 Frc consts  --      3.6286                 0.8970                 1.9514
 IR Inten    --     59.2086                32.6998                38.2551

                     22                     23                     24
                      A                      A                      A
 Frequencies --   1005.4811              1012.5711              1047.1545
 Red. masses --      1.2510                 1.1826                 1.3390
 Frc consts  --      0.7452                 0.7144                 0.8651
 IR Inten    --    137.6370                22.5515                96.4418

                     25                     26                     27
                      A                      A                      A
 Frequencies --   1062.5753              1103.4379              1137.4189
 Red. masses --      2.3920                 3.0911                 2.1481
 Frc consts  --      1.5912                 2.2175                 1.6374
 IR Inten    --     89.5299                61.5498               178.8868

                     28                     29                     30
                      A                      A                      A
 Frequencies --   1181.8931              1202.2850              1214.3889
 Red. masses --      1.2828                 2.0849                 1.5424
 Frc consts  --      1.0558                 1.7756                 1.3402
 IR Inten    --      1.7659               596.0523                 2.7990

                     31                     32                     33
                      A                      A                      A
 Frequencies --   1218.9979              1227.6122              1275.1047
 Red. masses --      1.4373                 1.6302                 1.2918
 Frc consts  --      1.2583                 1.4475                 1.2375
 IR Inten    --     57.1108                15.4614                24.9766

                     34                     35                     36
                      A                      A                      A
 Frequencies --   1343.9092              1352.2947              1415.7730
 Red. masses --      1.5769                 1.6654                 1.2732
 Frc consts  --      1.6780                 1.7944                 1.5036
 IR Inten    --     74.7144                95.4808                16.7237

                     37                     38                     39
                      A                      A                      A
 Frequencies --   1453.8024              1473.1252              1482.0842
 Red. masses --      1.1828                 1.2017                 1.0475
 Frc consts  --      1.4729                 1.5365                 1.3557
 IR Inten    --     23.7177                24.9262                13.3336

                     40                     41                     42
                      A                      A                      A
 Frequencies --   1485.3585              1486.7295              1496.4716
 Red. masses --      1.1184                 1.0551                 1.0468
 Frc consts  --      1.4538                 1.3741                 1.3812
 IR Inten    --    106.4375                19.6442                13.3217

                     43                     44                     45
                      A                      A                      A
 Frequencies --   1498.1061              1508.1872              1531.9673
 Red. masses --      1.0650                 1.0389                 2.6887
 Frc consts  --      1.4083                 1.3922                 3.7179
 IR Inten    --     29.1734                29.3959               665.5496

                     46                     47                     48
                      A                      A                      A
 Frequencies --   1651.0879              1667.4304              3053.1499
 Red. masses --      1.1270                 7.5605                 1.0312
 Frc consts  --      1.8101                12.3850                 5.6638
 IR Inten    --    149.0957               597.3864                73.0572

                     49                     50                     51
                      A                      A                      A
 Frequencies --   3059.1940              3059.6429              3123.8708
 Red. masses --      1.0357                 1.0344                 1.1060
 Frc consts  --      5.7106                 5.7056                 6.3590
 IR Inten    --     18.9614                43.8163                49.8187

                     52                     53                     54
                      A                      A                      A
 Frequencies --   3129.9353              3134.3101              3139.2167
 Red. masses --      1.1008                 1.1037                 1.1014
 Frc consts  --      6.3539                 6.3880                 6.3950
 IR Inten    --     18.3798                12.0558                19.4937

                     55                     56                     57
                      A                      A                      A
 Frequencies --   3158.8017              3159.4439              3160.5594
 Red. masses --      1.0962                 1.1045                 1.1013
 Frc consts  --      6.4442                 6.4956                 6.4816
 IR Inten    --     35.1949                34.4111                20.4296

                     58                     59                     60
                      A                      A                      A
 Frequencies --   3208.5900              3522.0363              3605.1616
 Red. masses --      1.0896                 1.0507                 1.0967
 Frc consts  --      6.6089                 7.6790                 8.3980
 IR Inten    --     11.8830                24.7241                49.7089

 - Thermochemistry -
 -------------------
 Temperature   298.150 Kelvin.  Pressure   1.00000 Atm.
 Atom     1 has atomic number  6 and mass  12.00000

 Molecular mass:   131.09463 amu.
 Principal axes and moments of inertia in atomic units:
                           1         2         3
     Eigenvalues --   646.682072187.059472378.46065
           X            0.99997  -0.00666  -0.00265
           Y            0.00659   0.99963  -0.02629
           Z            0.00283   0.02627   0.99965
 This molecule is an asymmetric top.
 Rotational symmetry number  1.
 Warning -- assumption of classical behavior for rotation
           may cause significant error
 Rotational temperatures (Kelvin)      0.13394     0.03960     0.03642
 Rotational constants (GHZ):           2.79077     0.82519     0.75879
    1 imaginary frequencies ignored.
 Zero-point vibrational energy     503662.0 (Joules/Mol)
                                  120.37812 (Kcal/Mol)
 Warning -- explicit consideration of  14 degrees of freedom as
           vibrations may cause significant error
 Vibrational temperatures:     66.46   110.55   125.09   185.92   230.04
          (Kelvin)            261.78   281.13   329.89   359.52   419.55
                              478.31   560.54   658.00   767.42   980.59
                             1017.40  1039.74  1156.96  1338.70  1367.87
                             1446.66  1456.86  1506.62  1528.81  1587.60
                             1636.49  1700.48  1729.82  1747.23  1753.87
                             1766.26  1834.59  1933.59  1945.65  2036.98
                             2091.70  2119.50  2132.39  2137.10  2139.07
                             2153.09  2155.44  2169.94  2204.16  2375.55
                             2399.06  4392.80  4401.50  4402.14  4494.55
                             4503.28  4509.57  4516.63  4544.81  4545.74
                             4547.34  4616.45  5067.42  5187.02

 Zero-point correction=                           0.191835 (Hartree/Particle)
 Thermal correction to Energy=                    0.202957
 Thermal correction to Enthalpy=                  0.203902
 Thermal correction to Gibbs Free Energy=         0.154639
 Sum of electronic and zero-point Energies=           -441.478852
 Sum of electronic and thermal Energies=              -441.467729
 Sum of electronic and thermal Enthalpies=            -441.466785
 Sum of electronic and thermal Free Energies=         -441.516047

                     E (Thermal)             CV                S
                      KCal/Mol        Cal/Mol-Kelvin    Cal/Mol-Kelvin
 Total                  127.358             38.465            103.681
 Electronic               0.000              0.000              0.000
 Translational            0.889              2.981             40.525
 Rotational               0.889              2.981             29.599
 Vibrational            125.580             32.503             33.557
 Vibration     1          0.595              1.979              4.974
 Vibration     2          0.599              1.965              3.970
 Vibration     3          0.601              1.958              3.728
 Vibration     4          0.612              1.924              2.958
 Vibration     5          0.622              1.891              2.551
 Vibration     6          0.630              1.864              2.308
 Vibration     7          0.636              1.846              2.176
 Vibration     8          0.652              1.796              1.885
 Vibration     9          0.663              1.763              1.731
 Vibration    10          0.687              1.689              1.465
 Vibration    11          0.714              1.611              1.248
 Vibration    12          0.758              1.492              1.002
 Vibration    13          0.815              1.345              0.774
 Vibration    14          0.888              1.176              0.580

 Optimization completed.
    -- Stationary point found.
 Normal termination of Gaussian 16 at Sat Feb 13 08:20:13 2021.
