 Gaussian 16, Revision A.03,
 Gaussian 16:  ES64L-G16RevA.03 25-Dec-2016

 ----------------------------------------------------------------------
 # wB97XD def2tzvp, opt=(ts, noeigen, calcfc, maxcycles=70, maxstep=5),
  freq=noraman, scrf=(iefpcm, solvent=water)
 ----------------------------------------------------------------------

 -----------------------
 2_iteration/TS-42-2.out
 -----------------------
 Symbolic Z-matrix:
 Charge =  0 Multiplicity = 1

 SCF Done:  E(RwB97XD) =  -789.220873952     A.U. after   15 cycles
 Optimization completed.
    -- Stationary point found.
 Normal termination of Gaussian 16 at Sun Jan 31 16:56:51 2021.

 ---------------------------------------------------------------------
 #N Geom=AllCheck Guess=TCheck SCRF=Check GenChk RwB97XD/def2TZVP Freq
 ---------------------------------------------------------------------

 Structure from the checkpoint file:  "/beegfs/scratch/user/q/tla25/Gau-19339.chk"
 -----------------------
 2_iteration/TS-42-2.out
 -----------------------
 Charge =  0 Multiplicity = 1

                         Standard orientation:
 ---------------------------------------------------------------------
 Center     Atomic      Atomic             Coordinates (Angstroms)
 Number     Number       Type             X           Y           Z
 ---------------------------------------------------------------------
      1          6           0        0.846813    0.909197   -0.413410
      2          6           0        1.648127    2.064505   -0.659730
      3          8           0        1.169960    3.215956   -0.688860
      4          6           0       -0.538456    1.127282   -0.361580
      5          6           0       -2.297632    2.559487    1.473420
      6          1           0       -2.407950    3.235147    2.323480
      7          1           0       -2.620790    3.076148    0.569550
      8          1           0       -2.937225    1.690809    1.622870
      9          7           0       -0.922653    2.115713    1.294910
     10          1           0       -0.279591    2.883931    1.135130
     11          1           0       -0.585095    1.557112    2.068160
     12          6           0       -1.544260    0.039405   -0.289050
     13          6           0       -1.512043   -0.941165    0.701400
     14          6           0       -2.473396   -1.936253    0.739400
     15          6           0       -3.480006   -1.972690   -0.217490
     16          6           0       -3.525863   -0.998519   -1.202600
     17          6           0       -2.569500    0.006818   -1.229360
     18          1           0       -0.728862   -0.925938    1.448640
     19          1           0       -2.437418   -2.688083    1.517630
     20          1           0       -4.228848   -2.754047   -0.189160
     21          1           0       -4.311443   -1.013857   -1.947400
     22          1           0       -2.615767    0.774088   -1.993230
     23          1           0       -0.875614    1.987023   -0.931160
     24          6           0        1.461119   -0.410814   -0.115890
     25          6           0        2.234628   -0.604987    1.028920
     26          6           0        2.801115   -1.838928    1.315660
     27          6           0        2.599222   -2.912938    0.460720
     28          6           0        1.833772   -2.738536   -0.684500
     29          6           0        1.277466   -1.500864   -0.968230
     30          1           0        2.385591    0.225523    1.709070
     31          1           0        3.395594   -1.963420    2.212590
     32          1           0        3.036099   -3.878299    0.683820
     33          1           0        1.673180   -3.569055   -1.361130
     34          1           0        0.681786   -1.370982   -1.864040
     35          6           0        3.139466    1.906811   -0.878160
     36          1           0        3.404263    0.939150   -1.302400
     37          1           0        3.487078    2.706910   -1.530770
     38          1           0        3.660466    2.003339    0.077790
 ---------------------------------------------------------------------

 SCF Done:  E(RwB97XD) =  -789.220873952     A.U. after    1 cycles

 The electronic state is 1-A.
 Alpha  occ. eigenvalues --  -19.19944 -14.46862 -10.34474 -10.33455 -10.31331
 Alpha  occ. eigenvalues --  -10.30331 -10.29351 -10.29318 -10.29265 -10.29240
 Alpha  occ. eigenvalues --  -10.29189 -10.29159 -10.28613 -10.28569 -10.28491
 Alpha  occ. eigenvalues --  -10.28239 -10.28193 -10.26748 -10.25572  -1.10349
 Alpha  occ. eigenvalues --   -1.02572  -0.97340  -0.96154  -0.90553  -0.86562
 Alpha  occ. eigenvalues --   -0.85389  -0.84514  -0.82589  -0.81679  -0.78052
 Alpha  occ. eigenvalues --   -0.73947  -0.70910  -0.69786  -0.69285  -0.67113
 Alpha  occ. eigenvalues --   -0.62975  -0.61910  -0.60844  -0.58483  -0.56333
 Alpha  occ. eigenvalues --   -0.55693  -0.55290  -0.54693  -0.53905  -0.53209
 Alpha  occ. eigenvalues --   -0.52147  -0.51770  -0.51154  -0.50840  -0.50176
 Alpha  occ. eigenvalues --   -0.48802  -0.47664  -0.47351  -0.46741  -0.46356
 Alpha  occ. eigenvalues --   -0.45504  -0.44055  -0.43155  -0.42617  -0.41935
 Alpha  occ. eigenvalues --   -0.41619  -0.40767  -0.34660  -0.33911  -0.33552
 Alpha  occ. eigenvalues --   -0.32658  -0.31210  -0.26620
 Alpha virt. eigenvalues --    0.01961   0.04581   0.05338   0.06145   0.07900
 Alpha virt. eigenvalues --    0.10297   0.12644   0.13456   0.13582   0.14023
 Alpha virt. eigenvalues --    0.14796   0.15845   0.16203   0.16491   0.16970

 Mulliken charges:
               1
     1  C   -0.145199
     2  C    0.267714
     3  O   -0.561334
     4  C   -0.118483
     5  C   -0.281343
     6  H    0.150256
     7  H    0.146296
     8  H    0.151250
     9  N   -0.335667
    10  H    0.275425
    11  H    0.269685
    12  C    0.243234
    13  C   -0.247839
    14  C   -0.159353
    15  C   -0.135105
    16  C   -0.149767
    17  C   -0.214086
    18  H    0.172509
    19  H    0.142644
    20  H    0.145470
    21  H    0.143112
    22  H    0.141602
    23  H    0.156645
    24  C    0.127831
    25  C   -0.255657
    26  C   -0.149891
    27  C   -0.136592
    28  C   -0.170274
    29  C   -0.184866
    30  H    0.144345
    31  H    0.137175
    32  H    0.140587
    33  H    0.136502
    34  H    0.138828
    35  C   -0.392238
    36  H    0.136629
    37  H    0.129765
    38  H    0.140193
 Sum of Mulliken charges =   0.00000

 Dipole moment (field-independent basis, Debye):
    X=             -4.3857    Y=             -2.1790    Z=              4.4327  Tot=              6.6054
 Quadrupole moment (field-independent basis, Debye-Ang):
   XX=           -105.6499   YY=           -119.7260   ZZ=           -103.9445
   XY=             -8.8827   XZ=              4.5524   YZ=              9.3770

  Exact polarizability: 318.613  13.144 320.560  16.923  -9.388 259.128
 Approx polarizability: 236.433   7.536 256.057  20.242  -7.746 223.811

 ******    1 imaginary frequencies (negative Signs) ******

                      1                      2                      3
                      A                      A                      A
 Frequencies --   -357.3114                31.3262                39.9927
 Red. masses --      5.9102                 4.1908                 3.8563
 Frc consts  --      0.4446                 0.0024                 0.0036
 IR Inten    --    772.4495                 4.1384                 0.8931

                      4                      5                      6
                      A                      A                      A
 Frequencies --     40.3718                63.9725                67.7044
 Red. masses --      4.1159                 2.7761                 4.0326
 Frc consts  --      0.0040                 0.0067                 0.0109
 IR Inten    --      1.0527                 0.3533                 0.4276

                      7                      8                      9
                      A                      A                      A
 Frequencies --     88.7394               100.7112               105.2553
 Red. masses --      3.4490                 2.9417                 1.6604
 Frc consts  --      0.0160                 0.0176                 0.0108
 IR Inten    --      8.1994                 5.4687                 4.4010

                     10                     11                     12
                      A                      A                      A
 Frequencies --    108.4900               131.6095               172.1226
 Red. masses --      1.7927                 2.0495                 1.7602
 Frc consts  --      0.0124                 0.0209                 0.0307
 IR Inten    --     10.3204                 9.0593                 5.5458

                     13                     14                     15
                      A                      A                      A
 Frequencies --    194.1120               220.5595               256.2770
 Red. masses --      3.2887                 3.2630                 3.9180
 Frc consts  --      0.0730                 0.0935                 0.1516
 IR Inten    --      6.3073                 1.0458                20.6670

                     16                     17                     18
                      A                      A                      A
 Frequencies --    274.6237               306.6824               352.9731
 Red. masses --      4.2001                 3.7236                 4.8758
 Frc consts  --      0.1866                 0.2063                 0.3579
 IR Inten    --     24.6461                 3.4066                46.5029

                     19                     20                     21
                      A                      A                      A
 Frequencies --    401.1624               421.3340               422.7288
 Red. masses --      4.4426                 2.9152                 2.8673
 Frc consts  --      0.4212                 0.3049                 0.3019
 IR Inten    --     18.7678                 2.4307                 0.4410

                     22                     23                     24
                      A                      A                      A
 Frequencies --    477.7060               508.0320               547.1281
 Red. masses --      4.4626                 3.6764                 2.5637
 Frc consts  --      0.6000                 0.5591                 0.4522
 IR Inten    --      3.2782                27.1687                51.4774

                     25                     26                     27
                      A                      A                      A
 Frequencies --    564.6637               611.9125               625.2665
 Red. masses --      3.8797                 1.9979                 4.1671
 Frc consts  --      0.7288                 0.4408                 0.9599
 IR Inten    --     52.7664                83.1122                23.1118

                     28                     29                     30
                      A                      A                      A
 Frequencies --    634.5216               640.8076               672.3815
 Red. masses --      5.9380                 5.7658                 2.6894
 Frc consts  --      1.4086                 1.3950                 0.7164
 IR Inten    --      5.2317                 5.9195                29.5063

                     31                     32                     33
                      A                      A                      A
 Frequencies --    690.7474               726.3130               727.2965
 Red. masses --      3.5729                 1.6017                 1.5368
 Frc consts  --      1.0044                 0.4978                 0.4790
 IR Inten    --     69.1981                28.3283               178.7204

                     34                     35                     36
                      A                      A                      A
 Frequencies --    753.2017               798.6708               817.9846
 Red. masses --      3.2424                 2.0889                 2.6051
 Frc consts  --      1.0838                 0.7851                 1.0270
 IR Inten    --      1.0141                 9.3029                32.3320

                     37                     38                     39
                      A                      A                      A
 Frequencies --    852.2975               877.0726               880.8382
 Red. masses --      4.2792                 1.2490                 1.2474
 Frc consts  --      1.8314                 0.5661                 0.5702
 IR Inten    --     10.6489                 1.1135                 0.6908

                     40                     41                     42
                      A                      A                      A
 Frequencies --    952.1464               962.2387               986.1872
 Red. masses --      1.4787                 1.4405                 1.5568
 Frc consts  --      0.7899                 0.7858                 0.8921
 IR Inten    --      7.1324                 2.9966                70.0075

                     43                     44                     45
                      A                      A                      A
 Frequencies --    996.2287              1010.1050              1016.0982
 Red. masses --      1.4332                 1.3787                 1.3799
 Frc consts  --      0.8381                 0.8288                 0.8394
 IR Inten    --     38.4443                 0.5326                 0.5784

                     46                     47                     48
                      A                      A                      A
 Frequencies --   1019.2670              1023.4459              1025.3754
 Red. masses --      1.1836                 1.7573                 2.9670
 Frc consts  --      0.7245                 1.0845                 1.8380
 IR Inten    --     86.7743                18.5022                 0.7623

                     49                     50                     51
                      A                      A                      A
 Frequencies --   1027.1100              1027.9067              1032.4773
 Red. masses --      4.3841                 2.2475                 1.3636
 Frc consts  --      2.7250                 1.3991                 0.8565
 IR Inten    --      0.8662                16.0035                 3.2175

                     52                     53                     54
                      A                      A                      A
 Frequencies --   1044.5459              1061.8684              1065.3281
 Red. masses --      1.8209                 2.2498                 1.9865
 Frc consts  --      1.1706                 1.4946                 1.3284
 IR Inten    --      5.3224                31.3947                 5.2997

                     55                     56                     57
                      A                      A                      A
 Frequencies --   1080.0903              1107.1954              1118.3516
 Red. masses --      4.0289                 1.5545                 1.5937
 Frc consts  --      2.7692                 1.1228                 1.1744
 IR Inten    --    166.8141                14.4177                11.7858

                     58                     59                     60
                      A                      A                      A
 Frequencies --   1151.7561              1180.1581              1184.5090
 Red. masses --      2.0173                 1.1342                 1.1427
 Frc consts  --      1.5767                 0.9307                 0.9446
 IR Inten    --    127.6018                 0.3924                 0.3069

                     61                     62                     63
                      A                      A                      A
 Frequencies --   1187.6444              1193.3586              1205.5552
 Red. masses --      1.3671                 1.5104                 1.1208
 Frc consts  --      1.1361                 1.2673                 0.9597
 IR Inten    --     57.7180                39.3808                 0.3564

                     64                     65                     66
                      A                      A                      A
 Frequencies --   1214.3777              1240.5070              1306.3238
 Red. masses --      1.1296                 1.7473                 4.1833
 Frc consts  --      0.9815                 1.5842                 4.2060
 IR Inten    --      0.5208                24.6523                20.4427

                     67                     68                     69
                      A                      A                      A
 Frequencies --   1318.7958              1335.9403              1343.6140
 Red. masses --      3.3293                 2.9373                 1.4040
 Frc consts  --      3.4116                 3.0887                 1.4934
 IR Inten    --     98.3039               231.5711                 6.2268

                     70                     71                     72
                      A                      A                      A
 Frequencies --   1356.2284              1368.0306              1386.8130
 Red. masses --      1.4811                 1.4145                 1.4017
 Frc consts  --      1.6051                 1.5597                 1.5883
 IR Inten    --      1.8715                54.5162                56.0936

                     73                     74                     75
                      A                      A                      A
 Frequencies --   1406.0974              1444.9927              1461.5466
 Red. masses --      3.1887                 2.1811                 1.1583
 Frc consts  --      3.7144                 2.6833                 1.4579
 IR Inten    --     64.4319               602.1274                32.2220

                     76                     77                     78
                      A                      A                      A
 Frequencies --   1466.4580              1474.2071              1488.1294
 Red. masses --      1.2014                 1.1915                 2.1686
 Frc consts  --      1.5222                 1.5257                 2.8295
 IR Inten    --     82.6769               119.2846                36.2460

                     79                     80                     81
                      A                      A                      A
 Frequencies --   1489.0265              1502.2256              1505.7745
 Red. masses --      1.0453                 1.5496                 1.3291
 Frc consts  --      1.3655                 2.0603                 1.7756
 IR Inten    --     20.1185                91.1606                50.5657

                     82                     83                     84
                      A                      A                      A
 Frequencies --   1544.7210              1550.7105              1614.6452
 Red. masses --      2.5067                 2.4926                 7.4340
 Frc consts  --      3.5241                 3.5315                11.4190
 IR Inten    --     26.1047                 9.2561               589.5621

                     85                     86                     87
                      A                      A                      A
 Frequencies --   1643.1584              1649.0058              1656.1190
 Red. masses --      5.6967                 1.1348                 5.1886
 Frc consts  --      9.0621                 1.8181                 8.3846
 IR Inten    --      8.7177                51.5984                19.4383

                     88                     89                     90
                      A                      A                      A
 Frequencies --   1671.8482              1679.1405              3056.4854
 Red. masses --      5.9640                 5.8717                 1.0380
 Frc consts  --      9.8215                 9.7541                 5.7135
 IR Inten    --     12.2710                 0.3191                24.8221

                     91                     92                     93
                      A                      A                      A
 Frequencies --   3057.3011              3128.2056              3131.1294
 Red. masses --      1.0343                 1.0972                 1.1039
 Frc consts  --      5.6962                 6.3258                 6.3766
 IR Inten    --     59.2625                21.3340                24.9086

                     94                     95                     96
                      A                      A                      A
 Frequencies --   3153.3579              3157.4584              3162.8432
 Red. masses --      1.1047                 1.1044                 1.0893
 Frc consts  --      6.4718                 6.4871                 6.4201
 IR Inten    --     20.2193                32.5661                14.0922

                     97                     98                     99
                      A                      A                      A
 Frequencies --   3184.4233              3188.2261              3192.8756
 Red. masses --      1.0864                 1.0876                 1.0872
 Frc consts  --      6.4906                 6.5133                 6.5301
 IR Inten    --      9.9383                 2.4027                 5.8146

                    100                    101                    102
                      A                      A                      A
 Frequencies --   3198.2981              3199.0154              3205.2000
 Red. masses --      1.0911                 1.0878                 1.0950
 Frc consts  --      6.5761                 6.5589                 6.6280
 IR Inten    --     12.7943                 1.0412                52.1546

                    103                    104                    105
                      A                      A                      A
 Frequencies --   3207.7414              3215.8916              3217.1723
 Red. masses --      1.0913                 1.0950                 1.0987
 Frc consts  --      6.6158                 6.6721                 6.7001
 IR Inten    --     14.3238                36.0711                19.7028

                    106                    107                    108
                      A                      A                      A
 Frequencies --   3224.3214              3514.7932              3611.5101
 Red. masses --      1.0989                 1.0525                 1.0954
 Frc consts  --      6.7309                 7.6611                 8.4178
 IR Inten    --     15.1499                26.0865                50.1007

 - Thermochemistry -
 -------------------
 Temperature   298.150 Kelvin.  Pressure   1.00000 Atm.
 Atom     1 has atomic number  6 and mass  12.00000

 Molecular mass:   253.14666 amu.
 Principal axes and moments of inertia in atomic units:
                           1         2         3
     Eigenvalues --  4037.638955167.477017615.02558
           X            0.99969  -0.02469  -0.00239
           Y            0.02472   0.99963   0.01133
           Z            0.00211  -0.01138   0.99993
 This molecule is an asymmetric top.
 Rotational symmetry number  1.
 Warning -- assumption of classical behavior for rotation
           may cause significant error
 Rotational temperatures (Kelvin)      0.02145     0.01676     0.01137
 Rotational constants (GHZ):           0.44698     0.34925     0.23700
    1 imaginary frequencies ignored.
 Zero-point vibrational energy     843314.8 (Joules/Mol)
                                  201.55707 (Kcal/Mol)
 Warning -- explicit consideration of  25 degrees of freedom as
           vibrations may cause significant error
 Vibrational temperatures:     45.07    57.54    58.09    92.04    97.41
          (Kelvin)            127.68   144.90   151.44   156.09   189.36
                              247.65   279.28   317.34   368.73   395.12
                              441.25   507.85   577.18   606.21   608.21
                              687.31   730.94   787.20   812.43   880.41
                              899.62   912.94   921.98   967.41   993.83
                             1045.00  1046.42  1083.69  1149.11  1176.90
                             1226.27  1261.91  1267.33  1369.93  1384.45
                             1418.90  1433.35  1453.32  1461.94  1466.50
                             1472.51  1475.29  1477.78  1478.93  1485.50
                             1502.87  1527.79  1532.77  1554.01  1593.01
                             1609.06  1657.12  1697.98  1704.24  1708.76
                             1716.98  1734.53  1747.22  1784.81  1879.51
                             1897.45  1922.12  1933.16  1951.31  1968.29
                             1995.31  2023.06  2079.02  2102.84  2109.91
                             2121.06  2141.09  2142.38  2161.37  2166.47
                             2222.51  2231.13  2323.11  2364.14  2372.55
                             2382.79  2405.42  2415.91  4397.60  4398.77
                             4500.79  4505.00  4536.98  4542.88  4550.63
                             4581.67  4587.15  4593.84  4601.64  4602.67
                             4611.57  4615.22  4626.95  4628.79  4639.08
                             5057.00  5196.16

 Zero-point correction=                           0.321202 (Hartree/Particle)
 Thermal correction to Energy=                    0.339281
 Thermal correction to Enthalpy=                  0.340225
 Thermal correction to Gibbs Free Energy=         0.273216
 Sum of electronic and zero-point Energies=           -788.899672
 Sum of electronic and thermal Energies=              -788.881593
 Sum of electronic and thermal Enthalpies=            -788.880649
 Sum of electronic and thermal Free Energies=         -788.947658

                     E (Thermal)             CV                S
                      KCal/Mol        Cal/Mol-Kelvin    Cal/Mol-Kelvin
 Total                  212.902             67.659            141.033
 Electronic               0.000              0.000              0.000
 Translational            0.889              2.981             42.487
 Rotational               0.889              2.981             33.429
 Vibrational            211.125             61.698             65.117
 Vibration     1          0.594              1.983              5.744
 Vibration     2          0.594              1.981              5.259
 Vibration     3          0.594              1.981              5.241
 Vibration     4          0.597              1.971              4.331
 Vibration     5          0.598              1.970              4.219
 Vibration     6          0.602              1.957              3.688
 Vibration     7          0.604              1.949              3.441
 Vibration     8          0.605              1.945              3.355
 Vibration     9          0.606              1.942              3.296
 Vibration    10          0.612              1.922              2.922
 Vibration    11          0.626              1.877              2.412
 Vibration    12          0.635              1.848              2.188
 Vibration    13          0.647              1.810              1.954
 Vibration    14          0.666              1.752              1.687
 Vibration    15          0.677              1.720              1.567
 Vibration    16          0.697              1.661              1.380
 Vibration    17          0.729              1.569              1.153
 Vibration    18          0.767              1.468              0.958
 Vibration    19          0.784              1.424              0.887
 Vibration    20          0.785              1.421              0.883
 Vibration    21          0.834              1.300              0.716
 Vibration    22          0.863              1.232              0.638
 Vibration    23          0.902              1.146              0.550
 Vibration    24          0.920              1.108              0.515
 Vibration    25          0.971              1.007              0.430

 Optimization completed.
    -- Stationary point found.
 Normal termination of Gaussian 16 at Sun Jan 31 19:03:30 2021.
