 Gaussian 16, Revision A.03,
 Gaussian 16:  ES64L-G16RevA.03 25-Dec-2016

 ----------------------------------------------------------------------
 # wB97XD def2tzvp, opt=(ts, noeigen, calcfc, maxcycles=70, maxstep=8),
  freq=noraman, scrf=(iefpcm, solvent=water)
 ----------------------------------------------------------------------

 ------------------------
 1_iteration/TS-413-1.out
 ------------------------
 Symbolic Z-matrix:
 Charge =  0 Multiplicity = 1

 SCF Done:  E(RwB97XD) =  -652.837625658     A.U. after   14 cycles
 SCF Done:  E(RwB97XD) =  -652.841284769     A.U. after   14 cycles
 SCF Done:  E(RwB97XD) =  -652.843512595     A.U. after   13 cycles
 SCF Done:  E(RwB97XD) =  -652.844026320     A.U. after   12 cycles
 SCF Done:  E(RwB97XD) =  -652.844047693     A.U. after   10 cycles
 SCF Done:  E(RwB97XD) =  -652.844054374     A.U. after   12 cycles
 SCF Done:  E(RwB97XD) =  -652.844119431     A.U. after   12 cycles
 SCF Done:  E(RwB97XD) =  -652.844053042     A.U. after   12 cycles
 SCF Done:  E(RwB97XD) =  -652.844140099     A.U. after   12 cycles
 SCF Done:  E(RwB97XD) =  -652.844167775     A.U. after   11 cycles
 SCF Done:  E(RwB97XD) =  -652.844170905     A.U. after   11 cycles
 SCF Done:  E(RwB97XD) =  -652.844170461     A.U. after   10 cycles
 SCF Done:  E(RwB97XD) =  -652.844172807     A.U. after   10 cycles
 SCF Done:  E(RwB97XD) =  -652.844170858     A.U. after   10 cycles
 SCF Done:  E(RwB97XD) =  -652.844172784     A.U. after   10 cycles
 SCF Done:  E(RwB97XD) =  -652.844172689     A.U. after    7 cycles
 SCF Done:  E(RwB97XD) =  -652.844172795     A.U. after    7 cycles
 SCF Done:  E(RwB97XD) =  -652.844172675     A.U. after    8 cycles
 SCF Done:  E(RwB97XD) =  -652.844172799     A.U. after    8 cycles
 Optimization completed.
    -- Stationary point found.
 Normal termination of Gaussian 16 at Sun Feb 14 07:26:42 2021.

 ---------------------------------------------------------------------
 #N Geom=AllCheck Guess=TCheck SCRF=Check GenChk RwB97XD/def2TZVP Freq
 ---------------------------------------------------------------------

 Structure from the checkpoint file:  "/beegfs/scratch/user/q/tla25/Gau-80351.chk"
 ------------------------
 1_iteration/TS-413-1.out
 ------------------------
 Charge =  0 Multiplicity = 1

                         Standard orientation:
 ---------------------------------------------------------------------
 Center     Atomic      Atomic             Coordinates (Angstroms)
 Number     Number       Type             X           Y           Z
 ---------------------------------------------------------------------
      1          6           0       -1.117245    0.401080   -0.936444
      2          6           0       -1.884811   -0.590136   -0.254756
      3          8           0       -1.677304   -0.977119    0.918459
      4          6           0        0.107716    0.954960   -0.491559
      5          6           0       -1.244355    2.614309    1.341818
      6          1           0       -1.716242    2.651499    2.323869
      7          1           0       -0.820937    3.589125    1.110915
      8          1           0       -2.003541    2.362359    0.596237
      9          7           0       -0.209151    1.594446    1.280812
     10          1           0        0.644429    1.866985    1.752558
     11          1           0       -0.553750    0.719358    1.670406
     12          6           0        0.454731    2.250123   -1.201156
     13          1           0        0.717692    2.051214   -2.240510
     14          1           0       -0.408912    2.912223   -1.207209
     15          1           0        1.289691    2.765944   -0.728163
     16          6           0        1.309429    0.077498   -0.190597
     17          6           0        1.290123   -0.963383    0.741535
     18          6           0        2.406518   -1.757103    0.954630
     19          6           0        3.575546   -1.541520    0.240426
     20          6           0        3.611490   -0.516816   -0.690717
     21          6           0        2.496626    0.282880   -0.897525
     22          1           0        0.380416   -1.168411    1.285842
     23          1           0        2.357637   -2.553759    1.686964
     24          1           0        4.445986   -2.163131    0.408227
     25          1           0        4.512399   -0.329974   -1.261959
     26          1           0        2.567311    1.070850   -1.633337
     27          1           0       -1.645372    0.968430   -1.694597
     28          7           0       -2.961646   -1.105467   -0.931382
     29          6           0       -4.017589   -1.815177   -0.250131
     30          1           0       -3.179503   -0.696497   -1.822153
     31          1           0       -4.750834   -2.139817   -0.986570
     32          1           0       -3.626398   -2.697603    0.256195
     33          1           0       -4.525132   -1.194976    0.496448
 ---------------------------------------------------------------------

 SCF Done:  E(RwB97XD) =  -652.844172799     A.U. after    1 cycles

 The electronic state is 1-A.
 Alpha  occ. eigenvalues --  -19.19146 -14.47341 -14.43255 -10.36133 -10.34774
 Alpha  occ. eigenvalues --  -10.31126 -10.30153 -10.30083 -10.28802 -10.28746
 Alpha  occ. eigenvalues --  -10.28696 -10.28638 -10.28098 -10.27752 -10.23514
 Alpha  occ. eigenvalues --   -1.11248  -1.03184  -0.99880  -0.96635  -0.90720
 Alpha  occ. eigenvalues --   -0.84842  -0.84017  -0.81460  -0.78448  -0.76663
 Alpha  occ. eigenvalues --   -0.71423  -0.69894  -0.66779  -0.64082  -0.62358
 Alpha  occ. eigenvalues --   -0.61609  -0.57948  -0.56519  -0.55542  -0.54665
 Alpha  occ. eigenvalues --   -0.53503  -0.53328  -0.52379  -0.50798  -0.50705
 Alpha  occ. eigenvalues --   -0.49519  -0.48374  -0.47197  -0.46599  -0.45904
 Alpha  occ. eigenvalues --   -0.45703  -0.45586  -0.44947  -0.42374  -0.42123
 Alpha  occ. eigenvalues --   -0.40288  -0.33552  -0.33268  -0.33139  -0.32337
 Alpha  occ. eigenvalues --   -0.25689
 Alpha virt. eigenvalues --    0.03879   0.05538   0.08697   0.10595   0.12531
 Alpha virt. eigenvalues --    0.13429   0.13953   0.14841   0.15439   0.16051
 Alpha virt. eigenvalues --    0.17136   0.17268   0.17731   0.18592   0.19183

 Mulliken charges:
               1
     1  C   -0.598507
     2  C    0.434322
     3  O   -0.620048
     4  C    0.297552
     5  C   -0.316433
     6  H    0.153046
     7  H    0.160501
     8  H    0.147813
     9  N   -0.301287
    10  H    0.276534
    11  H    0.270051
    12  C   -0.441421
    13  H    0.155487
    14  H    0.154237
    15  H    0.160078
    16  C    0.140208
    17  C   -0.268492
    18  C   -0.160326
    19  C   -0.157271
    20  C   -0.150381
    21  C   -0.242216
    22  H    0.170547
    23  H    0.138378
    24  H    0.140990
    25  H    0.140117
    26  H    0.152575
    27  H    0.126940
    28  N   -0.341921
    29  C   -0.241310
    30  H    0.249248
    31  H    0.135597
    32  H    0.122394
    33  H    0.112998
 Sum of Mulliken charges =  -0.00000

 Dipole moment (field-independent basis, Debye):
    X=              0.6357    Y=              5.8277    Z=              0.3416  Tot=              5.8722
 Quadrupole moment (field-independent basis, Debye-Ang):
   XX=            -80.3335   YY=            -83.0541   ZZ=            -86.9359
   XY=             -2.5621   XZ=              4.9187   YZ=              3.2278

  Exact polarizability: 266.624   5.333 218.397  -1.391 -13.583 204.313
 Approx polarizability: 198.755   1.581 174.701  -2.330 -14.739 176.467

 ******    1 imaginary frequencies (negative Signs) ******

                      1                      2                      3
                      A                      A                      A
 Frequencies --   -404.2255                22.5284                54.1316
 Red. masses --      4.8461                 3.7834                 3.8178
 Frc consts  --      0.4665                 0.0011                 0.0066
 IR Inten    --    756.7945                 0.4254                 9.8607

                      4                      5                      6
                      A                      A                      A
 Frequencies --     81.2821                90.1033               107.4863
 Red. masses --      2.5786                 1.6489                 3.2914
 Frc consts  --      0.0100                 0.0079                 0.0224
 IR Inten    --      4.9504                 1.2159                70.3549

                      7                      8                      9
                      A                      A                      A
 Frequencies --    119.6872               135.4909               151.5107
 Red. masses --      2.2932                 2.0470                 3.8894
 Frc consts  --      0.0194                 0.0221                 0.0526
 IR Inten    --     10.8989                 9.4796                10.7539

                     10                     11                     12
                      A                      A                      A
 Frequencies --    211.6148               230.4852               250.1204
 Red. masses --      3.5692                 1.3813                 2.1074
 Frc consts  --      0.0942                 0.0432                 0.0777
 IR Inten    --     11.1087                 1.5029                 5.3165

                     13                     14                     15
                      A                      A                      A
 Frequencies --    279.1799               299.8157               313.6929
 Red. masses --      3.0770                 2.2693                 3.5952
 Frc consts  --      0.1413                 0.1202                 0.2084
 IR Inten    --      7.6364                15.7942                43.8866

                     16                     17                     18
                      A                      A                      A
 Frequencies --    318.5702               336.6549               349.7147
 Red. masses --      1.3946                 2.5898                 4.2725
 Frc consts  --      0.0834                 0.1729                 0.3079
 IR Inten    --      5.1242                 7.2562                 5.8211

                     19                     20                     21
                      A                      A                      A
 Frequencies --    421.1099               430.7779               438.5380
 Red. masses --      2.8899                 1.8715                 1.8140
 Frc consts  --      0.3019                 0.2046                 0.2055
 IR Inten    --      1.4305                58.2486                24.5874

                     22                     23                     24
                      A                      A                      A
 Frequencies --    491.7377               578.3750               595.5003
 Red. masses --      3.6128                 2.6114                 2.7958
 Frc consts  --      0.5147                 0.5147                 0.5842
 IR Inten    --      7.0440                80.7077                11.7574

                     25                     26                     27
                      A                      A                      A
 Frequencies --    632.7848               640.4932               690.6847
 Red. masses --      1.4205                 5.3580                 1.9199
 Frc consts  --      0.3351                 1.2950                 0.5396
 IR Inten    --    219.4583                15.4796                83.1865

                     28                     29                     30
                      A                      A                      A
 Frequencies --    727.1420               748.3308               785.6994
 Red. masses --      1.6353                 4.0010                 2.8864
 Frc consts  --      0.5094                 1.3201                 1.0498
 IR Inten    --     91.7263                 8.0086                10.6029

                     31                     32                     33
                      A                      A                      A
 Frequencies --    795.5251               805.4323               881.4534
 Red. masses --      3.4536                 2.9996                 1.2493
 Frc consts  --      1.2877                 1.1465                 0.5719
 IR Inten    --     60.5472                 9.3621                 2.9686

                     34                     35                     36
                      A                      A                      A
 Frequencies --    958.7957               965.1697              1001.4099
 Red. masses --      2.8717                 1.4346                 1.9925
 Frc consts  --      1.5554                 0.7874                 1.1772
 IR Inten    --      8.1310                 3.9728                 2.8679

                     37                     38                     39
                      A                      A                      A
 Frequencies --   1007.4315              1017.4789              1026.0575
 Red. masses --      1.1877                 1.4266                 3.7261
 Frc consts  --      0.7102                 0.8702                 2.3113
 IR Inten    --     74.9181                 3.5760                 0.1678

                     40                     41                     42
                      A                      A                      A
 Frequencies --   1035.7531              1050.4221              1062.2741
 Red. masses --      1.4216                 1.6247                 1.7846
 Frc consts  --      0.8986                 1.0562                 1.1865
 IR Inten    --      8.0666               112.8958                41.1798

                     43                     44                     45
                      A                      A                      A
 Frequencies --   1066.5880              1093.1356              1115.5355
 Red. masses --      1.6256                 3.2024                 1.8096
 Frc consts  --      1.0896                 2.2546                 1.3268
 IR Inten    --     31.5053                20.7275                44.7629

                     46                     47                     48
                      A                      A                      A
 Frequencies --   1123.4454              1146.6570              1160.6174
 Red. masses --      1.9042                 1.5379                 2.0403
 Frc consts  --      1.4160                 1.1914                 1.6193
 IR Inten    --     10.7714                23.4608                 5.0320

                     49                     50                     51
                      A                      A                      A
 Frequencies --   1175.3752              1185.6303              1212.0682
 Red. masses --      1.7057                 1.1239                 1.7550
 Frc consts  --      1.3884                 0.9308                 1.5191
 IR Inten    --    150.5294                 0.3297                79.0251

                     52                     53                     54
                      A                      A                      A
 Frequencies --   1218.0527              1228.8510              1275.3365
 Red. masses --      1.5524                 1.1659                 2.4569
 Frc consts  --      1.3571                 1.0373                 2.3545
 IR Inten    --    111.0926                15.6184               261.2397

                     55                     56                     57
                      A                      A                      A
 Frequencies --   1319.8785              1354.7643              1369.0802
 Red. masses --      5.3601                 1.4525                 1.8157
 Frc consts  --      5.5016                 1.5707                 2.0052
 IR Inten    --     49.1144                42.1253                48.7694

                     58                     59                     60
                      A                      A                      A
 Frequencies --   1378.4492              1413.3521              1450.9440
 Red. masses --      1.4592                 1.2513                 1.2425
 Frc consts  --      1.6336                 1.4727                 1.5412
 IR Inten    --     59.1413                12.4705               116.1033

                     61                     62                     63
                      A                      A                      A
 Frequencies --   1455.2598              1470.3220              1475.8184
 Red. masses --      1.1998                 2.0318                 1.0685
 Frc consts  --      1.4971                 2.5880                 1.3712
 IR Inten    --      3.1840               175.9768                44.0354

                     64                     65                     66
                      A                      A                      A
 Frequencies --   1489.6468              1490.5032              1500.2745
 Red. masses --      1.0478                 1.2982                 1.3603
 Frc consts  --      1.3699                 1.6992                 1.8040
 IR Inten    --     20.5978                12.0750                33.2957

                     67                     68                     69
                      A                      A                      A
 Frequencies --   1507.5657              1510.2245              1514.9183
 Red. masses --      1.0647                 1.0809                 1.3492
 Frc consts  --      1.4257                 1.4525                 1.8243
 IR Inten    --      4.1268                68.7491               113.3518

                     70                     71                     72
                      A                      A                      A
 Frequencies --   1537.7045              1546.0471              1608.6991
 Red. masses --      1.9652                 2.1179                 2.5589
 Frc consts  --      2.7379                 2.9826                 3.9018
 IR Inten    --    835.6161                62.7932               359.2976

                     73                     74                     75
                      A                      A                      A
 Frequencies --   1640.6798              1648.4416              1674.8963
 Red. masses --      1.4060                 4.6437                 5.7275
 Frc consts  --      2.2300                 7.4346                 9.4665
 IR Inten    --     55.8247                15.6640                 8.5792

                     76                     77                     78
                      A                      A                      A
 Frequencies --   3026.7847              3047.8378              3070.7013
 Red. masses --      1.0478                 1.0375                 1.0368
 Frc consts  --      5.6558                 5.6784                 5.7600
 IR Inten    --    110.6661                51.9724                15.1435

                     79                     80                     81
                      A                      A                      A
 Frequencies --   3104.9532              3121.2648              3143.9652
 Red. masses --      1.0887                 1.1004                 1.1017
 Frc consts  --      6.1840                 6.3161                 6.4158
 IR Inten    --     50.1431                16.1169                20.2192

                     82                     83                     84
                      A                      A                      A
 Frequencies --   3151.0061              3157.4264              3164.2283
 Red. masses --      1.1027                 1.1032                 1.1038
 Frc consts  --      6.4508                 6.4802                 6.5117
 IR Inten    --     28.2227                28.5534                14.5268

                     85                     86                     87
                      A                      A                      A
 Frequencies --   3171.6801              3192.2548              3201.2033
 Red. masses --      1.0874                 1.0862                 1.0907
 Frc consts  --      6.4449                 6.5213                 6.5854
 IR Inten    --     30.7674                 0.9876                23.5240

                     88                     89                     90
                      A                      A                      A
 Frequencies --   3215.9316              3234.3692              3242.6907
 Red. masses --      1.0963                 1.0924                 1.0925
 Frc consts  --      6.6801                 6.7333                 6.7684
 IR Inten    --     27.2914                13.1766                31.9237

                     91                     92                     93
                      A                      A                      A
 Frequencies --   3462.9681              3592.8710              3673.5963
 Red. masses --      1.0583                 1.0903                 1.0774
 Frc consts  --      7.4774                 8.2921                 8.5668
 IR Inten    --     62.3150                85.8723                46.7505

 - Thermochemistry -
 -------------------
 Temperature   298.150 Kelvin.  Pressure   1.00000 Atm.
 Atom     1 has atomic number  6 and mass  12.00000

 Molecular mass:   206.14191 amu.
 Principal axes and moments of inertia in atomic units:
                           1         2         3
     Eigenvalues --  2142.717664434.492405341.10890
           X            0.99999   0.00514  -0.00166
           Y           -0.00515   0.99997  -0.00658
           Z            0.00162   0.00659   0.99998
 This molecule is an asymmetric top.
 Rotational symmetry number  1.
 Warning -- assumption of classical behavior for rotation
           may cause significant error
 Rotational temperatures (Kelvin)      0.04042     0.01953     0.01622
 Rotational constants (GHZ):           0.84227     0.40698     0.33790
    1 imaginary frequencies ignored.
 Zero-point vibrational energy     750506.8 (Joules/Mol)
                                  179.37543 (Kcal/Mol)
 Warning -- explicit consideration of  23 degrees of freedom as
           vibrations may cause significant error
 Vibrational temperatures:     32.41    77.88   116.95   129.64   154.65
          (Kelvin)            172.20   194.94   217.99   304.47   331.62
                              359.87   401.68   431.37   451.33   458.35
                              484.37   503.16   605.88   619.79   630.96
                              707.50   832.15   856.79   910.44   921.53
                              993.74  1046.20  1076.68  1130.45  1144.58
                             1158.84  1268.21  1379.49  1388.66  1440.81
                             1449.47  1463.93  1476.27  1490.22  1511.32
                             1528.38  1534.58  1572.78  1605.01  1616.39
                             1649.78  1669.87  1691.10  1705.86  1743.90
                             1752.51  1768.04  1834.92  1899.01  1949.20
                             1969.80  1983.28  2033.50  2087.58  2093.79
                             2115.47  2123.37  2143.27  2144.50  2158.56
                             2169.05  2172.88  2179.63  2212.41  2224.42
                             2314.56  2360.57  2371.74  2409.80  4354.87
                             4385.16  4418.05  4467.34  4490.80  4523.46
                             4533.59  4542.83  4552.62  4563.34  4592.94
                             4605.82  4627.01  4653.54  4665.51  4982.44
                             5169.34  5285.49

 Zero-point correction=                           0.285853 (Hartree/Particle)
 Thermal correction to Energy=                    0.301575
 Thermal correction to Enthalpy=                  0.302519
 Thermal correction to Gibbs Free Energy=         0.242364
 Sum of electronic and zero-point Energies=           -652.558320
 Sum of electronic and thermal Energies=              -652.542598
 Sum of electronic and thermal Enthalpies=            -652.541654
 Sum of electronic and thermal Free Energies=         -652.601808

                     E (Thermal)             CV                S
                      KCal/Mol        Cal/Mol-Kelvin    Cal/Mol-Kelvin
 Total                  189.241             58.881            126.606
 Electronic               0.000              0.000              0.000
 Translational            0.889              2.981             41.874
 Rotational               0.889              2.981             32.295
 Vibrational            187.464             52.919             52.437
 Vibration     1          0.593              1.985              6.398
 Vibration     2          0.596              1.976              4.660
 Vibration     3          0.600              1.962              3.860
 Vibration     4          0.602              1.956              3.658
 Vibration     5          0.606              1.943              3.314
 Vibration     6          0.609              1.933              3.105
 Vibration     7          0.613              1.918              2.867
 Vibration     8          0.619              1.901              2.653
 Vibration     9          0.643              1.823              2.030
 Vibration    10          0.652              1.794              1.875
 Vibration    11          0.663              1.763              1.730
 Vibration    12          0.680              1.712              1.539
 Vibration    13          0.692              1.674              1.418
 Vibration    14          0.702              1.648              1.343
 Vibration    15          0.705              1.638              1.317
 Vibration    16          0.717              1.602              1.228
 Vibration    17          0.727              1.576              1.167
 Vibration    18          0.784              1.424              0.888
 Vibration    19          0.792              1.403              0.856
 Vibration    20          0.799              1.386              0.831
 Vibration    21          0.847              1.268              0.679
 Vibration    22          0.935              1.078              0.488
 Vibration    23          0.953              1.041              0.457

 Optimization completed.
    -- Stationary point found.
 Normal termination of Gaussian 16 at Sun Feb 14 08:35:41 2021.
