 Gaussian 16, Revision A.03,
 Gaussian 16:  ES64L-G16RevA.03 25-Dec-2016

 ----------------------------------------------------------------------
 # wB97XD def2tzvp, opt=(ts, noeigen, calcfc, maxcycles=70, maxstep=1),
  freq=noraman, scrf=(iefpcm, solvent=water)
 ----------------------------------------------------------------------

 ------------------------
 0_iteration/TS-497-0.out
 ------------------------
 Symbolic Z-matrix:
 Charge =  0 Multiplicity = 1

 SCF Done:  E(RwB97XD) =  -405.737090663     A.U. after   15 cycles
 SCF Done:  E(RwB97XD) =  -405.737068922     A.U. after   10 cycles
 SCF Done:  E(RwB97XD) =  -405.737050603     A.U. after   10 cycles
 SCF Done:  E(RwB97XD) =  -405.737036794     A.U. after   10 cycles
 SCF Done:  E(RwB97XD) =  -405.737028694     A.U. after   10 cycles
 SCF Done:  E(RwB97XD) =  -405.737029248     A.U. after   10 cycles
 SCF Done:  E(RwB97XD) =  -405.737044807     A.U. after   11 cycles
 SCF Done:  E(RwB97XD) =  -405.737075964     A.U. after   10 cycles
 SCF Done:  E(RwB97XD) =  -405.737108827     A.U. after   10 cycles
 SCF Done:  E(RwB97XD) =  -405.737144163     A.U. after   10 cycles
 SCF Done:  E(RwB97XD) =  -405.738852625     A.U. after   10 cycles
 SCF Done:  E(RwB97XD) =  -405.738878478     A.U. after   10 cycles
 SCF Done:  E(RwB97XD) =  -405.738885456     A.U. after   10 cycles
 SCF Done:  E(RwB97XD) =  -405.738891514     A.U. after   10 cycles
 SCF Done:  E(RwB97XD) =  -405.738889930     A.U. after   10 cycles
 SCF Done:  E(RwB97XD) =  -405.738887440     A.U. after   10 cycles
 SCF Done:  E(RwB97XD) =  -405.738888704     A.U. after    9 cycles
 SCF Done:  E(RwB97XD) =  -405.738889245     A.U. after    8 cycles
 SCF Done:  E(RwB97XD) =  -405.738889131     A.U. after    6 cycles
 Optimization completed.
    -- Stationary point found.
 Normal termination of Gaussian 16 at Sat Feb 13 08:19:03 2021.

 ---------------------------------------------------------------------
 #N Geom=AllCheck Guess=TCheck SCRF=Check GenChk RwB97XD/def2TZVP Freq
 ---------------------------------------------------------------------

 Structure from the checkpoint file:  "/beegfs/scratch/user/q/tla25/Gau-47706.chk"
 ------------------------
 0_iteration/TS-497-0.out
 ------------------------
 Charge =  0 Multiplicity = 1

                         Standard orientation:
 ---------------------------------------------------------------------
 Center     Atomic      Atomic             Coordinates (Angstroms)
 Number     Number       Type             X           Y           Z
 ---------------------------------------------------------------------
      1          6           0        0.993863    0.249375    0.079564
      2          6           0        1.911910   -0.791163   -0.113330
      3          8           0        3.081941   -0.697123   -0.541778
      4          6           0       -0.324159   -0.000962    0.563339
      5          6           0       -2.848913   -0.226031   -0.995385
      6          1           0       -3.187463   -1.018638   -0.331153
      7          1           0       -3.215578    0.729050   -0.626200
      8          1           0       -3.258433   -0.400693   -1.991135
      9          7           0       -1.384474   -0.203801   -1.017479
     10          1           0       -1.008148   -1.061905   -1.404709
     11          1           0       -1.043454    0.552807   -1.599435
     12          6           0       -1.048139    1.167803    1.191830
     13          1           0       -0.533324    1.427509    2.119674
     14          1           0       -1.043660    2.050292    0.554024
     15          1           0       -2.078606    0.917242    1.441056
     16          6           0       -0.660770   -1.308781    1.247335
     17          1           0       -1.733249   -1.382527    1.425839
     18          1           0       -0.348010   -2.185358    0.684823
     19          1           0       -0.163903   -1.335964    2.218431
     20          6           0        1.399279    1.651105   -0.301293
     21          1           0        0.731295    2.103431   -1.043908
     22          1           0        1.424036    2.334873    0.553039
     23          1           0        2.398346    1.626968   -0.734848
     24          1           0        1.557510   -1.801569    0.158715
 ---------------------------------------------------------------------

 SCF Done:  E(RwB97XD) =  -405.738889131     A.U. after    1 cycles

 The electronic state is 1-A.
 Alpha  occ. eigenvalues --  -19.18402 -14.48423 -10.35028 -10.32101 -10.31881
 Alpha  occ. eigenvalues --  -10.27999 -10.27834 -10.26151 -10.24502  -1.08144
 Alpha  occ. eigenvalues --   -1.03962  -0.92334  -0.83515  -0.80344  -0.79106
 Alpha  occ. eigenvalues --   -0.74744  -0.67379  -0.62995  -0.59267  -0.58268
 Alpha  occ. eigenvalues --   -0.56038  -0.55380  -0.52183  -0.50127  -0.48899
 Alpha  occ. eigenvalues --   -0.48256  -0.48109  -0.47575  -0.46209  -0.46147
 Alpha  occ. eigenvalues --   -0.43341  -0.42791  -0.42077  -0.40584  -0.30428
 Alpha  occ. eigenvalues --   -0.25928
 Alpha virt. eigenvalues --    0.05954   0.09438   0.13009   0.13512   0.14465
 Alpha virt. eigenvalues --    0.15779   0.16472   0.16995   0.17572   0.18513
 Alpha virt. eigenvalues --    0.18978   0.19749   0.20289   0.21800   0.22386

 Mulliken charges:
               1
     1  C   -0.065447
     2  C    0.057026
     3  O   -0.579663
     4  C    0.048255
     5  C   -0.297952
     6  H    0.154084
     7  H    0.161788
     8  H    0.157448
     9  N   -0.307664
    10  H    0.279316
    11  H    0.278441
    12  C   -0.379713
    13  H    0.153189
    14  H    0.152119
    15  H    0.145996
    16  C   -0.369785
    17  H    0.137029
    18  H    0.143646
    19  H    0.152737
    20  C   -0.427549
    21  H    0.112647
    22  H    0.126136
    23  H    0.123108
    24  H    0.044807
 Sum of Mulliken charges =  -0.00000

 Dipole moment (field-independent basis, Debye):
    X=            -12.6473    Y=              0.5583    Z=             -0.5759  Tot=             12.6727
 Quadrupole moment (field-independent basis, Debye-Ang):
   XX=            -76.9698   YY=            -55.5977   ZZ=            -53.0648
   XY=              5.6523   XZ=              8.7184   YZ=             -0.6395

  Exact polarizability: 185.437  -7.855 127.038  -2.308   0.428 117.652
 Approx polarizability: 137.803  -5.421 102.961  -2.488   0.894  98.888

 ******    1 imaginary frequencies (negative Signs) ******

                      1                      2                      3
                      A                      A                      A
 Frequencies --   -353.3368                47.9514                60.4979
 Red. masses --      5.8508                 2.1371                 2.9531
 Frc consts  --      0.4304                 0.0029                 0.0064
 IR Inten    --    910.8025                 3.8898                 2.7432

                      4                      5                      6
                      A                      A                      A
 Frequencies --    131.0452               163.5981               175.0839
 Red. masses --      2.6371                 1.0864                 1.1478
 Frc consts  --      0.0267                 0.0171                 0.0207
 IR Inten    --      6.6152                 0.4424                 0.9747

                      7                      8                      9
                      A                      A                      A
 Frequencies --    224.2472               236.0369               265.5753
 Red. masses --      1.4236                 2.3374                 1.8863
 Frc consts  --      0.0422                 0.0767                 0.0784
 IR Inten    --      0.2635                 5.3232                11.8367

                     10                     11                     12
                      A                      A                      A
 Frequencies --    269.4771               298.9992               317.5624
 Red. masses --      1.3721                 2.2426                 2.2751
 Frc consts  --      0.0587                 0.1181                 0.1352
 IR Inten    --      1.7493                 0.3477                 6.1974

                     13                     14                     15
                      A                      A                      A
 Frequencies --    342.0495               386.1636               408.1767
 Red. masses --      2.5201                 2.4300                 2.5778
 Frc consts  --      0.1737                 0.2135                 0.2530
 IR Inten    --     27.9294                10.5425                12.5777

                     16                     17                     18
                      A                      A                      A
 Frequencies --    473.0634               513.1035               599.2378
 Red. masses --      2.9352                 2.9806                 3.6478
 Frc consts  --      0.3870                 0.4623                 0.7718
 IR Inten    --      4.5823               161.7702                56.1758

                     19                     20                     21
                      A                      A                      A
 Frequencies --    675.4197               789.5591               915.2468
 Red. masses --      1.2793                 3.2797                 2.3947
 Frc consts  --      0.3439                 1.2046                 1.1819
 IR Inten    --     23.9923                 8.6447                53.9819

                     22                     23                     24
                      A                      A                      A
 Frequencies --    954.7567              1008.3961              1010.6653
 Red. masses --      1.3415                 1.2907                 1.4157
 Frc consts  --      0.7205                 0.7733                 0.8520
 IR Inten    --      1.2147                60.2070                62.2814

                     25                     26                     27
                      A                      A                      A
 Frequencies --   1018.6743              1036.5735              1050.4252
 Red. masses --      1.5806                 1.2097                 2.5561
 Frc consts  --      0.9664                 0.7658                 1.6617
 IR Inten    --     13.7967                 6.3353                64.4769

                     28                     29                     30
                      A                      A                      A
 Frequencies --   1059.8460              1065.9489              1106.8761
 Red. masses --      1.2024                 1.4218                 1.8275
 Frc consts  --      0.7957                 0.9518                 1.3191
 IR Inten    --    216.5442                65.2461                46.0350

                     31                     32                     33
                      A                      A                      A
 Frequencies --   1167.3996              1228.2346              1243.6088
 Red. masses --      2.2379                 3.3259                 1.4090
 Frc consts  --      1.7969                 2.9561                 1.2839
 IR Inten    --     20.7794                 3.5055                40.5453

                     34                     35                     36
                      A                      A                      A
 Frequencies --   1349.8709              1370.4642              1385.9579
 Red. masses --      1.3046                 1.7114                 1.5729
 Frc consts  --      1.4006                 1.8938                 1.7801
 IR Inten    --      1.0179               532.4533               255.3546

                     37                     38                     39
                      A                      A                      A
 Frequencies --   1410.2782              1421.9854              1427.4209
 Red. masses --      1.4177                 1.3049                 2.1748
 Frc consts  --      1.6613                 1.5545                 2.6108
 IR Inten    --     29.3349                28.4755                37.1213

                     40                     41                     42
                      A                      A                      A
 Frequencies --   1452.1554              1465.7056              1479.1663
 Red. masses --      1.3117                 1.2950                 1.0493
 Frc consts  --      1.6297                 1.6391                 1.3527
 IR Inten    --      5.7879                11.1612                 5.7645

                     43                     44                     45
                      A                      A                      A
 Frequencies --   1485.0626              1491.6368              1493.5855
 Red. masses --      1.0836                 1.0777                 1.0597
 Frc consts  --      1.4081                 1.4128                 1.3928
 IR Inten    --     11.4456                17.7619                 9.8652

                     46                     47                     48
                      A                      A                      A
 Frequencies --   1498.2554              1503.7786              1509.2141
 Red. masses --      1.0844                 1.0507                 1.0435
 Frc consts  --      1.4342                 1.3999                 1.4004
 IR Inten    --     10.5153                23.5736                24.2643

                     49                     50                     51
                      A                      A                      A
 Frequencies --   1522.7650              1622.5080              1640.8048
 Red. masses --      1.4463                 3.8891                 1.1234
 Frc consts  --      1.9760                 6.0322                 1.7820
 IR Inten    --     63.0094              1274.7152                19.3005

                     52                     53                     54
                      A                      A                      A
 Frequencies --   2945.4879              3012.9247              3057.4301
 Red. masses --      1.0799                 1.0439                 1.0971
 Frc consts  --      5.5204                 5.5833                 6.0422
 IR Inten    --    169.3531                84.7793                63.9235

                     55                     56                     57
                      A                      A                      A
 Frequencies --   3062.0215              3069.3219              3071.2605
 Red. masses --      1.0383                 1.0364                 1.0378
 Frc consts  --      5.7359                 5.7528                 5.7679
 IR Inten    --     19.3221                35.4778                37.0563

                     58                     59                     60
                      A                      A                      A
 Frequencies --   3132.5951              3135.1690              3138.4340
 Red. masses --      1.0995                 1.0953                 1.1008
 Frc consts  --      6.3572                 6.3434                 6.3883
 IR Inten    --      9.2790                16.1037                46.0194

                     61                     62                     63
                      A                      A                      A
 Frequencies --   3147.5191              3156.3752              3161.7335
 Red. masses --      1.1016                 1.1032                 1.1017
 Frc consts  --      6.4301                 6.4759                 6.4887
 IR Inten    --     10.0768                30.1518                29.2906

                     64                     65                     66
                      A                      A                      A
 Frequencies --   3175.1836              3523.3132              3601.0276
 Red. masses --      1.1060                 1.0517                 1.0957
 Frc consts  --      6.5697                 7.6923                 8.3714
 IR Inten    --     12.1658                15.6509                38.3061

 - Thermochemistry -
 -------------------
 Temperature   298.150 Kelvin.  Pressure   1.00000 Atm.
 Atom     1 has atomic number  6 and mass  12.00000

 Molecular mass:   129.11536 amu.
 Principal axes and moments of inertia in atomic units:
                           1         2         3
     Eigenvalues --   781.141361873.542611960.61470
           X            0.99969   0.02345   0.00802
           Y           -0.02274   0.99657  -0.07959
           Z           -0.00986   0.07938   0.99680
 This molecule is an asymmetric top.
 Rotational symmetry number  1.
 Warning -- assumption of classical behavior for rotation
           may cause significant error
 Rotational temperatures (Kelvin)      0.11088     0.04623     0.04418
 Rotational constants (GHZ):           2.31039     0.96328     0.92050
    1 imaginary frequencies ignored.
 Zero-point vibrational energy     563225.3 (Joules/Mol)
                                  134.61407 (Kcal/Mol)
 Warning -- explicit consideration of  17 degrees of freedom as
           vibrations may cause significant error
 Vibrational temperatures:     68.99    87.04   188.54   235.38   251.91
          (Kelvin)            322.64   339.60   382.10   387.72   430.19
                              456.90   492.13   555.60   587.28   680.63
                              738.24   862.17   971.78  1136.00  1316.84
                             1373.68  1450.86  1454.12  1465.65  1491.40
                             1511.33  1524.88  1533.66  1592.55  1679.63
                             1767.16  1789.28  1942.16  1971.79  1994.08
                             2029.08  2045.92  2053.74  2089.33  2108.82
                             2128.19  2136.67  2146.13  2148.94  2155.66
                             2163.60  2171.42  2190.92  2334.43  2360.75
                             4237.90  4334.93  4398.96  4405.57  4416.07
                             4418.86  4507.11  4510.81  4515.51  4528.58
                             4541.32  4549.03  4568.38  5069.26  5181.08

 Zero-point correction=                           0.214521 (Hartree/Particle)
 Thermal correction to Energy=                    0.225993
 Thermal correction to Enthalpy=                  0.226937
 Thermal correction to Gibbs Free Energy=         0.177734
 Sum of electronic and zero-point Energies=           -405.524368
 Sum of electronic and thermal Energies=              -405.512896
 Sum of electronic and thermal Enthalpies=            -405.511952
 Sum of electronic and thermal Free Energies=         -405.561155

                     E (Thermal)             CV                S
                      KCal/Mol        Cal/Mol-Kelvin    Cal/Mol-Kelvin
 Total                  141.813             41.299            103.556
 Electronic               0.000              0.000              0.000
 Translational            0.889              2.981             40.480
 Rotational               0.889              2.981             29.441
 Vibrational            140.035             35.338             33.635
 Vibration     1          0.595              1.978              4.900
 Vibration     2          0.597              1.973              4.441
 Vibration     3          0.612              1.922              2.931
 Vibration     4          0.623              1.887              2.508
 Vibration     5          0.627              1.873              2.380
 Vibration     6          0.649              1.804              1.925
 Vibration     7          0.655              1.786              1.833
 Vibration     8          0.671              1.736              1.625
 Vibration     9          0.674              1.729              1.600
 Vibration    10          0.692              1.676              1.422
 Vibration    11          0.704              1.640              1.323
 Vibration    12          0.721              1.591              1.203
 Vibration    13          0.755              1.500              1.015
 Vibration    14          0.773              1.452              0.933
 Vibration    15          0.830              1.310              0.729
 Vibration    16          0.868              1.221              0.626
 Vibration    17          0.957              1.033              0.451

 Optimization completed.
    -- Stationary point found.
 Normal termination of Gaussian 16 at Sat Feb 13 08:32:52 2021.
