 Gaussian 16, Revision A.03,
 Gaussian 16:  ES64L-G16RevA.03 25-Dec-2016

 ----------------------------------------------------------------------
 # wB97XD def2tzvp, opt=(ts, noeigen, calcfc, maxcycles=70, maxstep=1),
  freq=noraman, scrf=(iefpcm, solvent=water)
 ----------------------------------------------------------------------

 ------------------------
 0_iteration/TS-458-0.out
 ------------------------
 Symbolic Z-matrix:
 Charge =  0 Multiplicity = 1

 SCF Done:  E(RwB97XD) =  -405.741857079     A.U. after   14 cycles
 SCF Done:  E(RwB97XD) =  -405.741853717     A.U. after   10 cycles
 SCF Done:  E(RwB97XD) =  -405.741854105     A.U. after    9 cycles
 SCF Done:  E(RwB97XD) =  -405.741856796     A.U. after   10 cycles
 SCF Done:  E(RwB97XD) =  -405.741864136     A.U. after   10 cycles
 SCF Done:  E(RwB97XD) =  -405.741873571     A.U. after   10 cycles
 SCF Done:  E(RwB97XD) =  -405.741884551     A.U. after   10 cycles
 SCF Done:  E(RwB97XD) =  -405.741896135     A.U. after   10 cycles
 SCF Done:  E(RwB97XD) =  -405.741907348     A.U. after   10 cycles
 SCF Done:  E(RwB97XD) =  -405.741916229     A.U. after   10 cycles
 SCF Done:  E(RwB97XD) =  -405.742506530     A.U. after   10 cycles
 SCF Done:  E(RwB97XD) =  -405.742506606     A.U. after    9 cycles
 SCF Done:  E(RwB97XD) =  -405.742507095     A.U. after    9 cycles
 SCF Done:  E(RwB97XD) =  -405.742507109     A.U. after    9 cycles
 SCF Done:  E(RwB97XD) =  -405.742506242     A.U. after    9 cycles
 SCF Done:  E(RwB97XD) =  -405.742506623     A.U. after    9 cycles
 SCF Done:  E(RwB97XD) =  -405.742505624     A.U. after   10 cycles
 SCF Done:  E(RwB97XD) =  -405.742506850     A.U. after    9 cycles
 SCF Done:  E(RwB97XD) =  -405.742507202     A.U. after    9 cycles
 Optimization completed.
    -- Stationary point found.
 Normal termination of Gaussian 16 at Sat Feb 13 08:28:59 2021.

 ---------------------------------------------------------------------
 #N Geom=AllCheck Guess=TCheck SCRF=Check GenChk RwB97XD/def2TZVP Freq
 ---------------------------------------------------------------------

 Structure from the checkpoint file:  "/beegfs/scratch/user/q/tla25/Gau-103795.chk"
 ------------------------
 0_iteration/TS-458-0.out
 ------------------------
 Charge =  0 Multiplicity = 1

                         Standard orientation:
 ---------------------------------------------------------------------
 Center     Atomic      Atomic             Coordinates (Angstroms)
 Number     Number       Type             X           Y           Z
 ---------------------------------------------------------------------
      1          6           0        0.715572    0.551238    0.037068
      2          6           0        1.700185   -0.464564    0.040071
      3          8           0        2.857103   -0.310553   -0.409333
      4          6           0       -0.575988    0.309159    0.553015
      5          6           0       -2.883487   -1.099932   -0.389295
      6          1           0       -3.372004   -1.589714   -1.231791
      7          1           0       -2.620125   -1.849969    0.355366
      8          1           0       -3.575763   -0.388498    0.054975
      9          7           0       -1.667665   -0.398920   -0.804840
     10          1           0       -1.028872   -1.020203   -1.287103
     11          1           0       -1.876301    0.365596   -1.437355
     12          6           0       -1.428466    1.464113    1.009507
     13          1           0       -0.947568    1.930227    1.871805
     14          1           0       -1.526410    2.226292    0.236083
     15          1           0       -2.423100    1.143403    1.316237
     16          1           0       -0.680224   -0.563508    1.189161
     17          6           0        1.033109    1.885174   -0.589712
     18          1           0        2.044346    1.863230   -0.992815
     19          1           0        0.354448    2.136760   -1.413172
     20          1           0        0.978614    2.713338    0.125033
     21          6           0        1.371188   -1.834357    0.633937
     22          1           0        0.515043   -2.307765    0.148749
     23          1           0        2.237245   -2.480558    0.505702
     24          1           0        1.144830   -1.766751    1.700124
 ---------------------------------------------------------------------

 SCF Done:  E(RwB97XD) =  -405.742507202     A.U. after    1 cycles

 The electronic state is 1-A.
 Alpha  occ. eigenvalues --  -19.18179 -14.48606 -10.33250 -10.33046 -10.31998
 Alpha  occ. eigenvalues --  -10.27859 -10.26519 -10.25767 -10.23959  -1.08467
 Alpha  occ. eigenvalues --   -1.04078  -0.90473  -0.82850  -0.81010  -0.79232
 Alpha  occ. eigenvalues --   -0.74461  -0.67539  -0.63219  -0.60009  -0.55804
 Alpha  occ. eigenvalues --   -0.55209  -0.54934  -0.51403  -0.50703  -0.49629
 Alpha  occ. eigenvalues --   -0.48955  -0.47827  -0.47125  -0.46146  -0.45750
 Alpha  occ. eigenvalues --   -0.42791  -0.41963  -0.41768  -0.40904  -0.30397
 Alpha  occ. eigenvalues --   -0.25394
 Alpha virt. eigenvalues --    0.06851   0.09361   0.12472   0.13527   0.14181
 Alpha virt. eigenvalues --    0.16141   0.16576   0.17130   0.18116   0.18851
 Alpha virt. eigenvalues --    0.19281   0.19745   0.20319   0.21626   0.22020

 Mulliken charges:
               1
     1  C   -0.121417
     2  C    0.195561
     3  O   -0.575502
     4  C   -0.107101
     5  C   -0.281811
     6  H    0.156226
     7  H    0.151935
     8  H    0.151594
     9  N   -0.286142
    10  H    0.273837
    11  H    0.283325
    12  C   -0.355964
    13  H    0.146427
    14  H    0.141989
    15  H    0.138028
    16  H    0.149572
    17  C   -0.418270
    18  H    0.122570
    19  H    0.113644
    20  H    0.118564
    21  C   -0.371621
    22  H    0.119388
    23  H    0.117913
    24  H    0.137254
 Sum of Mulliken charges =  -0.00000

 Dipole moment (field-independent basis, Debye):
    X=            -12.5638    Y=             -1.3872    Z=             -0.4277  Tot=             12.6474
 Quadrupole moment (field-independent basis, Debye-Ang):
   XX=            -69.9958   YY=            -54.9653   ZZ=            -54.3394
   XY=              2.8100   XZ=              7.2371   YZ=              0.6237

  Exact polarizability: 182.599  -2.975 131.453  -2.713  -0.631 111.339
 Approx polarizability: 136.416  -1.477 103.254  -2.901   0.195  95.793

 ******    1 imaginary frequencies (negative Signs) ******

                      1                      2                      3
                      A                      A                      A
 Frequencies --   -370.5763                56.1069                88.8342
 Red. masses --      6.0400                 2.1596                 2.4359
 Frc consts  --      0.4887                 0.0040                 0.0113
 IR Inten    --   1022.1450                 1.0492                 6.9189

                      4                      5                      6
                      A                      A                      A
 Frequencies --    100.8914               120.0733               131.0634
 Red. masses --      2.2900                 1.1458                 1.1361
 Frc consts  --      0.0137                 0.0097                 0.0115
 IR Inten    --      4.3128                 0.4702                 1.7470

                      7                      8                      9
                      A                      A                      A
 Frequencies --    166.0369               178.7547               232.0973
 Red. masses --      2.5544                 1.3191                 1.7509
 Frc consts  --      0.0415                 0.0248                 0.0556
 IR Inten    --      4.8981                 0.8783                 3.4214

                     10                     11                     12
                      A                      A                      A
 Frequencies --    236.3068               246.4377               313.1039
 Red. masses --      1.4036                 2.5907                 2.4923
 Frc consts  --      0.0462                 0.0927                 0.1440
 IR Inten    --      0.7366                 9.3348                 6.8773

                     13                     14                     15
                      A                      A                      A
 Frequencies --    348.6751               422.6349               478.9421
 Red. masses --      2.7428                 3.0586                 3.7663
 Frc consts  --      0.1965                 0.3219                 0.5090
 IR Inten    --     17.2483                15.6783               168.3274

                     16                     17                     18
                      A                      A                      A
 Frequencies --    506.9337               602.1219               640.2253
 Red. masses --      3.3620                 3.2537                 2.5707
 Frc consts  --      0.5090                 0.6950                 0.6208
 IR Inten    --     13.2307                18.8785                33.5368

                     19                     20                     21
                      A                      A                      A
 Frequencies --    683.8359               744.6793               935.9852
 Red. masses --      1.3322                 2.6770                 1.9122
 Frc consts  --      0.3671                 0.8747                 0.9870
 IR Inten    --     37.1753                 0.2100                25.5761

                     22                     23                     24
                      A                      A                      A
 Frequencies --    955.2469               992.9515              1018.2911
 Red. masses --      1.6919                 1.2020                 1.2593
 Frc consts  --      0.9096                 0.6983                 0.7693
 IR Inten    --    109.1554                37.9494                48.6157

                     25                     26                     27
                      A                      A                      A
 Frequencies --   1036.9193              1042.1625              1056.2461
 Red. masses --      1.6537                 1.4442                 1.3935
 Frc consts  --      1.0476                 0.9241                 0.9160
 IR Inten    --     18.1354                15.5095                98.0029

                     28                     29                     30
                      A                      A                      A
 Frequencies --   1060.7054              1084.7337              1111.2614
 Red. masses --      1.6846                 2.3174                 2.0111
 Frc consts  --      1.1167                 1.6065                 1.4632
 IR Inten    --     39.2499               110.9130               117.6813

                     31                     32                     33
                      A                      A                      A
 Frequencies --   1157.3030              1205.5989              1238.4383
 Red. masses --      2.4224                 1.1410                 1.4108
 Frc consts  --      1.9116                 0.9771                 1.2748
 IR Inten    --      9.2053               156.9671                18.5580

                     34                     35                     36
                      A                      A                      A
 Frequencies --   1309.6681              1344.0347              1378.3818
 Red. masses --      1.5686                 1.3134                 1.2984
 Frc consts  --      1.5852                 1.3978                 1.4535
 IR Inten    --     74.4450                 0.9899                11.5968

                     37                     38                     39
                      A                      A                      A
 Frequencies --   1396.2866              1412.6582              1431.9326
 Red. masses --      1.2949                 1.2669                 4.2175
 Frc consts  --      1.4874                 1.4896                 5.0951
 IR Inten    --     48.5224                33.2285               105.0701

                     40                     41                     42
                      A                      A                      A
 Frequencies --   1456.2778              1468.4210              1472.2838
 Red. masses --      1.4185                 1.0965                 1.2636
 Frc consts  --      1.7724                 1.3931                 1.6138
 IR Inten    --    175.1530                81.1771                65.6090

                     43                     44                     45
                      A                      A                      A
 Frequencies --   1486.3713              1488.2007              1493.3230
 Red. masses --      1.0803                 1.0479                 1.0530
 Frc consts  --      1.4061                 1.3674                 1.3835
 IR Inten    --     14.3793                19.5676                31.2342

                     46                     47                     48
                      A                      A                      A
 Frequencies --   1493.8352              1495.2491              1507.6730
 Red. masses --      1.0727                 1.1130                 1.1529
 Frc consts  --      1.4103                 1.4662                 1.5441
 IR Inten    --     14.9688                25.3056               182.6194

                     49                     50                     51
                      A                      A                      A
 Frequencies --   1513.5968              1594.9798              1651.0306
 Red. masses --      1.3039                 6.3344                 1.0841
 Frc consts  --      1.7600                 9.4944                 1.7411
 IR Inten    --    198.0781               966.5676                48.9807

                     52                     53                     54
                      A                      A                      A
 Frequencies --   3010.7202              3050.9448              3053.4160
 Red. masses --      1.0431                 1.0994                 1.0381
 Frc consts  --      5.5708                 6.0292                 5.7023
 IR Inten    --    108.6485                68.0874                15.9347

                     55                     56                     57
                      A                      A                      A
 Frequencies --   3062.2480              3070.2330              3117.8579
 Red. masses --      1.0371                 1.0340                 1.1007
 Frc consts  --      5.7297                 5.7425                 6.3040
 IR Inten    --     21.2911                47.2557                29.6770

                     58                     59                     60
                      A                      A                      A
 Frequencies --   3131.2178              3141.2649              3146.1671
 Red. masses --      1.1005                 1.0938                 1.1042
 Frc consts  --      6.3569                 6.3594                 6.4396
 IR Inten    --     20.8221                17.4829                13.4674

                     61                     62                     63
                      A                      A                      A
 Frequencies --   3147.9976              3155.2032              3169.9954
 Red. masses --      1.1029                 1.1014                 1.1030
 Frc consts  --      6.4395                 6.4605                 6.5305
 IR Inten    --     19.4815                32.0687                19.0062

                     64                     65                     66
                      A                      A                      A
 Frequencies --   3173.9253              3524.6808              3604.6835
 Red. masses --      1.0922                 1.0512                 1.0962
 Frc consts  --      6.4826                 7.6942                 8.3922
 IR Inten    --     35.5376                17.8040                40.9640

 - Thermochemistry -
 -------------------
 Temperature   298.150 Kelvin.  Pressure   1.00000 Atm.
 Atom     1 has atomic number  6 and mass  12.00000

 Molecular mass:   129.11536 amu.
 Principal axes and moments of inertia in atomic units:
                           1         2         3
     Eigenvalues --   854.239891740.522112188.84357
           X            0.99993   0.01116   0.00401
           Y           -0.01109   0.99980  -0.01641
           Z           -0.00419   0.01636   0.99986
 This molecule is an asymmetric top.
 Rotational symmetry number  1.
 Warning -- assumption of classical behavior for rotation
           may cause significant error
 Rotational temperatures (Kelvin)      0.10139     0.04976     0.03957
 Rotational constants (GHZ):           2.11269     1.03690     0.82452
    1 imaginary frequencies ignored.
 Zero-point vibrational energy     563132.2 (Joules/Mol)
                                  134.59183 (Kcal/Mol)
 Warning -- explicit consideration of  16 degrees of freedom as
           vibrations may cause significant error
 Vibrational temperatures:     80.73   127.81   145.16   172.76   188.57
          (Kelvin)            238.89   257.19   333.94   339.99   354.57
                              450.49   501.67   608.08   689.09   729.36
                              866.32   921.14   983.89  1071.43  1346.67
                             1374.39  1428.64  1465.09  1491.90  1499.44
                             1519.70  1526.12  1560.69  1598.86  1665.10
                             1734.59  1781.84  1884.32  1933.77  1983.18
                             2008.94  2032.50  2060.23  2095.26  2112.73
                             2118.29  2138.56  2141.19  2148.56  2149.30
                             2151.33  2169.21  2177.73  2294.82  2375.46
                             4331.75  4389.63  4393.18  4405.89  4417.38
                             4485.90  4505.12  4519.58  4526.63  4529.27
                             4539.63  4560.92  4566.57  5071.23  5186.34

 Zero-point correction=                           0.214486 (Hartree/Particle)
 Thermal correction to Energy=                    0.226244
 Thermal correction to Enthalpy=                  0.227188
 Thermal correction to Gibbs Free Energy=         0.177081
 Sum of electronic and zero-point Energies=           -405.528021
 Sum of electronic and thermal Energies=              -405.516263
 Sum of electronic and thermal Enthalpies=            -405.515319
 Sum of electronic and thermal Free Energies=         -405.565426

                     E (Thermal)             CV                S
                      KCal/Mol        Cal/Mol-Kelvin    Cal/Mol-Kelvin
 Total                  141.970             41.239            105.460
 Electronic               0.000              0.000              0.000
 Translational            0.889              2.981             40.480
 Rotational               0.889              2.981             29.566
 Vibrational            140.193             35.277             35.414
 Vibration     1          0.596              1.975              4.590
 Vibration     2          0.602              1.957              3.686
 Vibration     3          0.604              1.948              3.437
 Vibration     4          0.609              1.933              3.099
 Vibration     5          0.612              1.922              2.930
 Vibration     6          0.624              1.884              2.480
 Vibration     7          0.629              1.868              2.341
 Vibration     8          0.653              1.792              1.863
 Vibration     9          0.655              1.785              1.831
 Vibration    10          0.661              1.769              1.756
 Vibration    11          0.701              1.649              1.346
 Vibration    12          0.726              1.578              1.172
 Vibration    13          0.785              1.421              0.883
 Vibration    14          0.835              1.297              0.713
 Vibration    15          0.862              1.235              0.641
 Vibration    16          0.960              1.027              0.446

 Optimization completed.
    -- Stationary point found.
 Normal termination of Gaussian 16 at Sat Feb 13 08:42:22 2021.
