 Gaussian 16, Revision A.03,
 Gaussian 16:  ES64L-G16RevA.03 25-Dec-2016

 ----------------------------------------------------------------------
 # wB97XD def2tzvp, opt=(ts, noeigen, calcfc, maxcycles=70, maxstep=1),
  freq=noraman, scrf=(iefpcm, solvent=water)
 ----------------------------------------------------------------------

 ------------------------
 0_iteration/TS-451-0.out
 ------------------------
 Symbolic Z-matrix:
 Charge =  0 Multiplicity = 1

 SCF Done:  E(RwB97XD) =  -382.490604494     A.U. after   14 cycles
 SCF Done:  E(RwB97XD) =  -382.490568813     A.U. after   10 cycles
 SCF Done:  E(RwB97XD) =  -382.490536844     A.U. after   10 cycles
 SCF Done:  E(RwB97XD) =  -382.490508611     A.U. after   10 cycles
 SCF Done:  E(RwB97XD) =  -382.490484129     A.U. after   10 cycles
 SCF Done:  E(RwB97XD) =  -382.490463421     A.U. after   10 cycles
 SCF Done:  E(RwB97XD) =  -382.490446531     A.U. after   10 cycles
 SCF Done:  E(RwB97XD) =  -382.490433603     A.U. after   10 cycles
 SCF Done:  E(RwB97XD) =  -382.490425163     A.U. after   10 cycles
 SCF Done:  E(RwB97XD) =  -382.490422952     A.U. after   10 cycles
 SCF Done:  E(RwB97XD) =  -382.491527603     A.U. after   10 cycles
 SCF Done:  E(RwB97XD) =  -382.491563378     A.U. after   10 cycles
 SCF Done:  E(RwB97XD) =  -382.491592467     A.U. after   10 cycles
 SCF Done:  E(RwB97XD) =  -382.491614957     A.U. after   10 cycles
 SCF Done:  E(RwB97XD) =  -382.491630872     A.U. after   10 cycles
 SCF Done:  E(RwB97XD) =  -382.491640382     A.U. after   10 cycles
 SCF Done:  E(RwB97XD) =  -382.491643032     A.U. after   10 cycles
 SCF Done:  E(RwB97XD) =  -382.491642956     A.U. after   10 cycles
 SCF Done:  E(RwB97XD) =  -382.491643953     A.U. after    9 cycles
 Optimization completed.
    -- Stationary point found.
 Normal termination of Gaussian 16 at Sat Feb 13 02:52:30 2021.

 ---------------------------------------------------------------------
 #N Geom=AllCheck Guess=TCheck SCRF=Check GenChk RwB97XD/def2TZVP Freq
 ---------------------------------------------------------------------

 Structure from the checkpoint file:  "/beegfs/scratch/user/q/tla25/Gau-28743.chk"
 ------------------------
 0_iteration/TS-451-0.out
 ------------------------
 Charge =  0 Multiplicity = 1

                         Standard orientation:
 ---------------------------------------------------------------------
 Center     Atomic      Atomic             Coordinates (Angstroms)
 Number     Number       Type             X           Y           Z
 ---------------------------------------------------------------------
      1          6           0        0.738643    0.860381   -0.175737
      2          6           0        1.841698   -0.025815   -0.037579
      3          8           0        2.947176    0.152056   -0.582456
      4          6           0       -0.540096    0.649425    0.363670
      5          6           0       -2.623634   -1.266858   -0.075565
      6          1           0       -2.964031   -2.104185   -0.684808
      7          1           0       -2.376214   -1.630227    0.921206
      8          1           0       -3.426485   -0.537431    0.002682
      9          7           0       -1.439667   -0.628537   -0.652038
     10          1           0       -0.699779   -1.302778   -0.814649
     11          1           0       -1.642533   -0.181044   -1.539127
     12          6           0       -1.514138    1.798503    0.351150
     13          1           0       -1.209664    2.525850    1.104973
     14          1           0       -1.512208    2.297650   -0.618996
     15          1           0       -2.530824    1.485553    0.586210
     16          1           0       -0.612976    0.057034    1.274424
     17          1           0        0.878156    1.680169   -0.870346
     18          7           0        1.667618   -1.195533    0.700848
     19          1           0        0.973317   -1.202716    1.429616
     20          1           0        2.535339   -1.629650    0.971152
 ---------------------------------------------------------------------

 SCF Done:  E(RwB97XD) =  -382.491643953     A.U. after    1 cycles

 The electronic state is 1-A.
 Alpha  occ. eigenvalues --  -19.18338 -14.48616 -14.42595 -10.36016 -10.33656
 Alpha  occ. eigenvalues --  -10.31990 -10.27958 -10.23233  -1.10491  -1.04127
 Alpha  occ. eigenvalues --   -0.97668  -0.89195  -0.79993  -0.78801  -0.69547
 Alpha  occ. eigenvalues --   -0.64343  -0.63005  -0.60640  -0.57498  -0.54859
 Alpha  occ. eigenvalues --   -0.54445  -0.50641  -0.49448  -0.48500  -0.48191
 Alpha  occ. eigenvalues --   -0.47400  -0.45499  -0.43628  -0.41981  -0.34628
 Alpha  occ. eigenvalues --   -0.32300  -0.26270
 Alpha virt. eigenvalues --    0.08045   0.09797   0.12595   0.13904   0.14809
 Alpha virt. eigenvalues --    0.16227   0.16762   0.17730   0.18511   0.19446
 Alpha virt. eigenvalues --    0.20375   0.20734   0.21881   0.22329   0.24399

 Mulliken charges:
               1
     1  C   -0.416406
     2  C    0.301889
     3  O   -0.580414
     4  C   -0.049555
     5  C   -0.279381
     6  H    0.156692
     7  H    0.150529
     8  H    0.151020
     9  N   -0.286790
    10  H    0.274979
    11  H    0.279099
    12  C   -0.355945
    13  H    0.140540
    14  H    0.134730
    15  H    0.131334
    16  H    0.136517
    17  H    0.105704
    18  N   -0.496658
    19  H    0.252782
    20  H    0.249337
 Sum of Mulliken charges =  -0.00000

 Dipole moment (field-independent basis, Debye):
    X=            -11.5775    Y=             -3.4615    Z=              1.7831  Tot=             12.2148
 Quadrupole moment (field-independent basis, Debye-Ang):
   XX=            -62.8377   YY=            -47.3847   ZZ=            -46.4235
   XY=             -2.1731   XZ=              9.8061   YZ=             -1.6010

  Exact polarizability: 154.168   4.195 109.344  -3.438  -3.239  92.680
 Approx polarizability: 112.685   3.440  87.604  -4.138  -2.806  79.887

 ******    1 imaginary frequencies (negative Signs) ******

                      1                      2                      3
                      A                      A                      A
 Frequencies --   -363.6398                58.3557                78.8158
 Red. masses --      5.8094                 2.4165                 4.8825
 Frc consts  --      0.4526                 0.0048                 0.0179
 IR Inten    --    783.5106                 2.3290                19.7512

                      4                      5                      6
                      A                      A                      A
 Frequencies --     83.1677               170.7504               200.2216
 Red. masses --      2.1474                 1.3683                 1.8198
 Frc consts  --      0.0088                 0.0235                 0.0430
 IR Inten    --      7.1574                 2.5667                 7.9973

                      7                      8                      9
                      A                      A                      A
 Frequencies --    217.3920               225.3315               332.5949
 Red. masses --      1.4586                 2.2689                 2.3660
 Frc consts  --      0.0406                 0.0679                 0.1542
 IR Inten    --      2.9769                 3.4859                10.1554

                     10                     11                     12
                      A                      A                      A
 Frequencies --    378.0417               411.8677               473.3625
 Red. masses --      2.6786                 1.3841                 2.4114
 Frc consts  --      0.2255                 0.1383                 0.3184
 IR Inten    --     14.2932                10.1764               204.3563

                     13                     14                     15
                      A                      A                      A
 Frequencies --    523.3673               569.6448               590.5545
 Red. masses --      1.2471                 3.9711                 2.7721
 Frc consts  --      0.2013                 0.7592                 0.5696
 IR Inten    --    347.9975                20.5476                30.2976

                     16                     17                     18
                      A                      A                      A
 Frequencies --    667.6628               696.1142               796.2077
 Red. masses --      1.2386                 1.2675                 7.8870
 Frc consts  --      0.3253                 0.3619                 2.9459
 IR Inten    --     67.5824                41.3546               116.6183

                     19                     20                     21
                      A                      A                      A
 Frequencies --    905.1661               978.1249              1006.5055
 Red. masses --      2.2878                 1.8193                 1.1717
 Frc consts  --      1.1044                 1.0255                 0.6994
 IR Inten    --     14.9620                61.4929                 7.5330

                     22                     23                     24
                      A                      A                      A
 Frequencies --   1042.9945              1050.2600              1081.2666
 Red. masses --      1.6433                 1.3400                 1.9340
 Frc consts  --      1.0532                 0.8709                 1.3322
 IR Inten    --    105.3864                33.9526               144.4307

                     25                     26                     27
                      A                      A                      A
 Frequencies --   1098.7585              1149.4208              1211.6319
 Red. masses --      1.7660                 2.0830                 1.2075
 Frc consts  --      1.2562                 1.6214                 1.0444
 IR Inten    --     26.4117                68.3859               258.5396

                     28                     29                     30
                      A                      A                      A
 Frequencies --   1238.5210              1278.5246              1309.1983
 Red. masses --      1.4800                 1.3677                 1.3115
 Frc consts  --      1.3376                 1.3172                 1.3245
 IR Inten    --     26.8844                57.7993                19.2965

                     31                     32                     33
                      A                      A                      A
 Frequencies --   1345.9320              1376.7184              1414.3195
 Red. masses --      1.3053                 4.3649                 1.2497
 Frc consts  --      1.3932                 4.8744                 1.4729
 IR Inten    --      4.3144               349.7171                 7.0811

                     34                     35                     36
                      A                      A                      A
 Frequencies --   1462.0204              1482.6421              1485.2804
 Red. masses --      1.1999                 1.1928                 1.0586
 Frc consts  --      1.5112                 1.5449                 1.3759
 IR Inten    --     20.8842                40.9824                11.9111

                     37                     38                     39
                      A                      A                      A
 Frequencies --   1491.9706              1505.9141              1518.8848
 Red. masses --      1.0416                 1.1675                 1.7011
 Frc consts  --      1.3660                 1.5600                 2.3122
 IR Inten    --     16.1617                92.5274               108.5400

                     40                     41                     42
                      A                      A                      A
 Frequencies --   1613.9865              1638.1098              1644.0539
 Red. masses --      1.6935                 1.8745                 1.2702
 Frc consts  --      2.5991                 2.9636                 2.0228
 IR Inten    --    690.3501               819.1307               110.1532

                     43                     44                     45
                      A                      A                      A
 Frequencies --   3062.3564              3069.9202              3109.3677
 Red. masses --      1.0363                 1.0339                 1.0891
 Frc consts  --      5.7260                 5.7407                 6.2038
 IR Inten    --     20.6624                44.3894                27.8104

                     46                     47                     48
                      A                      A                      A
 Frequencies --   3136.1520              3146.5770              3147.7521
 Red. masses --      1.1015                 1.1054                 1.1027
 Frc consts  --      6.3829                 6.4483                 6.4375
 IR Inten    --     26.6966                14.9238                47.0887

                     49                     50                     51
                      A                      A                      A
 Frequencies --   3169.4565              3187.0441              3515.8564
 Red. masses --      1.1051                 1.0880                 1.0514
 Frc consts  --      6.5405                 6.5114                 7.6571
 IR Inten    --     16.1631                21.9304                17.5881

                     52                     53                     54
                      A                      A                      A
 Frequencies --   3592.1132              3597.2509              3699.8457
 Red. masses --      1.0477                 1.0963                 1.0996
 Frc consts  --      7.9647                 8.3584                 8.8684
 IR Inten    --     25.3424                44.3077                34.9953

 - Thermochemistry -
 -------------------
 Temperature   298.150 Kelvin.  Pressure   1.00000 Atm.
 Atom     1 has atomic number  6 and mass  12.00000

 Molecular mass:   116.09496 amu.
 Principal axes and moments of inertia in atomic units:
                           1         2         3
     Eigenvalues --   576.930391601.017611938.88669
           X            0.99996  -0.00307   0.00822
           Y            0.00317   0.99992  -0.01247
           Z           -0.00818   0.01250   0.99989
 This molecule is an asymmetric top.
 Rotational symmetry number  1.
 Warning -- assumption of classical behavior for rotation
           may cause significant error
 Rotational temperatures (Kelvin)      0.15013     0.05410     0.04467
 Rotational constants (GHZ):           3.12818     1.12725     0.93081
    1 imaginary frequencies ignored.
 Zero-point vibrational energy     461981.9 (Joules/Mol)
                                  110.41634 (Kcal/Mol)
 Warning -- explicit consideration of  14 degrees of freedom as
           vibrations may cause significant error
 Vibrational temperatures:     83.96   113.40   119.66   245.67   288.07
          (Kelvin)            312.78   324.20   478.53   543.92   592.59
                              681.06   753.01   819.59   849.68   960.62
                             1001.55  1145.57  1302.33  1407.30  1448.14
                             1500.64  1511.09  1555.70  1580.87  1653.76
                             1743.27  1781.96  1839.51  1883.64  1936.50
                             1980.79  2034.89  2103.52  2133.19  2136.99
                             2146.61  2166.67  2185.34  2322.17  2356.87
                             2365.43  4406.05  4416.93  4473.69  4512.22
                             4527.22  4528.91  4560.14  4585.45  5058.53
                             5168.25  5175.64  5323.25

 Zero-point correction=                           0.175960 (Hartree/Particle)
 Thermal correction to Energy=                    0.185882
 Thermal correction to Enthalpy=                  0.186827
 Thermal correction to Gibbs Free Energy=         0.140658
 Sum of electronic and zero-point Energies=           -382.315684
 Sum of electronic and thermal Energies=              -382.305762
 Sum of electronic and thermal Enthalpies=            -382.304817
 Sum of electronic and thermal Free Energies=         -382.350986

                     E (Thermal)             CV                S
                      KCal/Mol        Cal/Mol-Kelvin    Cal/Mol-Kelvin
 Total                  116.643             35.179             97.171
 Electronic               0.000              0.000              0.000
 Translational            0.889              2.981             40.163
 Rotational               0.889              2.981             28.973
 Vibrational            114.865             29.218             28.035
 Vibration     1          0.596              1.974              4.512
 Vibration     2          0.600              1.963              3.920
 Vibration     3          0.600              1.961              3.815
 Vibration     4          0.626              1.878              2.427
 Vibration     5          0.638              1.840              2.131
 Vibration     6          0.646              1.815              1.981
 Vibration     7          0.650              1.802              1.916
 Vibration     8          0.715              1.610              1.247
 Vibration     9          0.748              1.517              1.047
 Vibration    10          0.776              1.444              0.920
 Vibration    11          0.830              1.309              0.728
 Vibration    12          0.878              1.198              0.602
 Vibration    13          0.926              1.097              0.505
 Vibration    14          0.948              1.052              0.466

 Optimization completed.
    -- Stationary point found.
 Normal termination of Gaussian 16 at Sat Feb 13 02:59:38 2021.
