 Gaussian 16, Revision A.03,
 Gaussian 16:  ES64L-G16RevA.03 25-Dec-2016

 ----------------------------------------------------------------------
 # wB97XD def2tzvp, opt=(ts, noeigen, calcfc, maxcycles=70, maxstep=8),
  freq=noraman, scrf=(iefpcm, solvent=water)
 ----------------------------------------------------------------------

 ------------------------
 1_iteration/TS-442-1.out
 ------------------------
 Symbolic Z-matrix:
 Charge =  0 Multiplicity = 1

 SCF Done:  E(RwB97XD) =  -597.484120992     A.U. after   15 cycles
 SCF Done:  E(RwB97XD) =  -597.484121312     A.U. after    8 cycles
 Optimization completed.
    -- Stationary point found.
 Normal termination of Gaussian 16 at Sun Feb 14 08:52:01 2021.

 ---------------------------------------------------------------------
 #N Geom=AllCheck Guess=TCheck SCRF=Check GenChk RwB97XD/def2TZVP Freq
 ---------------------------------------------------------------------

 Structure from the checkpoint file:  "/beegfs/scratch/user/q/tla25/Gau-32411.chk"
 ------------------------
 1_iteration/TS-442-1.out
 ------------------------
 Charge =  0 Multiplicity = 1

                         Standard orientation:
 ---------------------------------------------------------------------
 Center     Atomic      Atomic             Coordinates (Angstroms)
 Number     Number       Type             X           Y           Z
 ---------------------------------------------------------------------
      1          6           0       -0.400550    0.451088   -0.470233
      2          6           0       -0.818323    1.806724   -0.313312
      3          8           0       -2.017357    2.147756   -0.329385
      4          6           0       -1.398150   -0.482939   -0.770844
      5          6           0       -3.685575   -1.492245    0.846866
      6          1           0       -4.292197   -1.355414    1.744405
      7          1           0       -4.263625   -1.166759   -0.018530
      8          1           0       -3.460097   -2.551222    0.735589
      9          7           0       -2.442785   -0.732562    0.896652
     10          1           0       -2.606837    0.252438    1.071837
     11          1           0       -1.798039   -1.083737    1.593276
     12          6           0       -1.099024   -1.903794   -1.137850
     13          1           0       -0.676517   -1.930306   -2.144615
     14          1           0       -0.372184   -2.353865   -0.461791
     15          1           0       -2.004100   -2.509224   -1.146591
     16          1           0       -2.280982   -0.066792   -1.243991
     17          6           0        0.985830    0.024391   -0.140969
     18          6           0        1.477979    0.130182    1.161539
     19          6           0        2.769669   -0.263025    1.480783
     20          6           0        3.600977   -0.784185    0.499459
     21          6           0        3.129123   -0.902848   -0.800511
     22          6           0        1.839429   -0.499064   -1.113729
     23          1           0        0.832593    0.528995    1.935992
     24          1           0        3.125866   -0.167258    2.499307
     25          1           0        4.608820   -1.094573    0.745323
     26          1           0        3.770408   -1.304758   -1.575539
     27          1           0        1.485094   -0.582612   -2.134316
     28          6           0        0.223831    2.887489   -0.100075
     29          1           0        1.190771    2.635358   -0.533616
     30          1           0       -0.142974    3.820609   -0.526556
     31          1           0        0.371043    3.044358    0.971591
 ---------------------------------------------------------------------

 SCF Done:  E(RwB97XD) =  -597.484121312     A.U. after    1 cycles

 The electronic state is 1-A.
 Alpha  occ. eigenvalues --  -19.19690 -14.46452 -10.34297 -10.32975 -10.31281
 Alpha  occ. eigenvalues --  -10.29273 -10.28610 -10.28594 -10.28488 -10.28246
 Alpha  occ. eigenvalues --  -10.28233 -10.27809 -10.26652 -10.25013  -1.10109
 Alpha  occ. eigenvalues --   -1.02156  -0.96290  -0.90462  -0.85275  -0.84458
 Alpha  occ. eigenvalues --   -0.82412  -0.79080  -0.77665  -0.70157  -0.69794
 Alpha  occ. eigenvalues --   -0.67076  -0.62522  -0.61548  -0.58621  -0.55828
 Alpha  occ. eigenvalues --   -0.55289  -0.54668  -0.53806  -0.53086  -0.51777
 Alpha  occ. eigenvalues --   -0.50818  -0.50202  -0.49590  -0.48650  -0.47595
 Alpha  occ. eigenvalues --   -0.47120  -0.45879  -0.45439  -0.44349  -0.42962
 Alpha  occ. eigenvalues --   -0.41764  -0.41219  -0.39454  -0.33860  -0.33321
 Alpha  occ. eigenvalues --   -0.31097  -0.26651
 Alpha virt. eigenvalues --    0.04749   0.05367   0.05938   0.10063   0.12690
 Alpha virt. eigenvalues --    0.13497   0.14363   0.14457   0.15545   0.15884
 Alpha virt. eigenvalues --    0.16917   0.17146   0.18420   0.18792   0.19501

 Mulliken charges:
               1
     1  C   -0.198571
     2  C    0.280327
     3  O   -0.559990
     4  C   -0.017707
     5  C   -0.287682
     6  H    0.146509
     7  H    0.146844
     8  H    0.151747
     9  N   -0.360621
    10  H    0.273846
    11  H    0.271758
    12  C   -0.347036
    13  H    0.144695
    14  H    0.142202
    15  H    0.143045
    16  H    0.138890
    17  C    0.135871
    18  C   -0.246247
    19  C   -0.146198
    20  C   -0.147833
    21  C   -0.152746
    22  C   -0.228933
    23  H    0.145878
    24  H    0.137622
    25  H    0.140801
    26  H    0.137478
    27  H    0.144166
    28  C   -0.390520
    29  H    0.135180
    30  H    0.129009
    31  H    0.138219
 Sum of Mulliken charges =   0.00000

 Dipole moment (field-independent basis, Debye):
    X=             -0.9804    Y=             -6.0125    Z=              2.7839  Tot=              6.6979
 Quadrupole moment (field-independent basis, Debye-Ang):
   XX=            -77.8864   YY=            -91.8735   ZZ=            -77.6620
   XY=             14.0924   XZ=             -5.7492   YZ=              2.5429

  Exact polarizability: 249.951  -4.845 205.569  -2.939   6.356 196.939
 Approx polarizability: 191.050  -9.361 160.156  -1.223   6.301 169.515

 ******    1 imaginary frequencies (negative Signs) ******

                      1                      2                      3
                      A                      A                      A
 Frequencies --   -351.1195                38.3362                41.3774
 Red. masses --      5.8137                 3.2994                 3.5583
 Frc consts  --      0.4223                 0.0029                 0.0036
 IR Inten    --    734.5818                 0.2748                 3.3324

                      4                      5                      6
                      A                      A                      A
 Frequencies --     74.5946                85.2811                94.6307
 Red. masses --      2.1982                 3.4070                 3.3368
 Frc consts  --      0.0072                 0.0146                 0.0176
 IR Inten    --      3.1236                 2.5791                 5.5497

                      7                      8                      9
                      A                      A                      A
 Frequencies --    108.2771               116.5669               159.8309
 Red. masses --      1.1292                 3.1541                 1.5552
 Frc consts  --      0.0078                 0.0253                 0.0234
 IR Inten    --      2.6076                16.3107                 5.5945

                     10                     11                     12
                      A                      A                      A
 Frequencies --    168.7600               209.5814               241.4897
 Red. masses --      2.4089                 2.4009                 1.1298
 Frc consts  --      0.0404                 0.0621                 0.0388
 IR Inten    --      3.6046                 4.5130                 1.1904

                     13                     14                     15
                      A                      A                      A
 Frequencies --    260.6651               297.5477               326.0992
 Red. masses --      3.9189                 3.1560                 2.3541
 Frc consts  --      0.1569                 0.1646                 0.1475
 IR Inten    --     38.0008                26.6731                12.2436

                     16                     17                     18
                      A                      A                      A
 Frequencies --    390.8223               414.8583               426.1606
 Red. masses --      5.4545                 3.2314                 2.9110
 Frc consts  --      0.4909                 0.3277                 0.3115
 IR Inten    --     12.5936                19.9018                 0.2623

                     19                     20                     21
                      A                      A                      A
 Frequencies --    487.8254               501.9607               591.8876
 Red. masses --      3.0686                 4.2306                 2.2992
 Frc consts  --      0.4302                 0.6280                 0.4746
 IR Inten    --      7.7937                34.4937                63.0698

                     22                     23                     24
                      A                      A                      A
 Frequencies --    607.7328               634.3573               637.3202
 Red. masses --      4.0597                 3.7068                 1.7373
 Frc consts  --      0.8834                 0.8789                 0.4158
 IR Inten    --     15.1428                 5.3389                16.4872

                     25                     26                     27
                      A                      A                      A
 Frequencies --    685.9733               727.4907               731.5822
 Red. masses --      3.4426                 3.8996                 1.5672
 Frc consts  --      0.9544                 1.2160                 0.4942
 IR Inten    --     48.4252                 9.5662                94.2081

                     28                     29                     30
                      A                      A                      A
 Frequencies --    804.0558               881.8692               941.5018
 Red. masses --      2.2582                 1.2435                 1.7942
 Frc consts  --      0.8602                 0.5698                 0.9370
 IR Inten    --     19.2026                 0.8215                42.1263

                     31                     32                     33
                      A                      A                      A
 Frequencies --    957.7627               964.9370               990.3397
 Red. masses --      1.5385                 2.3939                 1.2693
 Frc consts  --      0.8315                 1.3132                 0.7335
 IR Inten    --     23.8531                18.1227                71.3498

                     34                     35                     36
                      A                      A                      A
 Frequencies --   1012.9206              1015.6907              1024.5294
 Red. masses --      1.3841                 1.3962                 1.3562
 Frc consts  --      0.8367                 0.8487                 0.8387
 IR Inten    --     18.7073                52.5691                60.3297

                     37                     38                     39
                      A                      A                      A
 Frequencies --   1026.2149              1026.7253              1042.8184
 Red. masses --      2.1391                 1.7376                 1.7954
 Frc consts  --      1.3272                 1.0792                 1.1503
 IR Inten    --      0.1575                 9.3975                16.3761

                     40                     41                     42
                      A                      A                      A
 Frequencies --   1054.1641              1062.2451              1077.1340
 Red. masses --      1.5683                 2.0919                 3.4945
 Frc consts  --      1.0268                 1.3907                 2.3887
 IR Inten    --     25.8530                 9.4511               160.5984

                     43                     44                     45
                      A                      A                      A
 Frequencies --   1108.6832              1135.5870              1178.8593
 Red. masses --      1.5587                 2.2224                 1.3952
 Frc consts  --      1.1288                 1.6886                 1.1424
 IR Inten    --     19.1510                56.0918                78.0417

                     46                     47                     48
                      A                      A                      A
 Frequencies --   1181.0850              1192.4229              1205.2771
 Red. masses --      1.1574                 1.4641                 1.5614
 Frc consts  --      0.9512                 1.2266                 1.3364
 IR Inten    --      9.5721                27.3674                12.3010

                     49                     50                     51
                      A                      A                      A
 Frequencies --   1207.8370              1306.2399              1325.7781
 Red. masses --      1.1463                 4.3403                 2.0931
 Frc consts  --      0.9853                 4.3633                 2.1676
 IR Inten    --      1.4989                12.8100               222.3173

                     52                     53                     54
                      A                      A                      A
 Frequencies --   1349.9705              1357.7181              1383.3507
 Red. masses --      1.3205                 1.4486                 1.3827
 Frc consts  --      1.4179                 1.5734                 1.5590
 IR Inten    --     13.3563                 0.7027                11.1721

                     55                     56                     57
                      A                      A                      A
 Frequencies --   1404.2217              1407.6072              1445.9623
 Red. masses --      2.6647                 1.4722                 1.6655
 Frc consts  --      3.0958                 1.7186                 2.0516
 IR Inten    --    100.6816                51.8391               378.9300

                     58                     59                     60
                      A                      A                      A
 Frequencies --   1461.9384              1468.3315              1475.1550
 Red. masses --      1.1335                 1.1963                 1.1833
 Frc consts  --      1.4274                 1.5196                 1.5171
 IR Inten    --     45.3465                78.3591                98.9073

                     61                     62                     63
                      A                      A                      A
 Frequencies --   1482.5978              1486.9146              1491.7287
 Red. masses --      1.0680                 1.8684                 1.0802
 Frc consts  --      1.3831                 2.4338                 1.4162
 IR Inten    --     18.9829                 2.1988                22.4210

                     64                     65                     66
                      A                      A                      A
 Frequencies --   1499.0484              1509.8418              1545.0050
 Red. masses --      1.2824                 1.0941                 2.4868
 Frc consts  --      1.6979                 1.4695                 3.4975
 IR Inten    --    235.2473                21.1349                23.6783

                     67                     68                     69
                      A                      A                      A
 Frequencies --   1622.0903              1643.2929              1647.2267
 Red. masses --      5.8769                 4.7911                 1.1946
 Frc consts  --      9.1107                 7.6229                 1.9097
 IR Inten    --    507.8898                 5.9373                92.1375

                     70                     71                     72
                      A                      A                      A
 Frequencies --   1671.9865              3054.7464              3055.8722
 Red. masses --      5.9232                 1.0358                 1.0379
 Frc consts  --      9.7560                 5.6947                 5.7104
 IR Inten    --      8.8409                80.6330                 9.8549

                     73                     74                     75
                      A                      A                      A
 Frequencies --   3062.6436              3125.6566              3127.5044
 Red. masses --      1.0373                 1.1029                 1.0975
 Frc consts  --      5.7326                 6.3486                 6.3249
 IR Inten    --     15.6561                25.6718                23.1150

                     76                     77                     78
                      A                      A                      A
 Frequencies --   3130.1221              3149.8873              3156.0697
 Red. masses --      1.0993                 1.1017                 1.1044
 Frc consts  --      6.3459                 6.4400                 6.4813
 IR Inten    --     20.2947                17.0714                29.0606

                     79                     80                     81
                      A                      A                      A
 Frequencies --   3156.4863              3172.7905              3183.4527
 Red. masses --      1.1038                 1.0916                 1.0868
 Frc consts  --      6.4798                 6.4741                 6.4896
 IR Inten    --     26.3420                36.2619                11.4922

                     82                     83                     84
                      A                      A                      A
 Frequencies --   3188.1486              3198.4575              3205.0083
 Red. masses --      1.0872                 1.0911                 1.0949
 Frc consts  --      6.5105                 6.5764                 6.6266
 IR Inten    --      2.3793                12.8834                53.0209

                     85                     86                     87
                      A                      A                      A
 Frequencies --   3217.2611              3526.9928              3614.8829
 Red. masses --      1.0987                 1.0507                 1.0966
 Frc consts  --      6.7003                 7.7008                 8.4425
 IR Inten    --     21.0023                15.0103                50.2575

 - Thermochemistry -
 -------------------
 Temperature   298.150 Kelvin.  Pressure   1.00000 Atm.
 Atom     1 has atomic number  6 and mass  12.00000

 Molecular mass:   191.13101 amu.
 Principal axes and moments of inertia in atomic units:
                           1         2         3
     Eigenvalues --  1886.600593835.904994646.33034
           X            0.99922   0.03886  -0.00628
           Y           -0.03872   0.99902   0.02161
           Z            0.00711  -0.02135   0.99975
 This molecule is an asymmetric top.
 Rotational symmetry number  1.
 Warning -- assumption of classical behavior for rotation
           may cause significant error
 Rotational temperatures (Kelvin)      0.04591     0.02258     0.01864
 Rotational constants (GHZ):           0.95661     0.47049     0.38842
    1 imaginary frequencies ignored.
 Zero-point vibrational energy     702600.7 (Joules/Mol)
                                  167.92559 (Kcal/Mol)
 Warning -- explicit consideration of  21 degrees of freedom as
           vibrations may cause significant error
 Vibrational temperatures:     55.16    59.53   107.32   122.70   136.15
          (Kelvin)            155.79   167.71   229.96   242.81   301.54
                              347.45   375.04   428.10   469.18   562.31
                              596.89   613.15   701.87   722.21   851.59
                              874.39   912.70   916.96   986.96  1046.70
                             1052.58  1156.86  1268.81  1354.61  1378.01
                             1388.33  1424.88  1457.37  1461.35  1474.07
                             1476.49  1477.23  1500.38  1516.71  1528.33
                             1549.76  1595.15  1633.86  1696.12  1699.32
                             1715.63  1734.12  1737.81  1879.39  1907.50
                             1942.31  1953.45  1990.33  2020.36  2025.23
                             2080.42  2103.40  2112.60  2122.42  2133.13
                             2139.34  2146.26  2156.80  2172.33  2222.92
                             2333.83  2364.33  2369.99  2405.62  4395.10
                             4396.72  4406.46  4497.12  4499.78  4503.55
                             4531.99  4540.88  4541.48  4564.94  4580.28
                             4587.03  4601.87  4611.29  4628.92  5074.56
                             5201.01

 Zero-point correction=                           0.267606 (Hartree/Particle)
 Thermal correction to Energy=                    0.282558
 Thermal correction to Enthalpy=                  0.283503
 Thermal correction to Gibbs Free Energy=         0.224632
 Sum of electronic and zero-point Energies=           -597.216515
 Sum of electronic and thermal Energies=              -597.201563
 Sum of electronic and thermal Enthalpies=            -597.200619
 Sum of electronic and thermal Free Energies=         -597.259489

                     E (Thermal)             CV                S
                      KCal/Mol        Cal/Mol-Kelvin    Cal/Mol-Kelvin
 Total                  177.308             54.622            123.903
 Electronic               0.000              0.000              0.000
 Translational            0.889              2.981             41.649
 Rotational               0.889              2.981             31.886
 Vibrational            175.531             48.661             50.368
 Vibration     1          0.594              1.982              5.343
 Vibration     2          0.594              1.981              5.192
 Vibration     3          0.599              1.966              4.028
 Vibration     4          0.601              1.959              3.766
 Vibration     5          0.603              1.953              3.562
 Vibration     6          0.606              1.943              3.300
 Vibration     7          0.608              1.936              3.157
 Vibration     8          0.622              1.892              2.552
 Vibration     9          0.625              1.881              2.449
 Vibration    10          0.642              1.826              2.047
 Vibration    11          0.658              1.777              1.792
 Vibration    12          0.669              1.745              1.657
 Vibration    13          0.691              1.678              1.431
 Vibration    14          0.710              1.623              1.279
 Vibration    15          0.759              1.490              0.997
 Vibration    16          0.778              1.438              0.910
 Vibration    17          0.788              1.413              0.871
 Vibration    18          0.844              1.277              0.689
 Vibration    19          0.857              1.246              0.653
 Vibration    20          0.949              1.049              0.464
 Vibration    21          0.967              1.015              0.437

 Optimization completed.
    -- Stationary point found.
 Normal termination of Gaussian 16 at Sun Feb 14 09:50:00 2021.
