 Gaussian 16, Revision A.03,
 Gaussian 16:  ES64L-G16RevA.03 25-Dec-2016

 ----------------------------------------------------------------------
 # wB97XD def2tzvp, opt=(ts, noeigen, calcfc, maxcycles=70, maxstep=3),
  freq=noraman, scrf=(iefpcm, solvent=water)
 ----------------------------------------------------------------------

 -----------------------
 0_iteration/TS-46-0.out
 -----------------------
 Symbolic Z-matrix:
 Charge =  0 Multiplicity = 1

 SCF Done:  E(RwB97XD) =  -883.893426860     A.U. after   14 cycles
 Optimization completed.
    -- Stationary point found.
 Normal termination of Gaussian 16 at Wed Apr 14 23:16:36 2021.

 ---------------------------------------------------------------------
 #N Geom=AllCheck Guess=TCheck SCRF=Check GenChk RwB97XD/def2TZVP Freq
 ---------------------------------------------------------------------

 Structure from the checkpoint file:  "/beegfs/scratch/user/q/tla25/Gau-36669.chk"
 -----------------------
 0_iteration/TS-46-0.out
 -----------------------
 Charge =  0 Multiplicity = 1

                         Standard orientation:
 ---------------------------------------------------------------------
 Center     Atomic      Atomic             Coordinates (Angstroms)
 Number     Number       Type             X           Y           Z
 ---------------------------------------------------------------------
      1          6           0       -0.686389   -0.467992   -0.256606
      2          6           0       -1.869589   -1.300991   -0.278506
      3          8           0       -1.820990   -2.513691    0.041394
      4          6           0        0.526111   -1.191492   -0.222706
      5          6           0        1.709410   -3.078093    1.545294
      6          1           0        1.588109   -3.703893    2.430494
      7          1           0        1.714209   -3.716793    0.661894
      8          1           0        2.663210   -2.555993    1.603094
      9          7           0        0.632510   -2.106292    1.413594
     10          1           0       -0.289290   -2.537192    1.325294
     11          1           0        0.617710   -1.431192    2.167594
     12          6           0        1.861411   -0.535093   -0.317006
     13          6           0        2.331311    0.343907    0.655694
     14          6           0        3.576312    0.936906    0.530094
     15          6           0        4.371612    0.664506   -0.575506
     16          6           0        3.916711   -0.214794   -1.546306
     17          6           0        2.673611   -0.816793   -1.410206
     18          1           0        1.715411    0.577607    1.514994
     19          1           0        3.926812    1.617006    1.296194
     20          1           0        5.343612    1.130705   -0.675006
     21          1           0        4.532211   -0.440494   -2.407906
     22          1           0        2.325710   -1.510693   -2.166606
     23          1           0        0.496310   -2.130492   -0.769206
     24          6           0       -0.760688    0.972708    0.082994
     25          6           0       -1.525788    1.414409    1.166394
     26          6           0       -1.608587    2.759009    1.497794
     27          6           0       -0.913287    3.705308    0.758494
     28          6           0       -0.147387    3.288708   -0.322606
     29          6           0       -0.082588    1.945908   -0.657906
     30          1           0       -2.066588    0.685109    1.758394
     31          1           0       -2.211587    3.067309    2.343594
     32          1           0       -0.971387    4.755108    1.017494
     33          1           0        0.393213    4.016408   -0.916206
     34          1           0        0.502312    1.638108   -1.516206
     35          7           0       -3.080489   -0.766091   -0.631606
     36          6           0       -3.234789    0.398409   -1.474506
     37          6           0       -4.288490   -1.523600   -0.399206
     38          1           0       -2.286388    0.664609   -1.932306
     39          1           0       -3.947189    0.170610   -2.271906
     40          1           0       -3.606488    1.264010   -0.917106
     41          1           0       -4.148490   -2.197400    0.441494
     42          1           0       -5.104589   -0.834000   -0.173106
     43          1           0       -4.576490   -2.117800   -1.274206
 ---------------------------------------------------------------------

 SCF Done:  E(RwB97XD) =  -883.893426860     A.U. after    1 cycles

 The electronic state is 1-A.
 Alpha  occ. eigenvalues --  -19.19275 -14.47052 -14.44437 -10.36335 -10.33255
 Alpha  occ. eigenvalues --  -10.31376 -10.30159 -10.30104 -10.29899 -10.29151
 Alpha  occ. eigenvalues --  -10.29124 -10.29090 -10.29075 -10.29061 -10.29010
 Alpha  occ. eigenvalues --  -10.28269 -10.28226 -10.28042 -10.27747 -10.27680
 Alpha  occ. eigenvalues --  -10.24858  -1.11658  -1.03024  -1.01771  -0.97101
 Alpha  occ. eigenvalues --   -0.95708  -0.90060  -0.86045  -0.85249  -0.84102
 Alpha  occ. eigenvalues --   -0.82063  -0.80860  -0.78947  -0.77590  -0.72976
 Alpha  occ. eigenvalues --   -0.70760  -0.69389  -0.69023  -0.66474  -0.63283
 Alpha  occ. eigenvalues --   -0.62248  -0.60980  -0.59461  -0.57530  -0.56020
 Alpha  occ. eigenvalues --   -0.55841  -0.55403  -0.54869  -0.54412  -0.53792
 Alpha  occ. eigenvalues --   -0.52668  -0.51903  -0.51162  -0.50719  -0.49976
 Alpha  occ. eigenvalues --   -0.49091  -0.48100  -0.47741  -0.47512  -0.47180
 Alpha  occ. eigenvalues --   -0.46472  -0.46099  -0.45153  -0.44643  -0.43341
 Alpha  occ. eigenvalues --   -0.42807  -0.41935  -0.41581  -0.41387  -0.34846
 Alpha  occ. eigenvalues --   -0.34047  -0.33552  -0.32469  -0.32059  -0.30989
 Alpha  occ. eigenvalues --   -0.24799
 Alpha virt. eigenvalues --    0.03519   0.04704   0.05631   0.06519   0.09319
 Alpha virt. eigenvalues --    0.10482   0.12160   0.13176   0.13449   0.13742
 Alpha virt. eigenvalues --    0.14584   0.15598   0.15906   0.16310   0.17273

 Mulliken charges:
               1
     1  C   -0.221421
     2  C    0.302288
     3  O   -0.606815
     4  C   -0.118320
     5  C   -0.285120
     6  H    0.151390
     7  H    0.145452
     8  H    0.151440
     9  N   -0.283715
    10  H    0.273531
    11  H    0.266385
    12  C    0.240722
    13  C   -0.258737
    14  C   -0.157393
    15  C   -0.140402
    16  C   -0.146678
    17  C   -0.232235
    18  H    0.163347
    19  H    0.141965
    20  H    0.144190
    21  H    0.142140
    22  H    0.140144
    23  H    0.156131
    24  C    0.134076
    25  C   -0.232073
    26  C   -0.177583
    27  C   -0.133748
    28  C   -0.177906
    29  C   -0.179176
    30  H    0.134462
    31  H    0.133228
    32  H    0.137336
    33  H    0.133074
    34  H    0.144976
    35  N   -0.108262
    36  C   -0.293199
    37  C   -0.297328
    38  H    0.150953
    39  H    0.140256
    40  H    0.127816
    41  H    0.134962
    42  H    0.133754
    43  H    0.126090
 Sum of Mulliken charges =  -0.00000

 Dipole moment (field-independent basis, Debye):
    X=              3.3056    Y=             -0.0319    Z=              2.4400  Tot=              4.1087
 Quadrupole moment (field-independent basis, Debye-Ang):
   XX=           -114.4341   YY=           -126.7235   ZZ=           -114.4878
   XY=             -8.5642   XZ=              0.0124   YZ=             -3.7492

  Exact polarizability: 363.658   7.400 344.114 -15.160   9.200 282.957
 Approx polarizability: 269.075   9.806 271.587 -17.403   9.107 243.967

 ******    1 imaginary frequencies (negative Signs) ******

                      1                      2                      3
                      A                      A                      A
 Frequencies --   -382.8069                35.7982                39.9139
 Red. masses --      6.1840                 4.2020                 3.9268
 Frc consts  --      0.5339                 0.0032                 0.0037
 IR Inten    --    988.6516                 0.0222                 2.8557

                      4                      5                      6
                      A                      A                      A
 Frequencies --     45.1884                62.3384                76.1910
 Red. masses --      4.4008                 3.5200                 3.1068
 Frc consts  --      0.0053                 0.0081                 0.0106
 IR Inten    --      3.7227                 2.9655                 1.7277

                      7                      8                      9
                      A                      A                      A
 Frequencies --     81.6415                88.0132                96.8106
 Red. masses --      3.5391                 3.2605                 2.9561
 Frc consts  --      0.0139                 0.0149                 0.0163
 IR Inten    --      0.4211                 4.9146                 5.3045

                     10                     11                     12
                      A                      A                      A
 Frequencies --    122.5213               142.2800               151.4323
 Red. masses --      1.4474                 2.0521                 1.5760
 Frc consts  --      0.0128                 0.0245                 0.0213
 IR Inten    --      0.6876                 1.6240                15.7316

                     13                     14                     15
                      A                      A                      A
 Frequencies --    175.8605               184.1137               197.7767
 Red. masses --      1.5076                 2.3548                 3.0661
 Frc consts  --      0.0275                 0.0470                 0.0707
 IR Inten    --      5.9477                 5.1568                 9.5842

                     16                     17                     18
                      A                      A                      A
 Frequencies --    222.1273               236.3737               263.5829
 Red. masses --      2.9819                 2.9702                 3.3510
 Frc consts  --      0.0867                 0.0978                 0.1372
 IR Inten    --      2.0760                 7.3214                 2.8955

                     19                     20                     21
                      A                      A                      A
 Frequencies --    266.7829               285.3515               329.5288
 Red. masses --      3.7360                 2.9814                 3.7519
 Frc consts  --      0.1567                 0.1430                 0.2400
 IR Inten    --     17.0966                70.8399                 3.9991

                     22                     23                     24
                      A                      A                      A
 Frequencies --    363.0079               410.5712               420.8256
 Red. masses --      4.1111                 3.4283                 2.8808
 Frc consts  --      0.3192                 0.3405                 0.3006
 IR Inten    --     28.2951                18.6078                 1.8650

                     25                     26                     27
                      A                      A                      A
 Frequencies --    427.1142               466.8818               490.0163
 Red. masses --      2.8713                 4.4324                 4.3644
 Frc consts  --      0.3086                 0.5693                 0.6174
 IR Inten    --      0.5564                 2.7558                31.9790

                     28                     29                     30
                      A                      A                      A
 Frequencies --    518.1185               564.0052               593.5437
 Red. masses --      3.3778                 3.3999                 4.0823
 Frc consts  --      0.5343                 0.6372                 0.8474
 IR Inten    --     63.2130               106.7962                17.1085

                     31                     32                     33
                      A                      A                      A
 Frequencies --    630.5410               637.5789               646.9956
 Red. masses --      5.7105                 6.2842                 5.6083
 Frc consts  --      1.3377                 1.5051                 1.3832
 IR Inten    --      8.9129                 3.7319                24.5470

                     34                     35                     36
                      A                      A                      A
 Frequencies --    676.1486               715.8442               725.7314
 Red. masses --      2.7559                 2.7282                 1.5695
 Frc consts  --      0.7423                 0.8237                 0.4870
 IR Inten    --     60.9436                31.8473                76.4833

                     37                     38                     39
                      A                      A                      A
 Frequencies --    728.9473               755.1766               789.6912
 Red. masses --      1.5858                 2.4845                 4.6804
 Frc consts  --      0.4965                 0.8348                 1.7197
 IR Inten    --    114.6397                23.9809                58.2542

                     40                     41                     42
                      A                      A                      A
 Frequencies --    800.4750               820.1107               845.1211
 Red. masses --      2.5573                 2.5876                 4.0608
 Frc consts  --      0.9655                 1.0254                 1.7088
 IR Inten    --     27.8595                34.8962                17.4715

                     43                     44                     45
                      A                      A                      A
 Frequencies --    874.1056               879.2520               942.6787
 Red. masses --      1.2582                 1.2487                 2.1574
 Frc consts  --      0.5664                 0.5688                 1.1296
 IR Inten    --      2.7929                 0.7026                10.4634

                     46                     47                     48
                      A                      A                      A
 Frequencies --    949.4027               962.2594              1007.4181
 Red. masses --      1.6874                 1.6926                 1.3678
 Frc consts  --      0.8961                 0.9234                 0.8179
 IR Inten    --      2.8824                11.1230                 0.1933

                     49                     50                     51
                      A                      A                      A
 Frequencies --   1009.9448              1013.4762              1020.1546
 Red. masses --      1.1956                 1.3705                 1.3026
 Frc consts  --      0.7185                 0.8294                 0.7987
 IR Inten    --     17.2766                 3.0308                 0.4799

                     52                     53                     54
                      A                      A                      A
 Frequencies --   1024.1910              1027.1654              1030.2111
 Red. masses --      5.8812                 4.1121                 1.4317
 Frc consts  --      3.6348                 2.5562                 0.8953
 IR Inten    --      1.7429                 0.8813                 1.9127

                     55                     56                     57
                      A                      A                      A
 Frequencies --   1047.3152              1061.8195              1063.4595
 Red. masses --      2.7560                 1.4937                 2.1222
 Frc consts  --      1.7811                 0.9922                 1.4141
 IR Inten    --     56.0445                99.8850                 8.7025

                     58                     59                     60
                      A                      A                      A
 Frequencies --   1071.1246              1086.8065              1091.9803
 Red. masses --      1.7940                 1.4236                 2.5580
 Frc consts  --      1.2127                 0.9907                 1.7971
 IR Inten    --     24.8650                63.0850               295.7061

                     61                     62                     63
                      A                      A                      A
 Frequencies --   1107.7435              1118.3944              1134.6802
 Red. masses --      1.5766                 1.5788                 1.2284
 Frc consts  --      1.1398                 1.1635                 0.9319
 IR Inten    --     11.3207                20.1866                 0.8215

                     64                     65                     66
                      A                      A                      A
 Frequencies --   1159.3604              1168.2763              1178.0661
 Red. masses --      2.1992                 1.4592                 1.1262
 Frc consts  --      1.7416                 1.1734                 0.9209
 IR Inten    --      1.1014                 8.9873                 1.8905

                     67                     68                     69
                      A                      A                      A
 Frequencies --   1183.9854              1204.8426              1206.3256
 Red. masses --      1.1378                 1.2719                 1.1410
 Frc consts  --      0.9398                 1.0879                 0.9783
 IR Inten    --      0.2576               181.9485                19.9602

                     70                     71                     72
                      A                      A                      A
 Frequencies --   1209.5309              1215.5937              1246.9594
 Red. masses --      1.3136                 1.2526                 2.6394
 Frc consts  --      1.1322                 1.0906                 2.4180
 IR Inten    --    125.8146                20.5900               194.6985

                     73                     74                     75
                      A                      A                      A
 Frequencies --   1264.7103              1306.6532              1314.8568
 Red. masses --      1.6704                 4.5626                 4.7553
 Frc consts  --      1.5742                 4.5897                 4.8438
 IR Inten    --     63.0714                 0.9819                22.9303

                     76                     77                     78
                      A                      A                      A
 Frequencies --   1329.3612              1345.0598              1356.8443
 Red. masses --      4.5873                 1.3425                 1.5039
 Frc consts  --      4.7763                 1.4311                 1.6313
 IR Inten    --     61.1880                19.0426                 0.3698

                     79                     80                     81
                      A                      A                      A
 Frequencies --   1366.1658              1380.8742              1420.5251
 Red. masses --      1.4727                 2.3934                 2.1874
 Frc consts  --      1.6195                 2.6888                 2.6006
 IR Inten    --     20.7469                31.0656               680.1748

                     82                     83                     84
                      A                      A                      A
 Frequencies --   1441.8000              1447.8658              1462.5066
 Red. masses --      1.2597                 2.1401                 1.2754
 Frc consts  --      1.5428                 2.6433                 1.6073
 IR Inten    --    109.4493                99.7890                35.3147

                     85                     86                     87
                      A                      A                      A
 Frequencies --   1472.4945              1484.1523              1488.5121
 Red. masses --      1.2132                 1.1812                 1.9398
 Frc consts  --      1.5499                 1.5329                 2.5323
 IR Inten    --     79.4117                 6.2987                28.3976

                     88                     89                     90
                      A                      A                      A
 Frequencies --   1490.1057              1491.7286              1500.8052
 Red. masses --      1.0428                 1.0614                 1.5427
 Frc consts  --      1.3642                 1.3915                 2.0472
 IR Inten    --     19.3698                32.8395                37.4662

                     91                     92                     93
                      A                      A                      A
 Frequencies --   1501.9018              1505.0588              1528.6982
 Red. masses --      1.0631                 1.3101                 1.5977
 Frc consts  --      1.4129                 1.7485                 2.1999
 IR Inten    --     35.4099                32.6670               276.3993

                     94                     95                     96
                      A                      A                      A
 Frequencies --   1540.8913              1551.2436              1581.0859
 Red. masses --      2.3750                 2.4953                 4.8444
 Frc consts  --      3.3224                 3.5378                 7.1351
 IR Inten    --    108.1535                10.9646               810.1941

                     97                     98                     99
                      A                      A                      A
 Frequencies --   1638.6711              1655.2175              1661.4188
 Red. masses --      5.6764                 5.7192                 1.1131
 Frc consts  --      8.9807                 9.2320                 1.8102
 IR Inten    --      8.5432                 3.8197                60.6278

                    100                    101                    102
                      A                      A                      A
 Frequencies --   1667.5424              1679.6367              3017.8250
 Red. masses --      5.3612                 5.8463                 1.0471
 Frc consts  --      8.7835                 9.7177                 5.6186
 IR Inten    --     33.2308                 0.6761               125.0503

                    103                    104                    105
                      A                      A                      A
 Frequencies --   3029.0931              3060.1664              3080.7970
 Red. masses --      1.0412                 1.0335                 1.0994
 Frc consts  --      5.6287                 5.7025                 6.1478
 IR Inten    --    137.1514                69.4650                93.0362

                    106                    107                    108
                      A                      A                      A
 Frequencies --   3089.9286              3134.1218              3138.1836
 Red. masses --      1.0958                 1.1013                 1.0922
 Frc consts  --      6.1644                 6.3737                 6.3373
 IR Inten    --     26.2582                31.8274                20.9804

                    109                    110                    111
                      A                      A                      A
 Frequencies --   3154.8010              3170.1555              3173.7420
 Red. masses --      1.1051                 1.0980                 1.0964
 Frc consts  --      6.4801                 6.5015                 6.5070
 IR Inten    --     19.6169                14.4317                14.0958

                    112                    113                    114
                      A                      A                      A
 Frequencies --   3182.6902              3187.1116              3190.5122
 Red. masses --      1.0855                 1.0875                 1.0873
 Frc consts  --      6.4787                 6.5086                 6.5210
 IR Inten    --     11.7067                 0.1482                 7.5009

                    115                    116                    117
                      A                      A                      A
 Frequencies --   3195.8601              3197.9795              3203.5174
 Red. masses --      1.0875                 1.0915                 1.0947
 Frc consts  --      6.5439                 6.5768                 6.6191
 IR Inten    --      1.7118                19.5646                53.8961

                    118                    119                    120
                      A                      A                      A
 Frequencies --   3204.4760              3212.6549              3215.3310
 Red. masses --      1.0912                 1.0951                 1.0986
 Frc consts  --      6.6019                 6.6593                 6.6918
 IR Inten    --     15.5120                42.0517                21.5227

                    121                    122                    123
                      A                      A                      A
 Frequencies --   3222.6237              3414.1709              3590.1926
 Red. masses --      1.0989                 1.0643                 1.0854
 Frc consts  --      6.7239                 7.3091                 8.2429
 IR Inten    --     16.2598               167.7018                54.0674

 - Thermochemistry -
 -------------------
 Temperature   298.150 Kelvin.  Pressure   1.00000 Atm.
 Atom     1 has atomic number  6 and mass  12.00000

 Molecular mass:   282.17321 amu.
 Principal axes and moments of inertia in atomic units:
                           1         2         3
     Eigenvalues --  4427.666596880.784299372.74116
           X            0.99994  -0.00916   0.00620
           Y            0.00923   0.99990  -0.01108
           Z           -0.00610   0.01114   0.99992
 This molecule is an asymmetric top.
 Rotational symmetry number  1.
 Warning -- assumption of classical behavior for rotation
           may cause significant error
 Rotational temperatures (Kelvin)      0.01956     0.01259     0.00924
 Rotational constants (GHZ):           0.40761     0.26229     0.19255
    1 imaginary frequencies ignored.
 Zero-point vibrational energy     965200.5 (Joules/Mol)
                                  230.68845 (Kcal/Mol)
 Warning -- explicit consideration of  29 degrees of freedom as
           vibrations may cause significant error
 Vibrational temperatures:     51.51    57.43    65.02    89.69   109.62
          (Kelvin)            117.46   126.63   139.29   176.28   204.71
                              217.88   253.02   264.90   284.56   319.59
                              340.09   379.24   383.84   410.56   474.12
                              522.29   590.72   605.47   614.52   671.74
                              705.02   745.46   811.48   853.98   907.21
                              917.33   930.88   972.83  1029.94  1044.17
                             1048.79  1086.53  1136.19  1151.70  1179.96
                             1215.94  1257.64  1265.05  1356.30  1365.98
                             1384.48  1449.45  1453.09  1458.17  1467.77
                             1473.58  1477.86  1482.24  1506.85  1527.72
                             1530.08  1541.11  1563.67  1571.12  1593.80
                             1609.12  1632.55  1668.06  1680.89  1694.97
                             1703.49  1733.50  1735.63  1740.25  1748.97
                             1794.10  1819.64  1879.98  1891.79  1912.65
                             1935.24  1952.20  1965.61  1986.77  2043.82
                             2074.43  2083.16  2104.22  2118.59  2135.36
                             2141.64  2143.93  2146.26  2159.32  2160.90
                             2165.44  2199.46  2217.00  2231.89  2274.83
                             2357.68  2381.49  2390.41  2399.22  2416.62
                             4341.98  4358.19  4402.90  4432.58  4445.72
                             4509.30  4515.15  4539.05  4561.15  4566.31
                             4579.18  4585.54  4590.44  4598.13  4601.18
                             4609.15  4610.53  4622.29  4626.14  4636.64
                             4912.23  5165.49

 Zero-point correction=                           0.367625 (Hartree/Particle)
 Thermal correction to Energy=                    0.387967
 Thermal correction to Enthalpy=                  0.388911
 Thermal correction to Gibbs Free Energy=         0.317668
 Sum of electronic and zero-point Energies=           -883.525801
 Sum of electronic and thermal Energies=              -883.505460
 Sum of electronic and thermal Enthalpies=            -883.504515
 Sum of electronic and thermal Free Energies=         -883.575759

                     E (Thermal)             CV                S
                      KCal/Mol        Cal/Mol-Kelvin    Cal/Mol-Kelvin
 Total                  243.453             76.411            149.945
 Electronic               0.000              0.000              0.000
 Translational            0.889              2.981             42.810
 Rotational               0.889              2.981             34.012
 Vibrational            241.676             70.450             73.123
 Vibration     1          0.594              1.982              5.479
 Vibration     2          0.594              1.981              5.263
 Vibration     3          0.595              1.979              5.018
 Vibration     4          0.597              1.972              4.382
 Vibration     5          0.599              1.965              3.987
 Vibration     6          0.600              1.962              3.851
 Vibration     7          0.601              1.958              3.704
 Vibration     8          0.603              1.951              3.518
 Vibration     9          0.610              1.930              3.060
 Vibration    10          0.616              1.911              2.773
 Vibration    11          0.619              1.901              2.654
 Vibration    12          0.628              1.872              2.372
 Vibration    13          0.631              1.861              2.286
 Vibration    14          0.637              1.843              2.154
 Vibration    15          0.648              1.807              1.942
 Vibration    16          0.655              1.785              1.830
 Vibration    17          0.670              1.740              1.638
 Vibration    18          0.672              1.734              1.617
 Vibration    19          0.683              1.701              1.501
 Vibration    20          0.712              1.617              1.262
 Vibration    21          0.737              1.548              1.109
 Vibration    22          0.775              1.447              0.925
 Vibration    23          0.783              1.425              0.889
 Vibration    24          0.789              1.411              0.868
 Vibration    25          0.824              1.324              0.746
 Vibration    26          0.846              1.272              0.684
 Vibration    27          0.873              1.210              0.614
 Vibration    28          0.920              1.109              0.516
 Vibration    29          0.951              1.046              0.461

 Optimization completed.
    -- Stationary point found.
 Normal termination of Gaussian 16 at Thu Apr 15 00:43:59 2021.
