 Gaussian 16, Revision A.03,
 Gaussian 16:  ES64L-G16RevA.03 25-Dec-2016

 ----------------------------------------------------------------------
 # wB97XD def2tzvp, opt=(ts, noeigen, calcfc, maxcycles=70, maxstep=8),
  freq=noraman, scrf=(iefpcm, solvent=water)
 ----------------------------------------------------------------------

 ------------------------
 1_iteration/TS-483-1.out
 ------------------------
 Symbolic Z-matrix:
 Charge =  0 Multiplicity = 1

 SCF Done:  E(RwB97XD) =  -652.862614219     A.U. after   14 cycles
 Optimization completed.
    -- Stationary point found.
 Normal termination of Gaussian 16 at Sun Feb 14 09:31:47 2021.

 ---------------------------------------------------------------------
 #N Geom=AllCheck Guess=TCheck SCRF=Check GenChk RwB97XD/def2TZVP Freq
 ---------------------------------------------------------------------

 Structure from the checkpoint file:  "/beegfs/scratch/user/q/tla25/Gau-59635.chk"
 ------------------------
 1_iteration/TS-483-1.out
 ------------------------
 Charge =  0 Multiplicity = 1

                         Standard orientation:
 ---------------------------------------------------------------------
 Center     Atomic      Atomic             Coordinates (Angstroms)
 Number     Number       Type             X           Y           Z
 ---------------------------------------------------------------------
      1          6           0       -0.261490    0.436650   -0.384170
      2          6           0       -0.652421    1.796950   -0.171190
      3          8           0       -1.831592    2.175679    0.017210
      4          6           0       -1.252639   -0.559871   -0.597600
      5          6           0       -3.434969   -1.355333    1.312450
      6          1           0       -3.806659   -1.212583    2.329130
      7          1           0       -4.211829   -1.052063    0.613550
      8          1           0       -3.220528   -2.412853    1.163730
      9          7           0       -2.229509   -0.570532    1.064100
     10          1           0       -2.406570    0.433058    1.080890
     11          1           0       -1.502039   -0.774741    1.738120
     12          6           0       -0.801278   -1.999711   -0.665100
     13          1           0       -0.303688   -2.178420   -1.620060
     14          1           0       -0.098588   -2.249560    0.128580
     15          1           0       -1.657487   -2.671781   -0.610470
     16          6           0       -2.403639   -0.292232   -1.542150
     17          1           0       -2.016589   -0.384872   -2.559910
     18          1           0       -3.197299   -1.031493   -1.428300
     19          1           0       -2.809240    0.706078   -1.412850
     20          6           0        1.151660    0.043911   -0.114780
     21          6           0        1.978181   -0.440348   -1.131300
     22          6           0        3.290161   -0.817047   -0.882300
     23          6           0        3.817371   -0.703637    0.396470
     24          6           0        3.019230   -0.213487    1.420740
     25          6           0        1.704950    0.149862    1.165230
     26          1           0        1.578481   -0.520188   -2.135520
     27          1           0        3.905431   -1.192196   -1.691150
     28          1           0        4.842411   -0.992246    0.592810
     29          1           0        3.418740   -0.121067    2.423430
     30          1           0        1.086720    0.525281    1.973190
     31          7           0        0.333798    2.763160   -0.171940
     32          1           0        1.294368    2.477081   -0.095610
     33          1           0        0.096377    3.624490    0.289830
 ---------------------------------------------------------------------

 SCF Done:  E(RwB97XD) =  -652.862614219     A.U. after    1 cycles

 The electronic state is 1-A.
 Alpha  occ. eigenvalues --  -19.18923 -14.46717 -14.42558 -10.36388 -10.34325
 Alpha  occ. eigenvalues --  -10.31287 -10.29231 -10.28598 -10.28567 -10.28478
 Alpha  occ. eigenvalues --  -10.28232 -10.28122 -10.27510 -10.26733 -10.24307
 Alpha  occ. eigenvalues --   -1.10995  -1.02524  -0.98084  -0.95989  -0.91380
 Alpha  occ. eigenvalues --   -0.85569  -0.84468  -0.79660  -0.78923  -0.77816
 Alpha  occ. eigenvalues --   -0.69805  -0.68923  -0.67993  -0.62667  -0.62005
 Alpha  occ. eigenvalues --   -0.60764  -0.58690  -0.56433  -0.55746  -0.55052
 Alpha  occ. eigenvalues --   -0.53728  -0.53081  -0.51958  -0.50497  -0.50274
 Alpha  occ. eigenvalues --   -0.49366  -0.47969  -0.47053  -0.46979  -0.46367
 Alpha  occ. eigenvalues --   -0.45632  -0.45063  -0.43441  -0.42184  -0.41461
 Alpha  occ. eigenvalues --   -0.39403  -0.34912  -0.33803  -0.33109  -0.31822
 Alpha  occ. eigenvalues --   -0.25443
 Alpha virt. eigenvalues --    0.05218   0.05585   0.07213   0.09985   0.12807
 Alpha virt. eigenvalues --    0.13142   0.13894   0.14793   0.15025   0.16555
 Alpha virt. eigenvalues --    0.16805   0.17669   0.18060   0.18554   0.18848

 Mulliken charges:
               1
     1  C   -0.216795
     2  C    0.330484
     3  O   -0.597540
     4  C    0.122707
     5  C   -0.296196
     6  H    0.149493
     7  H    0.154045
     8  H    0.147480
     9  N   -0.322423
    10  H    0.267414
    11  H    0.269413
    12  C   -0.365255
    13  H    0.145736
    14  H    0.146382
    15  H    0.138805
    16  C   -0.397366
    17  H    0.132631
    18  H    0.127539
    19  H    0.153577
    20  C    0.096543
    21  C   -0.232942
    22  C   -0.160710
    23  C   -0.141185
    24  C   -0.136817
    25  C   -0.249132
    26  H    0.145449
    27  H    0.136430
    28  H    0.141091
    29  H    0.138045
    30  H    0.137388
    31  N   -0.483809
    32  H    0.265479
    33  H    0.254039
 Sum of Mulliken charges =  -0.00000

 Dipole moment (field-independent basis, Debye):
    X=             -0.3784    Y=             -5.2583    Z=              3.3149  Tot=              6.2275
 Quadrupole moment (field-independent basis, Debye-Ang):
   XX=            -82.8055   YY=            -95.6440   ZZ=            -84.0167
   XY=             13.9163   XZ=             -4.5174   YZ=              3.5171

  Exact polarizability: 266.317  -0.812 209.035  -6.340   6.590 211.050
 Approx polarizability: 202.862  -5.345 166.526  -4.686   6.965 179.638

 ******    1 imaginary frequencies (negative Signs) ******

                      1                      2                      3
                      A                      A                      A
 Frequencies --   -381.5990                43.1829                48.3966
 Red. masses --      5.6164                 3.8869                 3.6124
 Frc consts  --      0.4819                 0.0043                 0.0050
 IR Inten    --    860.0196                 4.2822                 2.6906

                      4                      5                      6
                      A                      A                      A
 Frequencies --     78.6689                88.5381               105.8661
 Red. masses --      2.7323                 3.1922                 3.7969
 Frc consts  --      0.0100                 0.0147                 0.0251
 IR Inten    --      1.0719                 6.0191                 5.1393

                      7                      8                      9
                      A                      A                      A
 Frequencies --    117.6402               172.1798               183.2162
 Red. masses --      2.4754                 1.1067                 3.5453
 Frc consts  --      0.0202                 0.0193                 0.0701
 IR Inten    --     36.8888                 0.3196                 1.0136

                     10                     11                     12
                      A                      A                      A
 Frequencies --    220.6080               253.4624               270.6974
 Red. masses --      3.4693                 1.5887                 2.5702
 Frc consts  --      0.0995                 0.0601                 0.1110
 IR Inten    --     12.1195                23.4174                18.4104

                     13                     14                     15
                      A                      A                      A
 Frequencies --    275.8567               296.8780               319.7223
 Red. masses --      1.2940                 1.7923                 3.1261
 Frc consts  --      0.0580                 0.0931                 0.1883
 IR Inten    --      0.7194                 5.2056                62.7067

                     16                     17                     18
                      A                      A                      A
 Frequencies --    351.8056               385.9216               399.2626
 Red. masses --      3.1134                 2.4440                 3.8461
 Frc consts  --      0.2270                 0.2145                 0.3612
 IR Inten    --      8.6609                32.7114                55.7285

                     19                     20                     21
                      A                      A                      A
 Frequencies --    410.4774               425.2036               427.8559
 Red. masses --      2.3944                 2.0090                 1.9379
 Frc consts  --      0.2377                 0.2140                 0.2090
 IR Inten    --     79.3584               152.1311               141.7900

                     22                     23                     24
                      A                      A                      A
 Frequencies --    472.4016               515.4605               540.4171
 Red. masses --      1.2943                 2.6825                 3.5899
 Frc consts  --      0.1702                 0.4199                 0.6177
 IR Inten    --      3.3228                 3.8126                42.3809

                     25                     26                     27
                      A                      A                      A
 Frequencies --    587.2169               638.8994               652.2812
 Red. masses --      3.1796                 6.1988                 4.0415
 Frc consts  --      0.6460                 1.4908                 1.0131
 IR Inten    --     45.4788                 4.5361                28.0155

                     28                     29                     30
                      A                      A                      A
 Frequencies --    694.1982               708.6773               730.3239
 Red. masses --      1.2830                 4.2139                 1.5247
 Frc consts  --      0.3643                 1.2469                 0.4791
 IR Inten    --     17.2333                 7.1833                88.3544

                     31                     32                     33
                      A                      A                      A
 Frequencies --    795.8921               800.2003               880.5096
 Red. masses --      3.5129                 4.0898                 1.2471
 Frc consts  --      1.3110                 1.5429                 0.5697
 IR Inten    --     22.0615                98.3304                 1.1493

                     34                     35                     36
                      A                      A                      A
 Frequencies --    908.1489               951.4808               958.3353
 Red. masses --      2.7870                 1.3779                 1.4938
 Frc consts  --      1.3543                 0.7350                 0.8083
 IR Inten    --     26.7322                 0.5366                 3.7513

                     37                     38                     39
                      A                      A                      A
 Frequencies --   1000.2392              1013.9390              1021.3371
 Red. masses --      1.9402                 1.3683                 1.5105
 Frc consts  --      1.1437                 0.8288                 0.9284
 IR Inten    --     10.2308                 0.4620                15.2921

                     40                     41                     42
                      A                      A                      A
 Frequencies --   1025.8567              1026.4346              1040.8695
 Red. masses --      2.3832                 1.7904                 1.4086
 Frc consts  --      1.4777                 1.1114                 0.8992
 IR Inten    --      2.2417                 0.2094                75.6663

                     43                     44                     45
                      A                      A                      A
 Frequencies --   1056.8429              1064.6705              1068.1930
 Red. masses --      2.5760                 1.4227                 1.5391
 Frc consts  --      1.6952                 0.9501                 1.0347
 IR Inten    --    101.7300               141.5257                83.1426

                     46                     47                     48
                      A                      A                      A
 Frequencies --   1083.0844              1105.2924              1113.8386
 Red. masses --      1.9365                 1.5553                 1.8460
 Frc consts  --      1.3384                 1.1195                 1.3493
 IR Inten    --     41.8865                 7.4002                26.8425

                     49                     50                     51
                      A                      A                      A
 Frequencies --   1133.1186              1180.3472              1204.7649
 Red. masses --      2.0521                 1.1321                 1.1218
 Frc consts  --      1.5524                 0.9293                 0.9593
 IR Inten    --     35.5797                 0.1197                 0.1660

                     52                     53                     54
                      A                      A                      A
 Frequencies --   1215.3833              1241.6393              1300.1191
 Red. masses --      1.3768                 3.2990                 4.2034
 Frc consts  --      1.1982                 2.9966                 4.1861
 IR Inten    --     59.1545                 5.3536                 1.6389

                     55                     56                     57
                      A                      A                      A
 Frequencies --   1311.5036              1352.9621              1354.1653
 Red. masses --      3.5109                 1.3978                 1.4356
 Frc consts  --      3.5580                 1.5076                 1.5510
 IR Inten    --     14.1613                33.1534                 5.1663

                     58                     59                     60
                      A                      A                      A
 Frequencies --   1384.0166              1394.9737              1409.4805
 Red. masses --      3.1976                 2.2513                 1.4798
 Frc consts  --      3.6087                 2.5812                 1.7321
 IR Inten    --    227.1366               677.6614                25.6079

                     61                     62                     63
                      A                      A                      A
 Frequencies --   1424.1178              1464.0304              1478.2107
 Red. masses --      1.4648                 1.2410                 1.0605
 Frc consts  --      1.7503                 1.5672                 1.3654
 IR Inten    --    205.3470                49.3789                32.1500

                     64                     65                     66
                      A                      A                      A
 Frequencies --   1479.8159              1485.1735              1492.8389
 Red. masses --      1.0590                 2.1571                 1.0570
 Frc consts  --      1.3663                 2.8034                 1.3878
 IR Inten    --      0.8333                 5.9189                16.6411

                     67                     68                     69
                      A                      A                      A
 Frequencies --   1500.6232              1508.9790              1513.7277
 Red. masses --      1.0582                 1.1412                 1.0696
 Frc consts  --      1.4040                 1.5310                 1.4439
 IR Inten    --     28.9892                27.9622                32.2618

                     70                     71                     72
                      A                      A                      A
 Frequencies --   1539.3616              1599.7422              1622.8120
 Red. masses --      2.3861                 2.9669                 1.5707
 Frc consts  --      3.3313                 4.4736                 2.4371
 IR Inten    --     40.6203               638.8019               382.2326

                     73                     74                     75
                      A                      A                      A
 Frequencies --   1640.1986              1656.7558              1668.3830
 Red. masses --      5.6766                 1.0926                 5.7512
 Frc consts  --      8.9977                 1.7669                 9.4319
 IR Inten    --      9.8106                42.2218                 7.1575

                     76                     77                     78
                      A                      A                      A
 Frequencies --   3058.2025              3059.5061              3065.4066
 Red. masses --      1.0383                 1.0388                 1.0368
 Frc consts  --      5.7214                 5.7289                 5.7403
 IR Inten    --     41.6020                55.6187                32.2638

                     79                     80                     81
                      A                      A                      A
 Frequencies --   3121.7877              3132.9735              3135.9869
 Red. masses --      1.0995                 1.1006                 1.1002
 Frc consts  --      6.3135                 6.3648                 6.3750
 IR Inten    --     34.5364                22.2625                36.4578

                     82                     83                     84
                      A                      A                      A
 Frequencies --   3152.2486              3164.5107              3181.1836
 Red. masses --      1.1037                 1.1046                 1.0873
 Frc consts  --      6.4618                 6.5175                 6.4832
 IR Inten    --     38.6155                19.9645                13.4881

                     85                     86                     87
                      A                      A                      A
 Frequencies --   3185.9977              3186.2796              3197.1292
 Red. masses --      1.1002                 1.0870                 1.0908
 Frc consts  --      6.5797                 6.5021                 6.5691
 IR Inten    --      3.8552                 4.6661                10.2325

                     88                     89                     90
                      A                      A                      A
 Frequencies --   3203.8448              3216.7557              3451.5163
 Red. masses --      1.0948                 1.0986                 1.0614
 Frc consts  --      6.6212                 6.6978                 7.4500
 IR Inten    --     53.5539                23.0883                91.4893

                     91                     92                     93
                      A                      A                      A
 Frequencies --   3586.9421              3608.1323              3724.5184
 Red. masses --      1.0878                 1.0463                 1.1017
 Frc consts  --      8.2458                 8.0254                 9.0047
 IR Inten    --     48.0094                43.2933                60.3231

 - Thermochemistry -
 -------------------
 Temperature   298.150 Kelvin.  Pressure   1.00000 Atm.
 Atom     1 has atomic number  6 and mass  12.00000

 Molecular mass:   206.14191 amu.
 Principal axes and moments of inertia in atomic units:
                           1         2         3
     Eigenvalues --  1989.441264285.294684936.95103
           X            0.99960   0.02805  -0.00205
           Y           -0.02801   0.99946   0.01737
           Z            0.00253  -0.01731   0.99985
 This molecule is an asymmetric top.
 Rotational symmetry number  1.
 Warning -- assumption of classical behavior for rotation
           may cause significant error
 Rotational temperatures (Kelvin)      0.04354     0.02021     0.01754
 Rotational constants (GHZ):           0.90716     0.42115     0.36556
    1 imaginary frequencies ignored.
 Zero-point vibrational energy     749583.9 (Joules/Mol)
                                  179.15486 (Kcal/Mol)
 Warning -- explicit consideration of  24 degrees of freedom as
           vibrations may cause significant error
 Vibrational temperatures:     62.13    69.63   113.19   127.39   152.32
          (Kelvin)            169.26   247.73   263.61   317.41   364.68
                              389.47   396.90   427.14   460.01   506.17
                              555.26   574.45   590.59   611.77   615.59
                              679.68   741.63   777.54   844.87   919.23
                              938.49   998.80  1019.63  1050.77  1145.11
                             1151.31  1266.86  1306.62  1368.97  1378.83
                             1439.12  1458.83  1469.48  1475.98  1476.81
                             1497.58  1520.56  1531.82  1536.89  1558.32
                             1590.27  1602.57  1630.30  1698.26  1733.39
                             1748.67  1786.44  1870.58  1886.96  1946.61
                             1948.34  1991.29  2007.06  2027.93  2048.99
                             2106.41  2126.82  2129.13  2136.83  2147.86
                             2159.06  2171.08  2177.92  2214.80  2301.67
                             2334.86  2359.88  2383.70  2400.43  4400.07
                             4401.95  4410.44  4491.56  4507.65  4511.99
                             4535.38  4553.03  4577.01  4583.94  4584.35
                             4599.96  4609.62  4628.19  4965.96  5160.81
                             5191.30  5358.75

 Zero-point correction=                           0.285501 (Hartree/Particle)
 Thermal correction to Energy=                    0.301129
 Thermal correction to Enthalpy=                  0.302073
 Thermal correction to Gibbs Free Energy=         0.242903
 Sum of electronic and zero-point Energies=           -652.577113
 Sum of electronic and thermal Energies=              -652.561485
 Sum of electronic and thermal Enthalpies=            -652.560541
 Sum of electronic and thermal Free Energies=         -652.619712

                     E (Thermal)             CV                S
                      KCal/Mol        Cal/Mol-Kelvin    Cal/Mol-Kelvin
 Total                  188.961             59.658            124.534
 Electronic               0.000              0.000              0.000
 Translational            0.889              2.981             41.874
 Rotational               0.889              2.981             32.109
 Vibrational            187.184             53.696             50.551
 Vibration     1          0.595              1.980              5.107
 Vibration     2          0.595              1.978              4.882
 Vibration     3          0.600              1.964              3.924
 Vibration     4          0.601              1.957              3.692
 Vibration     5          0.605              1.945              3.343
 Vibration     6          0.608              1.935              3.139
 Vibration     7          0.626              1.877              2.412
 Vibration     8          0.631              1.863              2.295
 Vibration     9          0.647              1.810              1.954
 Vibration    10          0.665              1.757              1.706
 Vibration    11          0.674              1.727              1.592
 Vibration    12          0.677              1.718              1.559
 Vibration    13          0.691              1.680              1.434
 Vibration    14          0.706              1.636              1.312
 Vibration    15          0.728              1.572              1.158
 Vibration    16          0.755              1.500              1.016
 Vibration    17          0.765              1.472              0.965
 Vibration    18          0.775              1.447              0.925
 Vibration    19          0.787              1.415              0.874
 Vibration    20          0.789              1.410              0.866
 Vibration    21          0.829              1.311              0.731
 Vibration    22          0.870              1.216              0.621
 Vibration    23          0.895              1.161              0.564
 Vibration    24          0.944              1.059              0.472

 Optimization completed.
    -- Stationary point found.
 Normal termination of Gaussian 16 at Sun Feb 14 10:45:12 2021.
