 Gaussian 16, Revision A.03,
 Gaussian 16:  ES64L-G16RevA.03 25-Dec-2016

 ----------------------------------------------------------------------
 # wB97XD def2tzvp, opt=(ts, noeigen, calcfc, maxcycles=70, maxstep=5),
  freq=noraman, scrf=(iefpcm, solvent=water)
 ----------------------------------------------------------------------

 -----------------------
 2_iteration/TS-45-2.out
 -----------------------
 Symbolic Z-matrix:
 Charge =  0 Multiplicity = 1

 SCF Done:  E(RwB97XD) =  -844.591373150     A.U. after   14 cycles
 Optimization completed.
    -- Stationary point found.
 Normal termination of Gaussian 16 at Sun Jan 31 17:03:12 2021.

 ---------------------------------------------------------------------
 #N Geom=AllCheck Guess=TCheck SCRF=Check GenChk RwB97XD/def2TZVP Freq
 ---------------------------------------------------------------------

 Structure from the checkpoint file:  "/beegfs/scratch/user/q/tla25/Gau-38253.chk"
 -----------------------
 2_iteration/TS-45-2.out
 -----------------------
 Charge =  0 Multiplicity = 1

                         Standard orientation:
 ---------------------------------------------------------------------
 Center     Atomic      Atomic             Coordinates (Angstroms)
 Number     Number       Type             X           Y           Z
 ---------------------------------------------------------------------
      1          6           0       -0.863340   -0.447059   -0.307980
      2          6           0       -2.063720   -1.224228   -0.453540
      3          8           0       -2.066951   -2.476778   -0.393670
      4          6           0        0.331020   -1.202310   -0.273680
      5          6           0        1.415278   -3.184551    1.429510
      6          1           0        1.244007   -3.855101    2.272150
      7          1           0        1.475447   -3.774401    0.514970
      8          1           0        2.359028   -2.661032    1.571420
      9          7           0        0.340789   -2.209150    1.286380
     10          1           0       -0.568822   -2.645000    1.143000
     11          1           0        0.281879   -1.571200    2.070710
     12          6           0        1.673490   -0.556512   -0.271240
     13          6           0        2.066341    0.326158    0.732410
     14          6           0        3.320961    0.911407    0.706740
     15          6           0        4.202641    0.627736   -0.328540
     16          6           0        3.824100   -0.254393   -1.328960
     17          6           0        2.570720   -0.849302   -1.292640
     18          1           0        1.381521    0.565879    1.536540
     19          1           0        3.611722    1.593887    1.495400
     20          1           0        5.182162    1.088335   -0.350320
     21          1           0        4.507130   -0.487464   -2.136050
     22          1           0        2.282239   -1.546022   -2.071030
     23          1           0        0.309689   -2.102550   -0.882730
     24          6           0       -0.911678    1.012631   -0.053500
     25          6           0       -1.602948    1.538801    1.043220
     26          6           0       -1.649517    2.904021    1.285540
     27          6           0       -0.990576    3.785431    0.440090
     28          6           0       -0.298196    3.285950   -0.654790
     29          6           0       -0.270808    1.921950   -0.900850
     30          1           0       -2.104489    0.858112    1.721860
     31          1           0       -2.191306    3.279192    2.145410
     32          1           0       -1.018475    4.850981    0.630680
     33          1           0        0.214744    3.963480   -1.326770
     34          1           0        0.263942    1.543490   -1.763760
     35          7           0       -3.243740   -0.573467   -0.676140
     36          6           0       -4.513840   -1.254496   -0.633030
     37          1           0       -3.242499    0.429583   -0.648280
     38          1           0       -4.691891   -1.730216    0.336020
     39          1           0       -5.304120   -0.527816   -0.812780
     40          1           0       -4.575211   -2.026976   -1.401290
 ---------------------------------------------------------------------

 SCF Done:  E(RwB97XD) =  -844.591373150     A.U. after    1 cycles

 The electronic state is 1-A.
 Alpha  occ. eigenvalues --  -19.18960 -14.47819 -14.43420 -10.36034 -10.33322
 Alpha  occ. eigenvalues --  -10.31590 -10.30206 -10.30161 -10.29294 -10.29188
 Alpha  occ. eigenvalues --  -10.29160 -10.29122 -10.29095 -10.29050 -10.28492
 Alpha  occ. eigenvalues --  -10.28425 -10.28310 -10.28091 -10.27965 -10.24587
 Alpha  occ. eigenvalues --   -1.11195  -1.03559  -1.00066  -0.97151  -0.95881
 Alpha  occ. eigenvalues --   -0.90104  -0.86109  -0.85270  -0.84338  -0.82154
 Alpha  occ. eigenvalues --   -0.79780  -0.78095  -0.73300  -0.70800  -0.69599
 Alpha  occ. eigenvalues --   -0.69141  -0.67326  -0.64779  -0.63427  -0.61240
 Alpha  occ. eigenvalues --   -0.60092  -0.58472  -0.56230  -0.55485  -0.55281
 Alpha  occ. eigenvalues --   -0.54420  -0.53726  -0.52940  -0.52712  -0.51908
 Alpha  occ. eigenvalues --   -0.51176  -0.50434  -0.50163  -0.48993  -0.47897
 Alpha  occ. eigenvalues --   -0.47319  -0.46813  -0.46349  -0.45764  -0.45486
 Alpha  occ. eigenvalues --   -0.43512  -0.43018  -0.42118  -0.41752  -0.41603
 Alpha  occ. eigenvalues --   -0.34850  -0.34086  -0.33741  -0.32834  -0.32462
 Alpha  occ. eigenvalues --   -0.31919  -0.24753
 Alpha virt. eigenvalues --    0.03431   0.04655   0.05571   0.06246   0.09710
 Alpha virt. eigenvalues --    0.10324   0.12547   0.13359   0.13555   0.13755
 Alpha virt. eigenvalues --    0.14521   0.15329   0.16017   0.16798   0.17086

 Mulliken charges:
               1
     1  C   -0.182733
     2  C    0.336634
     3  O   -0.611745
     4  C   -0.100334
     5  C   -0.288857
     6  H    0.154827
     7  H    0.148579
     8  H    0.154378
     9  N   -0.270962
    10  H    0.276336
    11  H    0.269998
    12  C    0.221579
    13  C   -0.245841
    14  C   -0.163380
    15  C   -0.137147
    16  C   -0.147181
    17  C   -0.221562
    18  H    0.168034
    19  H    0.141988
    20  H    0.144539
    21  H    0.142259
    22  H    0.140517
    23  H    0.151451
    24  C    0.123715
    25  C   -0.307185
    26  C   -0.123607
    27  C   -0.150590
    28  C   -0.164878
    29  C   -0.203693
    30  H    0.139025
    31  H    0.137263
    32  H    0.139696
    33  H    0.135382
    34  H    0.140956
    35  N   -0.322046
    36  C   -0.253836
    37  H    0.254458
    38  H    0.116337
    39  H    0.135764
    40  H    0.121861
 Sum of Mulliken charges =  -0.00000

 Dipole moment (field-independent basis, Debye):
    X=              3.6890    Y=              0.3764    Z=              4.1837  Tot=              5.5905
 Quadrupole moment (field-independent basis, Debye-Ang):
   XX=           -109.9212   YY=           -117.5013   ZZ=           -110.2549
   XY=            -11.7239   XZ=             -4.7361   YZ=             -6.2373

  Exact polarizability: 342.358   9.146 326.529 -18.218  12.287 264.309
 Approx polarizability: 253.710   9.711 258.391 -18.377  12.109 229.318

 ******    1 imaginary frequencies (negative Signs) ******

                      1                      2                      3
                      A                      A                      A
 Frequencies --   -378.2453                33.4209                33.5551
 Red. masses --      6.1688                 4.2888                 3.8038
 Frc consts  --      0.5200                 0.0028                 0.0025
 IR Inten    --    946.2144                 2.6975                 0.4267

                      4                      5                      6
                      A                      A                      A
 Frequencies --     43.8425                59.7081                66.6676
 Red. masses --      4.2916                 2.8628                 4.1180
 Frc consts  --      0.0049                 0.0060                 0.0108
 IR Inten    --      6.7746                 7.4253                 3.8281

                      7                      8                      9
                      A                      A                      A
 Frequencies --     74.3387                89.3615                93.9154
 Red. masses --      2.6791                 3.0296                 1.9577
 Frc consts  --      0.0087                 0.0143                 0.0102
 IR Inten    --      1.3115                15.7365                 4.5799

                     10                     11                     12
                      A                      A                      A
 Frequencies --    101.0204               129.1051               140.2871
 Red. masses --      3.5329                 1.6969                 1.7426
 Frc consts  --      0.0212                 0.0167                 0.0202
 IR Inten    --     17.3307                28.2929                 1.6875

                     13                     14                     15
                      A                      A                      A
 Frequencies --    179.0160               189.9204               223.9751
 Red. masses --      2.2379                 3.8918                 2.6189
 Frc consts  --      0.0423                 0.0827                 0.0774
 IR Inten    --      4.5513                 3.3737                 6.1685

                     16                     17                     18
                      A                      A                      A
 Frequencies --    256.3456               267.9867               285.0995
 Red. masses --      4.1258                 4.9041                 3.5641
 Frc consts  --      0.1597                 0.2075                 0.1707
 IR Inten    --      4.0301                 4.2560               104.3996

                     19                     20                     21
                      A                      A                      A
 Frequencies --    312.7028               360.5742               400.7201
 Red. masses --      3.8378                 3.9525                 1.9174
 Frc consts  --      0.2211                 0.3028                 0.1814
 IR Inten    --      3.3353                43.0036                41.9157

                     22                     23                     24
                      A                      A                      A
 Frequencies --    415.8595               420.7354               428.3221
 Red. masses --      2.9086                 2.7999                 2.5406
 Frc consts  --      0.2964                 0.2920                 0.2746
 IR Inten    --     30.2853                 5.4963                 7.2977

                     25                     26                     27
                      A                      A                      A
 Frequencies --    490.4496               520.9853               567.1985
 Red. masses --      4.0890                 3.3675                 3.2590
 Frc consts  --      0.5795                 0.5385                 0.6177
 IR Inten    --     31.3898                48.7787               140.7468

                     28                     29                     30
                      A                      A                      A
 Frequencies --    591.5458               631.5875               637.5791
 Red. masses --      3.7199                 5.6603                 6.3221
 Frc consts  --      0.7669                 1.3303                 1.5142
 IR Inten    --      2.0170                 7.9600                 1.6942

                     31                     32                     33
                      A                      A                      A
 Frequencies --    651.8486               694.1060               722.8268
 Red. masses --      4.3995                 2.4700                 1.5931
 Frc consts  --      1.1014                 0.7011                 0.4904
 IR Inten    --     14.5811                67.1479                73.9793

                     34                     35                     36
                      A                      A                      A
 Frequencies --    728.3611               743.6333               790.0188
 Red. masses --      1.5483                 2.3489                 5.9929
 Frc consts  --      0.4839                 0.7653                 2.2037
 IR Inten    --    126.8486                 4.9319                58.8787

                     37                     38                     39
                      A                      A                      A
 Frequencies --    794.8027               800.7169               820.0856
 Red. masses --      3.4471                 2.3289                 2.6799
 Frc consts  --      1.2830                 0.8797                 1.0619
 IR Inten    --     10.4516                11.8594                58.6362

                     40                     41                     42
                      A                      A                      A
 Frequencies --    874.5056               876.4286               877.2173
 Red. masses --      1.7820                 1.8628                 1.2548
 Frc consts  --      0.8030                 0.8431                 0.5689
 IR Inten    --      3.2740                 8.2953                 2.0087

                     43                     44                     45
                      A                      A                      A
 Frequencies --    952.0242               955.6028              1006.8737
 Red. masses --      1.4864                 1.4605                 3.0079
 Frc consts  --      0.7938                 0.7858                 1.7967
 IR Inten    --      4.3482                 1.7903                 1.6418

                     46                     47                     48
                      A                      A                      A
 Frequencies --   1010.0017              1010.7359              1015.9862
 Red. masses --      1.3689                 1.3830                 1.2757
 Frc consts  --      0.8227                 0.8324                 0.7758
 IR Inten    --      0.8462                 0.3995                19.0259

                     49                     50                     51
                      A                      A                      A
 Frequencies --   1023.4642              1024.2386              1027.6344
 Red. masses --      1.3250                 5.4959                 3.4683
 Frc consts  --      0.8177                 3.3970                 2.1580
 IR Inten    --      0.4034                 0.6654                 1.5808

                     52                     53                     54
                      A                      A                      A
 Frequencies --   1029.7612              1054.6038              1060.8647
 Red. masses --      1.5099                 1.4766                 2.1735
 Frc consts  --      0.9434                 0.9676                 1.4412
 IR Inten    --      0.4816                60.2080                13.7301

                     55                     56                     57
                      A                      A                      A
 Frequencies --   1064.9540              1087.8721              1106.8801
 Red. masses --      1.9307                 2.9165                 1.5739
 Frc consts  --      1.2901                 2.0336                 1.1361
 IR Inten    --     10.3087               274.3338                14.4284

                     58                     59                     60
                      A                      A                      A
 Frequencies --   1111.3771              1128.9077              1154.1566
 Red. masses --      1.8874                 2.2908                 1.2989
 Frc consts  --      1.3735                 1.7201                 1.0194
 IR Inten    --      8.6611                35.2250                 6.9324

                     61                     62                     63
                      A                      A                      A
 Frequencies --   1178.7695              1180.0889              1183.8199
 Red. masses --      1.5317                 1.1974                 1.1435
 Frc consts  --      1.2540                 0.9825                 0.9442
 IR Inten    --     43.9886                15.1597                 0.4561

                     64                     65                     66
                      A                      A                      A
 Frequencies --   1205.9301              1209.2511              1210.8475
 Red. masses --      1.1243                 1.2974                 1.4791
 Frc consts  --      0.9634                 1.1178                 1.2777
 IR Inten    --      1.1007                20.3566               130.8318

                     67                     68                     69
                      A                      A                      A
 Frequencies --   1214.3254              1230.9965              1258.8926
 Red. masses --      1.4402                 2.0912                 1.5402
 Frc consts  --      1.2513                 1.8670                 1.4381
 IR Inten    --     10.2366                35.1772               210.9295

                     70                     71                     72
                      A                      A                      A
 Frequencies --   1303.9019              1318.6369              1330.5950
 Red. masses --      3.9784                 2.1592                 3.7448
 Frc consts  --      3.9852                 2.2121                 3.9064
 IR Inten    --     12.6650               238.1442               166.1470

                     73                     74                     75
                      A                      A                      A
 Frequencies --   1344.5987              1356.4418              1364.6895
 Red. masses --      1.3609                 1.5161                 1.4515
 Frc consts  --      1.4497                 1.6436                 1.5927
 IR Inten    --      9.7440                 3.5563                49.7185

                     76                     77                     78
                      A                      A                      A
 Frequencies --   1386.6890              1447.7711              1454.2082
 Red. masses --      2.5227                 2.3819                 1.3023
 Frc consts  --      2.8581                 2.9416                 1.6226
 IR Inten    --     17.5361               352.8293                17.5489

                     79                     80                     81
                      A                      A                      A
 Frequencies --   1462.4936              1474.4458              1486.4778
 Red. masses --      1.2706                 1.0488                 2.2302
 Frc consts  --      1.6012                 1.3433                 2.9035
 IR Inten    --     36.5957                15.9946                14.6926

                     82                     83                     84
                      A                      A                      A
 Frequencies --   1489.7493              1501.9931              1504.8492
 Red. masses --      1.0420                 1.4359                 1.3927
 Frc consts  --      1.3626                 1.9086                 1.8582
 IR Inten    --     20.7548                32.3296                29.9127

                     85                     86                     87
                      A                      A                      A
 Frequencies --   1509.7730              1540.4235              1545.1121
 Red. masses --      1.1274                 2.4221                 2.0000
 Frc consts  --      1.5141                 3.3863                 2.8132
 IR Inten    --     36.7679                55.3206               668.2347

                     88                     89                     90
                      A                      A                      A
 Frequencies --   1550.0925              1605.4046              1638.4940
 Red. masses --      2.5169                 4.8881                 5.5993
 Frc consts  --      3.5631                 7.4226                 8.8568
 IR Inten    --     10.4083               805.3466                10.5713

                     91                     92                     93
                      A                      A                      A
 Frequencies --   1652.6029              1655.7326              1667.8382
 Red. masses --      1.1507                 4.7882                 5.7724
 Frc consts  --      1.8516                 7.7339                 9.4605
 IR Inten    --     51.4582                14.8997                22.9876

                     94                     95                     96
                      A                      A                      A
 Frequencies --   1679.3428              3035.6641              3063.9011
 Red. masses --      5.8992                 1.0406                 1.0335
 Frc consts  --      9.8022                 5.6502                 5.7162
 IR Inten    --      0.2907               115.5268                59.5048

                     97                     98                     99
                      A                      A                      A
 Frequencies --   3095.3825              3130.8037              3140.7084
 Red. masses --      1.0986                 1.0892                 1.1045
 Frc consts  --      6.2017                 6.2903                 6.4189
 IR Inten    --     55.5193                34.6569                17.8196

                    100                    101                    102
                      A                      A                      A
 Frequencies --   3150.5679              3160.5391              3182.9408
 Red. masses --      1.1010                 1.1052                 1.0865
 Frc consts  --      6.4388                 6.5043                 6.4855
 IR Inten    --     29.0213                16.8762                11.9449

                    103                    104                    105
                      A                      A                      A
 Frequencies --   3188.0549              3190.5578              3194.9480
 Red. masses --      1.0871                 1.0871                 1.0877
 Frc consts  --      6.5098                 6.5199                 6.5418
 IR Inten    --      1.5947                 6.7935                 1.9747

                    106                    107                    108
                      A                      A                      A
 Frequencies --   3198.4819              3203.4672              3204.5698
 Red. masses --      1.0912                 1.0912                 1.0948
 Frc consts  --      6.5775                 6.5977                 6.6239
 IR Inten    --     14.7611                10.1288                54.2578

                    109                    110                    111
                      A                      A                      A
 Frequencies --   3211.8178              3216.9306              3222.0259
 Red. masses --      1.0951                 1.0986                 1.0989
 Frc consts  --      6.6558                 6.6984                 6.7214
 IR Inten    --     39.5991                22.3830                17.2257

                    112                    113                    114
                      A                      A                      A
 Frequencies --   3457.8039              3589.3085              3678.9932
 Red. masses --      1.0597                 1.0895                 1.0775
 Frc consts  --      7.4651                 8.2695                 8.5924
 IR Inten    --     87.6481                56.9744                66.5794

 - Thermochemistry -
 -------------------
 Temperature   298.150 Kelvin.  Pressure   1.00000 Atm.
 Atom     1 has atomic number  6 and mass  12.00000

 Molecular mass:   268.15756 amu.
 Principal axes and moments of inertia in atomic units:
                           1         2         3
     Eigenvalues --  4287.058376087.565608832.31981
           X            0.99997  -0.00713  -0.00011
           Y            0.00713   0.99994  -0.00807
           Z            0.00017   0.00806   0.99997
 This molecule is an asymmetric top.
 Rotational symmetry number  1.
 Warning -- assumption of classical behavior for rotation
           may cause significant error
 Rotational temperatures (Kelvin)      0.02020     0.01423     0.00981
 Rotational constants (GHZ):           0.42097     0.29646     0.20433
    1 imaginary frequencies ignored.
 Zero-point vibrational energy     890674.0 (Joules/Mol)
                                  212.87619 (Kcal/Mol)
 Warning -- explicit consideration of  27 degrees of freedom as
           vibrations may cause significant error
 Vibrational temperatures:     48.09    48.28    63.08    85.91    95.92
          (Kelvin)            106.96   128.57   135.12   145.35   185.75
                              201.84   257.56   273.25   322.25   368.82
                              385.57   410.19   449.91   518.79   576.55
                              598.33   605.34   616.26   705.65   749.58
                              816.07   851.10   908.71   917.33   937.86
                              998.66  1039.99  1047.95  1069.92  1136.66
                             1143.54  1152.05  1179.92  1258.22  1260.99
                             1262.12  1369.75  1374.90  1448.67  1453.17
                             1454.22  1461.78  1472.54  1473.65  1478.54
                             1481.60  1517.34  1526.35  1532.23  1565.21
                             1592.55  1599.02  1624.25  1660.57  1695.99
                             1697.88  1703.25  1735.06  1739.84  1742.14
                             1747.14  1771.13  1811.27  1876.02  1897.22
                             1914.43  1934.58  1951.62  1963.48  1995.14
                             2083.02  2092.28  2104.20  2121.40  2138.71
                             2143.42  2161.03  2165.14  2172.23  2216.33
                             2223.07  2230.24  2309.82  2357.43  2377.73
                             2382.23  2399.65  2416.20  4367.64  4408.27
                             4453.57  4504.53  4518.78  4532.96  4547.31
                             4579.54  4586.90  4590.50  4596.82  4601.90
                             4609.07  4610.66  4621.09  4628.45  4635.78
                             4975.01  5164.21  5293.25

 Zero-point correction=                           0.339240 (Hartree/Particle)
 Thermal correction to Energy=                    0.358601
 Thermal correction to Enthalpy=                  0.359546
 Thermal correction to Gibbs Free Energy=         0.289558
 Sum of electronic and zero-point Energies=           -844.252133
 Sum of electronic and thermal Energies=              -844.232772
 Sum of electronic and thermal Enthalpies=            -844.231828
 Sum of electronic and thermal Free Energies=         -844.301815

                     E (Thermal)             CV                S
                      KCal/Mol        Cal/Mol-Kelvin    Cal/Mol-Kelvin
 Total                  225.026             71.857            147.300
 Electronic               0.000              0.000              0.000
 Translational            0.889              2.981             42.658
 Rotational               0.889              2.981             33.799
 Vibrational            223.248             65.896             70.843
 Vibration     1          0.594              1.983              5.615
 Vibration     2          0.594              1.983              5.607
 Vibration     3          0.595              1.980              5.077
 Vibration     4          0.597              1.974              4.467
 Vibration     5          0.598              1.970              4.249
 Vibration     6          0.599              1.966              4.035
 Vibration     7          0.602              1.957              3.674
 Vibration     8          0.603              1.954              3.577
 Vibration     9          0.604              1.948              3.435
 Vibration    10          0.612              1.924              2.959
 Vibration    11          0.615              1.913              2.800
 Vibration    12          0.629              1.868              2.339
 Vibration    13          0.633              1.854              2.229
 Vibration    14          0.649              1.805              1.927
 Vibration    15          0.666              1.752              1.687
 Vibration    16          0.673              1.732              1.609
 Vibration    17          0.683              1.701              1.503
 Vibration    18          0.701              1.649              1.348
 Vibration    19          0.735              1.553              1.120
 Vibration    20          0.767              1.469              0.960
 Vibration    21          0.779              1.436              0.906
 Vibration    22          0.783              1.425              0.889
 Vibration    23          0.790              1.409              0.864
 Vibration    24          0.846              1.271              0.682
 Vibration    25          0.876              1.204              0.608
 Vibration    26          0.923              1.102              0.510
 Vibration    27          0.949              1.050              0.464

 Optimization completed.
    -- Stationary point found.
 Normal termination of Gaussian 16 at Sun Jan 31 19:39:08 2021.
