 Gaussian 16, Revision A.03,
 Gaussian 16:  ES64L-G16RevA.03 25-Dec-2016

 ----------------------------------------------------------------------
 # wB97XD def2tzvp, opt=(ts, noeigen, calcfc, maxcycles=70, maxstep=1),
  freq=noraman, scrf=(iefpcm, solvent=water)
 ----------------------------------------------------------------------

 ------------------------
 0_iteration/TS-459-0.out
 ------------------------
 Symbolic Z-matrix:
 Charge =  0 Multiplicity = 1

 SCF Done:  E(RwB97XD) =  -421.803084672     A.U. after   14 cycles
 SCF Done:  E(RwB97XD) =  -421.803012332     A.U. after   10 cycles
 SCF Done:  E(RwB97XD) =  -421.802943927     A.U. after   10 cycles
 SCF Done:  E(RwB97XD) =  -421.802879452     A.U. after   10 cycles
 SCF Done:  E(RwB97XD) =  -421.802818916     A.U. after   10 cycles
 SCF Done:  E(RwB97XD) =  -421.802762331     A.U. after   10 cycles
 SCF Done:  E(RwB97XD) =  -421.802709711     A.U. after   10 cycles
 SCF Done:  E(RwB97XD) =  -421.802661066     A.U. after   10 cycles
 SCF Done:  E(RwB97XD) =  -421.802616405     A.U. after   10 cycles
 SCF Done:  E(RwB97XD) =  -421.802575737     A.U. after   10 cycles
 SCF Done:  E(RwB97XD) =  -421.803111826     A.U. after   10 cycles
 SCF Done:  E(RwB97XD) =  -421.803112368     A.U. after   11 cycles
 SCF Done:  E(RwB97XD) =  -421.803112984     A.U. after   10 cycles
 SCF Done:  E(RwB97XD) =  -421.803112909     A.U. after   10 cycles
 SCF Done:  E(RwB97XD) =  -421.803112314     A.U. after   10 cycles
 SCF Done:  E(RwB97XD) =  -421.803113411     A.U. after   11 cycles
 SCF Done:  E(RwB97XD) =  -421.803113553     A.U. after   10 cycles
 SCF Done:  E(RwB97XD) =  -421.803113383     A.U. after   10 cycles
 SCF Done:  E(RwB97XD) =  -421.803113493     A.U. after    9 cycles
 Optimization completed.
    -- Stationary point found.
 Normal termination of Gaussian 16 at Sat Feb 13 08:35:04 2021.

 ---------------------------------------------------------------------
 #N Geom=AllCheck Guess=TCheck SCRF=Check GenChk RwB97XD/def2TZVP Freq
 ---------------------------------------------------------------------

 Structure from the checkpoint file:  "/beegfs/scratch/user/q/tla25/Gau-52661.chk"
 ------------------------
 0_iteration/TS-459-0.out
 ------------------------
 Charge =  0 Multiplicity = 1

                         Standard orientation:
 ---------------------------------------------------------------------
 Center     Atomic      Atomic             Coordinates (Angstroms)
 Number     Number       Type             X           Y           Z
 ---------------------------------------------------------------------
      1          6           0        0.694342    0.519876    0.024633
      2          6           0        1.711091   -0.468536    0.070533
      3          8           0        2.887239   -0.292040   -0.316438
      4          6           0       -0.607241    0.275519    0.532083
      5          6           0       -2.909008   -1.080428   -0.358176
      6          1           0       -2.704801   -1.785129    0.446504
      7          1           0       -3.597676   -0.319573   -0.000137
      8          1           0       -3.366642   -1.610677   -1.192473
      9          7           0       -1.649895   -0.445864   -0.762096
     10          1           0       -1.029043   -1.112096   -1.208035
     11          1           0       -1.809910    0.297319   -1.434184
     12          6           0       -1.449347    1.448651    0.974557
     13          1           0       -2.438545    1.140799    1.311023
     14          1           0       -0.949641    1.938829    1.811459
     15          1           0       -1.562488    2.187106    0.180073
     16          1           0       -0.694559   -0.558725    1.224697
     17          6           0        1.005553    1.845075   -0.624067
     18          1           0        0.968569    2.687088    0.077275
     19          1           0        2.009336    1.816347   -1.045000
     20          1           0        0.315415    2.090955   -1.440528
     21          7           0        1.430620   -1.722898    0.635413
     22          1           0        2.128793   -2.407577    0.395326
     23          1           0        0.495867   -2.087958    0.574907
 ---------------------------------------------------------------------

 SCF Done:  E(RwB97XD) =  -421.803113493     A.U. after    1 cycles

 The electronic state is 1-A.
 Alpha  occ. eigenvalues --  -19.17613 -14.49695 -14.41940 -10.35180 -10.33404
 Alpha  occ. eigenvalues --  -10.32320 -10.27836 -10.25679 -10.23455  -1.09691
 Alpha  occ. eigenvalues --   -1.05102  -0.96848  -0.89862  -0.81872  -0.79778
 Alpha  occ. eigenvalues --   -0.75421  -0.68875  -0.63975  -0.61641  -0.60414
 Alpha  occ. eigenvalues --   -0.57182  -0.55537  -0.54749  -0.50438  -0.49857
 Alpha  occ. eigenvalues --   -0.48577  -0.48217  -0.47619  -0.46518  -0.45537
 Alpha  occ. eigenvalues --   -0.43270  -0.42567  -0.41959  -0.34104  -0.31598
 Alpha  occ. eigenvalues --   -0.24588
 Alpha virt. eigenvalues --    0.08619   0.09509   0.12161   0.13459   0.14394
 Alpha virt. eigenvalues --    0.16364   0.16865   0.17368   0.18343   0.18781
 Alpha virt. eigenvalues --    0.19340   0.19797   0.21637   0.21818   0.22705

 Mulliken charges:
               1
     1  C   -0.141362
     2  C    0.254608
     3  O   -0.592929
     4  C   -0.166254
     5  C   -0.289244
     6  H    0.155006
     7  H    0.157825
     8  H    0.160919
     9  N   -0.241488
    10  H    0.279424
    11  H    0.287398
    12  C   -0.362831
    13  H    0.140480
    14  H    0.145469
    15  H    0.140385
    16  H    0.148555
    17  C   -0.414282
    18  H    0.112735
    19  H    0.125337
    20  H    0.109705
    21  N   -0.506038
    22  H    0.246470
    23  H    0.250113
 Sum of Mulliken charges =  -0.00000

 Dipole moment (field-independent basis, Debye):
    X=            -13.3887    Y=             -2.7481    Z=             -1.6603  Tot=             13.7683
 Quadrupole moment (field-independent basis, Debye-Ang):
   XX=            -68.7839   YY=            -50.1725   ZZ=            -56.1537
   XY=              2.0433   XZ=              4.8908   YZ=              1.8905

  Exact polarizability: 169.477  -1.591 127.220  -1.516  -2.301 104.728
 Approx polarizability: 126.692  -0.135 101.092  -1.857  -1.758  90.038

 ******    1 imaginary frequencies (negative Signs) ******

                      1                      2                      3
                      A                      A                      A
 Frequencies --   -368.6527                44.7132                60.3190
 Red. masses --      6.1519                 1.7462                 2.4260
 Frc consts  --      0.4926                 0.0021                 0.0052
 IR Inten    --    974.6977                 5.3694                 2.1324

                      4                      5                      6
                      A                      A                      A
 Frequencies --     98.8620               122.2119               157.5331
 Red. masses --      3.3508                 1.2417                 3.1025
 Frc consts  --      0.0193                 0.0109                 0.0454
 IR Inten    --      5.1482                 0.9069                 5.7371

                      7                      8                      9
                      A                      A                      A
 Frequencies --    177.6609               228.9121               244.8393
 Red. masses --      1.2465                 2.5865                 1.3914
 Frc consts  --      0.0232                 0.0799                 0.0491
 IR Inten    --      1.5352                 8.2035                 4.6517

                     10                     11                     12
                      A                      A                      A
 Frequencies --    262.1345               313.3100               357.0617
 Red. masses --      2.0331                 2.5061                 2.7012
 Frc consts  --      0.0823                 0.1449                 0.2029
 IR Inten    --      3.8978                 8.8963                16.7519

                     13                     14                     15
                      A                      A                      A
 Frequencies --    396.0096               441.0577               483.6367
 Red. masses --      1.1979                 2.8554                 2.5727
 Frc consts  --      0.1107                 0.3273                 0.3546
 IR Inten    --     90.0249                50.4344               213.7043

                     16                     17                     18
                      A                      A                      A
 Frequencies --    516.1428               543.7671               631.0126
 Red. masses --      1.9985                 2.1246                 3.0595
 Frc consts  --      0.3137                 0.3701                 0.7178
 IR Inten    --    207.9353                73.3192                36.8221

                     19                     20                     21
                      A                      A                      A
 Frequencies --    717.2825               762.1453               794.7438
 Red. masses --      1.3376                 3.0612                 5.7111
 Frc consts  --      0.4055                 1.0476                 2.1253
 IR Inten    --     27.2648                10.7602                56.0493

                     22                     23                     24
                      A                      A                      A
 Frequencies --    947.1465               994.0013              1017.1129
 Red. masses --      1.6116                 1.3335                 1.3831
 Frc consts  --      0.8518                 0.7762                 0.8430
 IR Inten    --     81.2812                15.2954                 9.9176

                     25                     26                     27
                      A                      A                      A
 Frequencies --   1044.6106              1050.0471              1065.6452
 Red. masses --      1.8486                 1.6842                 1.3951
 Frc consts  --      1.1885                 1.0941                 0.9334
 IR Inten    --     45.8287                56.0187                20.9339

                     28                     29                     30
                      A                      A                      A
 Frequencies --   1079.9425              1102.7903              1133.1321
 Red. masses --      1.6811                 1.7039                 2.1284
 Frc consts  --      1.1552                 1.2209                 1.6102
 IR Inten    --    168.0446               121.1636                53.2159

                     31                     32                     33
                      A                      A                      A
 Frequencies --   1199.5521              1239.1024              1265.1009
 Red. masses --      1.9510                 1.1581                 1.3840
 Frc consts  --      1.6540                 1.0476                 1.3051
 IR Inten    --     25.9283               215.9254                25.9863

                     34                     35                     36
                      A                      A                      A
 Frequencies --   1318.1458              1344.1923              1393.1958
 Red. masses --      1.7753                 1.2943                 1.3171
 Frc consts  --      1.8174                 1.3779                 1.5063
 IR Inten    --    104.2819                 0.3938                44.7940

                     37                     38                     39
                      A                      A                      A
 Frequencies --   1415.8032              1425.6640              1453.9510
 Red. masses --      1.2512                 4.9220                 1.5357
 Frc consts  --      1.4777                 5.8942                 1.9128
 IR Inten    --     21.5954               199.6541               161.3288

                     40                     41                     42
                      A                      A                      A
 Frequencies --   1470.8098              1484.3223              1488.8954
 Red. masses --      1.3271                 1.0704                 1.1030
 Frc consts  --      1.6915                 1.3894                 1.4406
 IR Inten    --     59.8628                22.9915                 5.8984

                     43                     44                     45
                      A                      A                      A
 Frequencies --   1493.9263              1496.1292              1504.5611
 Red. masses --      1.0452                 1.0722                 1.1069
 Frc consts  --      1.3743                 1.4141                 1.4763
 IR Inten    --     27.3638                 4.4522                77.6339

                     46                     47                     48
                      A                      A                      A
 Frequencies --   1512.8077              1602.9436              1637.5682
 Red. masses --      1.1221                 5.0369                 1.2111
 Frc consts  --      1.5130                 7.6252                 1.9136
 IR Inten    --     32.5923              1194.9853               237.5817

                     49                     50                     51
                      A                      A                      A
 Frequencies --   1647.6865              3000.1795              3034.0818
 Red. masses --      1.0969                 1.0426                 1.1007
 Frc consts  --      1.7546                 5.5291                 5.9697
 IR Inten    --     41.2995               129.0919                78.8092

                     52                     53                     54
                      A                      A                      A
 Frequencies --   3064.5261              3077.6764              3127.6151
 Red. masses --      1.0363                 1.0336                 1.0917
 Frc consts  --      5.7343                 5.7684                 6.2920
 IR Inten    --     21.3823                38.0777                 9.2867

                     55                     56                     57
                      A                      A                      A
 Frequencies --   3135.7872              3138.1505              3151.2172
 Red. masses --      1.0934                 1.0994                 1.1015
 Frc consts  --      6.3347                 6.3790                 6.4446
 IR Inten    --     18.1701                25.5438                53.3076

                     58                     59                     60
                      A                      A                      A
 Frequencies --   3156.5837              3179.7594              3517.2518
 Red. masses --      1.1060                 1.1051                 1.0518
 Frc consts  --      6.4932                 6.5835                 7.6661
 IR Inten    --     12.0622                12.4556                21.4151

                     61                     62                     63
                      A                      A                      A
 Frequencies --   3592.8990              3605.9863              3710.3368
 Red. masses --      1.0959                 1.0481                 1.0980
 Frc consts  --      8.3351                 8.0300                 8.9058
 IR Inten    --     48.0983                20.1527                23.0573

 - Thermochemistry -
 -------------------
 Temperature   298.150 Kelvin.  Pressure   1.00000 Atm.
 Atom     1 has atomic number  6 and mass  12.00000

 Molecular mass:   130.11061 amu.
 Principal axes and moments of inertia in atomic units:
                           1         2         3
     Eigenvalues --   810.885541754.129602194.26396
           X            0.99983   0.01839  -0.00190
           Y           -0.01839   0.99983  -0.00087
           Z            0.00189   0.00091   1.00000
 This molecule is an asymmetric top.
 Rotational symmetry number  1.
 Warning -- assumption of classical behavior for rotation
           may cause significant error
 Rotational temperatures (Kelvin)      0.10681     0.04938     0.03947
 Rotational constants (GHZ):           2.22564     1.02885     0.82248
    1 imaginary frequencies ignored.
 Zero-point vibrational energy     536370.8 (Joules/Mol)
                                  128.19569 (Kcal/Mol)
 Warning -- explicit consideration of  16 degrees of freedom as
           vibrations may cause significant error
 Vibrational temperatures:     64.33    86.79   142.24   175.84   226.66
          (Kelvin)            255.61   329.35   352.27   377.15   450.78
                              513.73   569.77   634.58   695.85   742.61
                              782.36   907.89  1032.01  1096.56  1143.46
                             1362.73  1430.15  1463.40  1502.96  1510.78
                             1533.23  1553.80  1586.67  1630.32  1725.89
                             1782.79  1820.20  1896.52  1933.99  2004.50
                             2037.03  2051.21  2091.91  2116.17  2135.61
                             2142.19  2149.43  2152.60  2164.73  2176.59
                             2306.28  2356.10  2370.65  4316.59  4365.37
                             4409.17  4428.09  4499.94  4511.70  4515.10
                             4533.90  4541.62  4574.96  5060.54  5169.38
                             5188.21  5338.35

 Zero-point correction=                           0.204293 (Hartree/Particle)
 Thermal correction to Energy=                    0.215742
 Thermal correction to Enthalpy=                  0.216686
 Thermal correction to Gibbs Free Energy=         0.166978
 Sum of electronic and zero-point Energies=           -421.598821
 Sum of electronic and thermal Energies=              -421.587372
 Sum of electronic and thermal Enthalpies=            -421.586428
 Sum of electronic and thermal Free Energies=         -421.636135

                     E (Thermal)             CV                S
                      KCal/Mol        Cal/Mol-Kelvin    Cal/Mol-Kelvin
 Total                  135.380             40.600            104.619
 Electronic               0.000              0.000              0.000
 Translational            0.889              2.981             40.503
 Rotational               0.889              2.981             29.524
 Vibrational            133.603             34.638             34.592
 Vibration     1          0.595              1.980              5.038
 Vibration     2          0.597              1.973              4.447
 Vibration     3          0.604              1.950              3.477
 Vibration     4          0.610              1.931              3.065
 Vibration     5          0.621              1.894              2.579
 Vibration     6          0.628              1.870              2.353
 Vibration     7          0.652              1.797              1.887
 Vibration     8          0.660              1.771              1.767
 Vibration     9          0.669              1.742              1.648
 Vibration    10          0.701              1.648              1.345
 Vibration    11          0.732              1.561              1.135
 Vibration    12          0.763              1.479              0.977
 Vibration    13          0.801              1.381              0.823
 Vibration    14          0.840              1.286              0.700
 Vibration    15          0.871              1.214              0.619
 Vibration    16          0.899              1.153              0.557

 Optimization completed.
    -- Stationary point found.
 Normal termination of Gaussian 16 at Sat Feb 13 08:47:44 2021.
