 Gaussian 16, Revision A.03,
 Gaussian 16:  ES64L-G16RevA.03 25-Dec-2016

 ----------------------------------------------------------------------
 # wB97XD def2tzvp, opt=(ts, noeigen, calcfc, maxcycles=70, maxstep=1),
  freq=noraman, scrf=(iefpcm, solvent=water)
 ----------------------------------------------------------------------

 ------------------------
 0_iteration/TS-467-0.out
 ------------------------
 Symbolic Z-matrix:
 Charge =  0 Multiplicity = 1

 SCF Done:  E(RwB97XD) =  -2956.11355932     A.U. after   15 cycles
 SCF Done:  E(RwB97XD) =  -2956.11353784     A.U. after   10 cycles
 SCF Done:  E(RwB97XD) =  -2956.11352138     A.U. after   10 cycles
 SCF Done:  E(RwB97XD) =  -2956.11350844     A.U. after   10 cycles
 SCF Done:  E(RwB97XD) =  -2956.11349985     A.U. after   10 cycles
 SCF Done:  E(RwB97XD) =  -2956.11349680     A.U. after   10 cycles
 SCF Done:  E(RwB97XD) =  -2956.11350479     A.U. after   11 cycles
 SCF Done:  E(RwB97XD) =  -2956.11352560     A.U. after   10 cycles
 SCF Done:  E(RwB97XD) =  -2956.11355161     A.U. after   10 cycles
 SCF Done:  E(RwB97XD) =  -2956.11357640     A.U. after   10 cycles
 SCF Done:  E(RwB97XD) =  -2956.11359726     A.U. after   10 cycles
 SCF Done:  E(RwB97XD) =  -2956.11361361     A.U. after   10 cycles
 SCF Done:  E(RwB97XD) =  -2956.11362523     A.U. after   10 cycles
 SCF Done:  E(RwB97XD) =  -2956.11363193     A.U. after   10 cycles
 SCF Done:  E(RwB97XD) =  -2956.11363339     A.U. after   10 cycles
 SCF Done:  E(RwB97XD) =  -2956.11363342     A.U. after    8 cycles
 Optimization completed.
    -- Stationary point found.
 Normal termination of Gaussian 16 at Sat Feb 13 07:09:01 2021.

 ---------------------------------------------------------------------
 #N Geom=AllCheck Guess=TCheck SCRF=Check GenChk RwB97XD/def2TZVP Freq
 ---------------------------------------------------------------------

 Structure from the checkpoint file:  "/beegfs/scratch/user/q/tla25/Gau-60589.chk"
 ------------------------
 0_iteration/TS-467-0.out
 ------------------------
 Charge =  0 Multiplicity = 1

                         Standard orientation:
 ---------------------------------------------------------------------
 Center     Atomic      Atomic             Coordinates (Angstroms)
 Number     Number       Type             X           Y           Z
 ---------------------------------------------------------------------
      1          6           0        0.148000    0.306650   -0.451012
      2          6           0        0.492726    1.678693   -0.215912
      3          8           0       -0.328715    2.590074   -0.432317
      4          6           0       -1.112401   -0.012743   -0.958281
      5          6           0       -2.164879   -0.352236    1.643252
      6          1           0       -1.121467   -0.181554    1.907146
      7          1           0       -2.800354    0.025157    2.444667
      8          1           0       -2.331783   -1.421620    1.528938
      9          7           0       -2.433404    0.319515    0.377070
     10          1           0       -3.366120    0.125286    0.031532
     11          1           0       -2.326362    1.324667    0.465177
     12          6           0       -1.471158   -1.397518   -1.410603
     13          1           0       -0.839716   -1.669373   -2.258505
     14          1           0       -1.305075   -2.135986   -0.626773
     15          1           0       -2.510649   -1.446963   -1.730987
     16          1           0       -1.517626    0.778089   -1.579792
     17         35           0        1.311568   -1.083026    0.184499
     18          7           0        1.724937    1.990329    0.287013
     19          1           0        2.471420    1.319148    0.255880
     20          1           0        1.978103    2.962465    0.270552
 ---------------------------------------------------------------------

 SCF Done:  E(RwB97XD) =  -2956.11363342     A.U. after    1 cycles

 The electronic state is 1-A.
 Alpha  occ. eigenvalues -- -483.11986 -62.66822 -56.45915 -56.45598 -56.45586
 Alpha  occ. eigenvalues --  -19.19656 -14.47777 -14.43451 -10.37653 -10.33871
 Alpha  occ. eigenvalues --  -10.31439 -10.29341 -10.28218  -8.80938  -6.63016
 Alpha  occ. eigenvalues --   -6.62004  -6.61965  -2.73418  -2.73127  -2.73094
 Alpha  occ. eigenvalues --   -2.72276  -2.72276  -1.12031  -1.03380  -0.99011
 Alpha  occ. eigenvalues --   -0.92203  -0.85950  -0.79367  -0.78501  -0.70839
 Alpha  occ. eigenvalues --   -0.63371  -0.62576  -0.60845  -0.57897  -0.56359
 Alpha  occ. eigenvalues --   -0.53989  -0.51518  -0.49859  -0.49233  -0.49090
 Alpha  occ. eigenvalues --   -0.47396  -0.46716  -0.43323  -0.41369  -0.39115
 Alpha  occ. eigenvalues --   -0.37537  -0.34929  -0.33403  -0.26412
 Alpha virt. eigenvalues --    0.06785   0.09008   0.10358   0.13292   0.13867
 Alpha virt. eigenvalues --    0.14896   0.16252   0.16815   0.18019   0.18549
 Alpha virt. eigenvalues --    0.18994   0.20096   0.20614   0.22273   0.23546

 Mulliken charges:
               1
     1  C   -0.253465
     2  C    0.319654
     3  O   -0.570924
     4  C    0.027859
     5  C   -0.300895
     6  H    0.152226
     7  H    0.153472
     8  H    0.154483
     9  N   -0.323862
    10  H    0.280889
    11  H    0.278384
    12  C   -0.366451
    13  H    0.151014
    14  H    0.139815
    15  H    0.141580
    16  H    0.152767
    17  Br  -0.183636
    18  N   -0.482498
    19  H    0.265324
    20  H    0.264266
 Sum of Mulliken charges =  -0.00000

 Dipole moment (field-independent basis, Debye):
    X=             -4.9749    Y=             -2.6661    Z=              1.3481  Tot=              5.8030
 Quadrupole moment (field-independent basis, Debye-Ang):
   XX=            -46.2692   YY=            -77.5961   ZZ=            -66.9722
   XY=              7.4606   XZ=             -1.5561   YZ=              3.3776

  Exact polarizability: 165.706   3.372 146.736   4.456  -0.697 114.384
 Approx polarizability: 130.225  -2.774 119.709   5.009  -1.841  97.840

 ******    1 imaginary frequencies (negative Signs) ******

                      1                      2                      3
                      A                      A                      A
 Frequencies --   -386.3577                45.5975                63.5742
 Red. masses --      5.3012                 2.6829                 3.1371
 Frc consts  --      0.4662                 0.0033                 0.0075
 IR Inten    --    774.4209                 0.3031                13.5085

                      4                      5                      6
                      A                      A                      A
 Frequencies --     94.2467               121.3421               178.2708
 Red. masses --      4.2908                 3.4519                 3.3520
 Frc consts  --      0.0225                 0.0299                 0.0628
 IR Inten    --     25.4302                29.4969                 2.7106

                      7                      8                      9
                      A                      A                      A
 Frequencies --    192.1761               199.3414               224.3140
 Red. masses --      2.5651                 1.5152                 1.4485
 Frc consts  --      0.0558                 0.0355                 0.0429
 IR Inten    --      2.4204                 8.5410                 1.0082

                     10                     11                     12
                      A                      A                      A
 Frequencies --    246.1352               295.6945               312.6693
 Red. masses --      1.9762                 2.2994                 1.3587
 Frc consts  --      0.0705                 0.1185                 0.0783
 IR Inten    --      9.4485                55.6635               318.0628

                     13                     14                     15
                      A                      A                      A
 Frequencies --    387.0222               418.5861               460.7416
 Red. masses --      8.0510                 3.4721                 2.2832
 Frc consts  --      0.7105                 0.3584                 0.2856
 IR Inten    --     22.4354                13.1738                67.4415

                     16                     17                     18
                      A                      A                      A
 Frequencies --    509.8744               579.6794               649.5455
 Red. masses --      1.2564                 2.7486                 3.0601
 Frc consts  --      0.1924                 0.5442                 0.7607
 IR Inten    --     13.1060                 0.3201                53.8457

                     19                     20                     21
                      A                      A                      A
 Frequencies --    700.6425               778.9728               948.8259
 Red. masses --      1.6506                 8.6713                 1.5512
 Frc consts  --      0.4774                 3.1001                 0.8228
 IR Inten    --     52.4930                38.2658                20.5327

                     22                     23                     24
                      A                      A                      A
 Frequencies --    997.9878              1012.2159              1024.5326
 Red. masses --      1.3551                 1.2662                 1.8082
 Frc consts  --      0.7952                 0.7643                 1.1183
 IR Inten    --     37.2065                16.6226               169.7630

                     25                     26                     27
                      A                      A                      A
 Frequencies --   1056.9236              1071.8380              1090.4403
 Red. masses --      2.0644                 2.1621                 1.6434
 Frc consts  --      1.3587                 1.4635                 1.1514
 IR Inten    --     33.6968                78.0711                20.7527

                     28                     29                     30
                      A                      A                      A
 Frequencies --   1151.6625              1214.1115              1221.6631
 Red. masses --      2.6234                 1.4728                 1.3611
 Frc consts  --      2.0500                 1.2791                 1.1969
 IR Inten    --     27.5716                97.6282                55.2636

                     31                     32                     33
                      A                      A                      A
 Frequencies --   1269.6422              1350.5809              1401.8312
 Red. masses --      1.2516                 1.3124                 2.9651
 Frc consts  --      1.1887                 1.4104                 3.4330
 IR Inten    --     40.8861                 5.5646               271.1549

                     34                     35                     36
                      A                      A                      A
 Frequencies --   1411.5583              1452.5527              1466.6971
 Red. masses --      1.4513                 1.5091                 1.4312
 Frc consts  --      1.7037                 1.8760                 1.8140
 IR Inten    --    158.4097               249.9637               216.8229

                     37                     38                     39
                      A                      A                      A
 Frequencies --   1485.4498              1491.8933              1497.1294
 Red. masses --      1.0581                 1.0878                 1.3726
 Frc consts  --      1.3756                 1.4265                 1.8126
 IR Inten    --     18.6065                41.8324               218.2120

                     40                     41                     42
                      A                      A                      A
 Frequencies --   1508.6213              1586.6033              1631.8510
 Red. masses --      1.0341                 1.7074                 2.5201
 Frc consts  --      1.3867                 2.5323                 3.9540
 IR Inten    --      8.2371               363.1371               549.9525

                     43                     44                     45
                      A                      A                      A
 Frequencies --   1650.5581              3066.4762              3067.2675
 Red. masses --      1.1561                 1.0348                 1.0353
 Frc consts  --      1.8557                 5.7328                 5.7386
 IR Inten    --      2.0863                29.9909                24.2850

                     46                     47                     48
                      A                      A                      A
 Frequencies --   3138.3691              3142.7021              3152.2212
 Red. masses --      1.1004                 1.1045                 1.1018
 Frc consts  --      6.3859                 6.4274                 6.4504
 IR Inten    --     18.3887                14.7918                17.6034

                     49                     50                     51
                      A                      A                      A
 Frequencies --   3162.9088              3174.4107              3512.2317
 Red. masses --      1.1054                 1.0910                 1.0510
 Frc consts  --      6.5154                 6.4774                 7.6389
 IR Inten    --     16.2437                19.1808                29.2659

                     52                     53                     54
                      A                      A                      A
 Frequencies --   3597.9192              3617.7558              3739.9292
 Red. masses --      1.0964                 1.0460                 1.1035
 Frc consts  --      8.3622                 8.0662                 9.0938
 IR Inten    --     58.6431                63.9295                77.8581

 - Thermochemistry -
 -------------------
 Temperature   298.150 Kelvin.  Pressure   1.00000 Atm.
 Atom     1 has atomic number  6 and mass  12.00000

 Molecular mass:   194.00547 amu.
 Principal axes and moments of inertia in atomic units:
                           1         2         3
     Eigenvalues --  1550.139801868.833142688.30290
           X            0.94684   0.32140  -0.01398
           Y           -0.32090   0.94666   0.02930
           Z            0.02265  -0.02326   0.99947
 This molecule is an asymmetric top.
 Rotational symmetry number  1.
 Warning -- assumption of classical behavior for rotation
           may cause significant error
 Rotational temperatures (Kelvin)      0.05587     0.04635     0.03222
 Rotational constants (GHZ):           1.16424     0.96570     0.67133
    1 imaginary frequencies ignored.
 Zero-point vibrational energy     435594.9 (Joules/Mol)
                                  104.10969 (Kcal/Mol)
 Warning -- explicit consideration of  16 degrees of freedom as
           vibrations may cause significant error
 Vibrational temperatures:     65.60    91.47   135.60   174.58   256.49
          (Kelvin)            276.50   286.81   322.74   354.13   425.44
                              449.86   556.84   602.25   662.90   733.60
                              834.03   934.55  1008.07  1120.77  1365.15
                             1435.88  1456.35  1474.07  1520.68  1542.14
                             1568.90  1656.99  1746.84  1757.70  1826.73
                             1943.18  2016.92  2030.92  2089.90  2110.25
                             2137.23  2146.50  2154.04  2170.57  2282.77
                             2347.87  2374.78  4411.98  4413.11  4515.41
                             4521.65  4535.34  4550.72  4567.27  5053.32
                             5176.60  5205.14  5380.92

 Zero-point correction=                           0.165909 (Hartree/Particle)
 Thermal correction to Energy=                    0.177360
 Thermal correction to Enthalpy=                  0.178304
 Thermal correction to Gibbs Free Energy=         0.127522
 Sum of electronic and zero-point Energies=          -2955.947724
 Sum of electronic and thermal Energies=             -2955.936273
 Sum of electronic and thermal Enthalpies=           -2955.935329
 Sum of electronic and thermal Free Energies=        -2955.986111

                     E (Thermal)             CV                S
                      KCal/Mol        Cal/Mol-Kelvin    Cal/Mol-Kelvin
 Total                  111.295             39.461            106.881
 Electronic               0.000              0.000              0.000
 Translational            0.889              2.981             41.693
 Rotational               0.889              2.981             30.433
 Vibrational            109.518             33.500             34.754
 Vibration     1          0.595              1.979              5.000
 Vibration     2          0.597              1.972              4.343
 Vibration     3          0.603              1.953              3.570
 Vibration     4          0.609              1.931              3.079
 Vibration     5          0.629              1.869              2.346
 Vibration     6          0.634              1.851              2.207
 Vibration     7          0.637              1.841              2.139
 Vibration     8          0.649              1.804              1.924
 Vibration     9          0.661              1.769              1.758
 Vibration    10          0.690              1.682              1.441
 Vibration    11          0.701              1.650              1.348
 Vibration    12          0.755              1.498              1.012
 Vibration    13          0.781              1.430              0.897
 Vibration    14          0.819              1.337              0.764
 Vibration    15          0.865              1.228              0.634
 Vibration    16          0.936              1.075              0.486

 Optimization completed.
    -- Stationary point found.
 Normal termination of Gaussian 16 at Sat Feb 13 07:20:44 2021.
