 Gaussian 16, Revision A.03,
 Gaussian 16:  ES64L-G16RevA.03 25-Dec-2016

 ----------------------------------------------------------------------
 # wB97XD def2tzvp, opt=(ts, noeigen, calcfc, maxcycles=70, maxstep=1),
  freq=noraman, scrf=(iefpcm, solvent=water)
 ----------------------------------------------------------------------

 ------------------------
 0_iteration/TS-441-0.out
 ------------------------
 Symbolic Z-matrix:
 Charge =  0 Multiplicity = 1

 SCF Done:  E(RwB97XD) =  -558.164447548     A.U. after   15 cycles
 SCF Done:  E(RwB97XD) =  -558.164395079     A.U. after   10 cycles
 SCF Done:  E(RwB97XD) =  -558.164346175     A.U. after   10 cycles
 SCF Done:  E(RwB97XD) =  -558.164300745     A.U. after   10 cycles
 SCF Done:  E(RwB97XD) =  -558.164258692     A.U. after   10 cycles
 SCF Done:  E(RwB97XD) =  -558.164220092     A.U. after   10 cycles
 SCF Done:  E(RwB97XD) =  -558.164185021     A.U. after   10 cycles
 SCF Done:  E(RwB97XD) =  -558.164153575     A.U. after   10 cycles
 SCF Done:  E(RwB97XD) =  -558.164125806     A.U. after   10 cycles
 SCF Done:  E(RwB97XD) =  -558.164101756     A.U. after   10 cycles
 SCF Done:  E(RwB97XD) =  -558.164187233     A.U. after   11 cycles
 SCF Done:  E(RwB97XD) =  -558.164188499     A.U. after   10 cycles
 SCF Done:  E(RwB97XD) =  -558.164183369     A.U. after   10 cycles
 SCF Done:  E(RwB97XD) =  -558.164186599     A.U. after   10 cycles
 SCF Done:  E(RwB97XD) =  -558.164189223     A.U. after   10 cycles
 SCF Done:  E(RwB97XD) =  -558.164189402     A.U. after    7 cycles
 SCF Done:  E(RwB97XD) =  -558.164189379     A.U. after    9 cycles
 SCF Done:  E(RwB97XD) =  -558.164189469     A.U. after    7 cycles
 SCF Done:  E(RwB97XD) =  -558.164189478     A.U. after    6 cycles
 Optimization completed.
    -- Stationary point found.
 Normal termination of Gaussian 16 at Sat Feb 13 13:10:49 2021.

 ---------------------------------------------------------------------
 #N Geom=AllCheck Guess=TCheck SCRF=Check GenChk RwB97XD/def2TZVP Freq
 ---------------------------------------------------------------------

 Structure from the checkpoint file:  "/beegfs/scratch/user/q/tla25/Gau-12887.chk"
 ------------------------
 0_iteration/TS-441-0.out
 ------------------------
 Charge =  0 Multiplicity = 1

                         Standard orientation:
 ---------------------------------------------------------------------
 Center     Atomic      Atomic             Coordinates (Angstroms)
 Number     Number       Type             X           Y           Z
 ---------------------------------------------------------------------
      1          6           0        0.654876    0.277786    0.716902
      2          6           0        1.110777    1.551244    1.128307
      3          8           0        0.463757    2.603096    1.204402
      4          6           0        1.585778   -0.771882    0.697782
      5          6           0        2.895228    0.398956   -1.521595
      6          1           0        3.165729    0.392620   -2.577412
      7          1           0        2.127179    1.154619   -1.354277
      8          1           0        3.770116    0.655951   -0.926799
      9          7           0        2.380254   -0.889847   -1.082287
     10          1           0        1.628717   -1.210923   -1.681749
     11          1           0        3.101425   -1.601324   -1.080550
     12          6           0        1.184726   -2.214388    0.830702
     13          1           0        0.362164   -2.470848    0.163123
     14          1           0        2.022043   -2.884287    0.638813
     15          1           0        0.846289   -2.389490    1.853747
     16          1           0        2.533500   -0.535139    1.173793
     17          6           0       -0.739104    0.101320    0.232342
     18          6           0       -1.673111   -0.654836    0.940852
     19          6           0       -2.968900   -0.820608    0.472188
     20          6           0       -3.362071   -0.222946   -0.716662
     21          6           0       -2.449053    0.541016   -1.430503
     22          6           0       -1.153785    0.697942   -0.959615
     23          1           0       -1.379412   -1.116106    1.876119
     24          1           0       -3.674553   -1.414284    1.040480
     25          1           0       -4.373139   -0.349285   -1.083189
     26          1           0       -2.745509    1.013545   -2.359056
     27          1           0       -0.446618    1.294722   -1.523683
     28          1           0        2.178075    1.562770    1.437237
 ---------------------------------------------------------------------

 SCF Done:  E(RwB97XD) =  -558.164189478     A.U. after    2 cycles

 The electronic state is 1-A.
 Alpha  occ. eigenvalues --  -19.19856 -14.47810 -10.33923 -10.33579 -10.31415
 Alpha  occ. eigenvalues --  -10.29350 -10.28605 -10.28588 -10.28483 -10.28320
 Alpha  occ. eigenvalues --  -10.28317 -10.28142 -10.25590  -1.09923  -1.03394
 Alpha  occ. eigenvalues --   -0.96291  -0.90997  -0.85097  -0.84501  -0.80854
 Alpha  occ. eigenvalues --   -0.78170  -0.70674  -0.69843  -0.68680  -0.64302
 Alpha  occ. eigenvalues --   -0.62561  -0.58878  -0.56788  -0.56135  -0.54975
 Alpha  occ. eigenvalues --   -0.53868  -0.53243  -0.51723  -0.50390  -0.49477
 Alpha  occ. eigenvalues --   -0.48984  -0.47714  -0.46952  -0.45974  -0.45451
 Alpha  occ. eigenvalues --   -0.44921  -0.42369  -0.41507  -0.40505  -0.33394
 Alpha  occ. eigenvalues --   -0.33234  -0.31530  -0.27301
 Alpha virt. eigenvalues --    0.05417   0.05541   0.06184   0.09887   0.12846
 Alpha virt. eigenvalues --    0.13086   0.13980   0.14465   0.15385   0.16826
 Alpha virt. eigenvalues --    0.16972   0.17586   0.18826   0.18965   0.19786

 Mulliken charges:
               1
     1  C   -0.142220
     2  C    0.105445
     3  O   -0.528418
     4  C   -0.017194
     5  C   -0.299016
     6  H    0.155797
     7  H    0.151443
     8  H    0.155366
     9  N   -0.342843
    10  H    0.279515
    11  H    0.285086
    12  C   -0.354718
    13  H    0.148066
    14  H    0.139716
    15  H    0.148249
    16  H    0.151600
    17  C    0.179783
    18  C   -0.265522
    19  C   -0.131439
    20  C   -0.159896
    21  C   -0.134710
    22  C   -0.277319
    23  H    0.142526
    24  H    0.138751
    25  H    0.140688
    26  H    0.138342
    27  H    0.145321
    28  H    0.047600
 Sum of Mulliken charges =  -0.00000

 Dipole moment (field-independent basis, Debye):
    X=              6.1266    Y=             -8.9411    Z=             -5.2927  Tot=             12.0620
 Quadrupole moment (field-independent basis, Debye-Ang):
   XX=            -57.7057   YY=            -91.8484   ZZ=            -74.6921
   XY=             -5.5785   XZ=             -5.4520   YZ=             -9.3461

  Exact polarizability: 221.572  -1.249 194.210  -0.074  -4.572 184.533
 Approx polarizability: 171.743  -1.581 160.614   0.689  -6.689 154.206

 ******    1 imaginary frequencies (negative Signs) ******

                      1                      2                      3
                      A                      A                      A
 Frequencies --   -352.5732                29.7390                52.8602
 Red. masses --      5.5863                 3.5542                 3.5704
 Frc consts  --      0.4091                 0.0019                 0.0059
 IR Inten    --    830.6249                 2.1856                 5.2587

                      4                      5                      6
                      A                      A                      A
 Frequencies --     66.8119                89.1036               108.8366
 Red. masses --      2.1261                 4.7866                 3.7020
 Frc consts  --      0.0056                 0.0224                 0.0258
 IR Inten    --      8.1598                 3.2082                 5.6463

                      7                      8                      9
                      A                      A                      A
 Frequencies --    158.7777               186.6704               207.9257
 Red. masses --      1.2270                 3.8175                 3.2626
 Frc consts  --      0.0182                 0.0784                 0.0831
 IR Inten    --      4.0354                13.1393                14.1011

                     10                     11                     12
                      A                      A                      A
 Frequencies --    247.1491               268.6741               282.9445
 Red. masses --      2.2366                 1.2690                 2.9433
 Frc consts  --      0.0805                 0.0540                 0.1388
 IR Inten    --      9.7559                 1.4251                 6.6780

                     13                     14                     15
                      A                      A                      A
 Frequencies --    328.1344               374.7758               423.4215
 Red. masses --      2.9959                 2.5077                 2.8830
 Frc consts  --      0.1901                 0.2075                 0.3045
 IR Inten    --      5.1621                 6.0699                 0.2127

                     16                     17                     18
                      A                      A                      A
 Frequencies --    447.7027               496.1517               519.8120
 Red. masses --      3.0866                 3.9915                 4.6648
 Frc consts  --      0.3645                 0.5789                 0.7426
 IR Inten    --     26.9504                52.1059                14.8482

                     19                     20                     21
                      A                      A                      A
 Frequencies --    580.0574               632.4946               653.5678
 Red. masses --      2.2916                 3.5916                 4.0723
 Frc consts  --      0.4543                 0.8466                 1.0249
 IR Inten    --     17.2700                21.5180                35.4833

                     22                     23                     24
                      A                      A                      A
 Frequencies --    710.5779               728.4448               752.6167
 Red. masses --      2.3395                 1.4467                 4.6584
 Frc consts  --      0.6960                 0.4523                 1.5546
 IR Inten    --     62.7164               123.3880                 5.0075

                     25                     26                     27
                      A                      A                      A
 Frequencies --    814.2139               878.6754               948.9407
 Red. masses --      2.3228                 1.2479                 1.4158
 Frc consts  --      0.9073                 0.5677                 0.7511
 IR Inten    --      3.2290                 0.9165                 6.8772

                     28                     29                     30
                      A                      A                      A
 Frequencies --    970.4863               988.4085              1010.0171
 Red. masses --      1.4542                 1.1432                 1.3664
 Frc consts  --      0.8070                 0.6580                 0.8213
 IR Inten    --     48.0434               110.0623                 2.1002

                     31                     32                     33
                      A                      A                      A
 Frequencies --   1012.1877              1024.4181              1025.4636
 Red. masses --      1.2920                 1.3335                 3.5590
 Frc consts  --      0.7799                 0.8245                 2.2051
 IR Inten    --     13.2980                 0.1388                 1.5883

                     34                     35                     36
                      A                      A                      A
 Frequencies --   1029.1665              1048.6101              1062.7072
 Red. masses --      1.9315                 1.5535                 1.9588
 Frc consts  --      1.2053                 1.0065                 1.3033
 IR Inten    --      4.4072                15.0643                10.3803

                     37                     38                     39
                      A                      A                      A
 Frequencies --   1089.8864              1107.6325              1128.2899
 Red. masses --      3.8047                 1.5834                 2.4628
 Frc consts  --      2.6628                 1.1446                 1.8473
 IR Inten    --     28.1538                27.2640                32.9328

                     40                     41                     42
                      A                      A                      A
 Frequencies --   1158.7904              1171.1418              1180.6826
 Red. masses --      1.8769                 1.5094                 1.1302
 Frc consts  --      1.4849                 1.2198                 0.9283
 IR Inten    --     62.7362                34.8861                 0.1710

                     43                     44                     45
                      A                      A                      A
 Frequencies --   1206.6883              1211.5245              1262.5847
 Red. masses --      1.1223                 1.4147                 1.6553
 Frc consts  --      0.9628                 1.2234                 1.5547
 IR Inten    --      0.1614                17.6368               224.9227

                     46                     47                     48
                      A                      A                      A
 Frequencies --   1310.6778              1347.6887              1357.2664
 Red. masses --      4.4108                 1.3232                 1.4505
 Frc consts  --      4.4644                 1.4160                 1.5743
 IR Inten    --      0.2429                 1.1181                 1.5757

                     49                     50                     51
                      A                      A                      A
 Frequencies --   1410.9439              1422.2611              1435.0855
 Red. masses --      1.2651                 2.4739                 1.5915
 Frc consts  --      1.4838                 2.9484                 1.9312
 IR Inten    --     92.6066                67.7847               131.6182

                     52                     53                     54
                      A                      A                      A
 Frequencies --   1446.0958              1477.3197              1487.5363
 Red. masses --      1.1839                 1.5244                 1.6612
 Frc consts  --      1.4586                 1.9602                 2.1658
 IR Inten    --      8.3786                86.1567                 4.6944

                     55                     56                     57
                      A                      A                      A
 Frequencies --   1490.3503              1494.5795              1499.9701
 Red. masses --      1.0625                 1.0422                 1.0526
 Frc consts  --      1.3905                 1.3716                 1.3953
 IR Inten    --      4.0565                18.6070                15.7500

                     58                     59                     60
                      A                      A                      A
 Frequencies --   1519.8026              1549.3894              1642.9719
 Red. masses --      1.9426                 2.6487                 4.5373
 Frc consts  --      2.6436                 3.7463                 7.2163
 IR Inten    --    239.6583                61.9563               235.3528

                     61                     62                     63
                      A                      A                      A
 Frequencies --   1646.2918              1649.5402              1674.6428
 Red. masses --      1.2536                 4.5985                 5.9729
 Frc consts  --      2.0019                 7.3722                 9.8691
 IR Inten    --    150.8762               673.4237               111.2538

                     64                     65                     66
                      A                      A                      A
 Frequencies --   2876.1733              3063.3927              3065.4203
 Red. masses --      1.0801                 1.0365                 1.0330
 Frc consts  --      5.2643                 5.7311                 5.7189
 IR Inten    --    232.6298                19.0609                38.5903

                     67                     68                     69
                      A                      A                      A
 Frequencies --   3133.3082              3142.0426              3144.4124
 Red. masses --      1.1002                 1.1044                 1.0976
 Frc consts  --      6.3638                 6.4240                 6.3943
 IR Inten    --     23.7289                11.1110                 3.8433

                     70                     71                     72
                      A                      A                      A
 Frequencies --   3158.6545              3160.1447              3186.3705
 Red. masses --      1.1044                 1.0962                 1.0855
 Frc consts  --      6.4920                 6.4500                 6.4936
 IR Inten    --     40.3693                37.5648                 6.5076

                     73                     74                     75
                      A                      A                      A
 Frequencies --   3190.6412              3199.9764              3206.4558
 Red. masses --      1.0878                 1.0915                 1.0951
 Frc consts  --      6.5244                 6.5849                 6.6339
 IR Inten    --      0.8042                17.8421                54.9782

                     76                     77                     78
                      A                      A                      A
 Frequencies --   3217.2761              3526.3195              3609.6914
 Red. masses --      1.0988                 1.0505                 1.0962
 Frc consts  --      6.7011                 7.6967                 8.4152
 IR Inten    --     18.2848                36.4297                42.4084

 - Thermochemistry -
 -------------------
 Temperature   298.150 Kelvin.  Pressure   1.00000 Atm.
 Atom     1 has atomic number  6 and mass  12.00000

 Molecular mass:   177.11536 amu.
 Principal axes and moments of inertia in atomic units:
                           1         2         3
     Eigenvalues --  1672.450303253.569073558.75900
           X            0.99990  -0.00852  -0.01101
           Y            0.00691   0.99039  -0.13810
           Z            0.01208   0.13801   0.99036
 This molecule is an asymmetric top.
 Rotational symmetry number  1.
 Warning -- assumption of classical behavior for rotation
           may cause significant error
 Rotational temperatures (Kelvin)      0.05179     0.02662     0.02434
 Rotational constants (GHZ):           1.07910     0.55470     0.50713
    1 imaginary frequencies ignored.
 Zero-point vibrational energy     630554.4 (Joules/Mol)
                                  150.70611 (Kcal/Mol)
 Warning -- explicit consideration of  18 degrees of freedom as
           vibrations may cause significant error
 Vibrational temperatures:     42.79    76.05    96.13   128.20   156.59
          (Kelvin)            228.45   268.58   299.16   355.59   386.56
                              407.09   472.11   539.22   609.21   644.14
                              713.85   747.89   834.57   910.02   940.34
                             1022.36  1048.07  1082.85  1171.47  1264.22
                             1365.31  1396.31  1422.10  1453.19  1456.31
                             1473.91  1475.41  1480.74  1508.72  1529.00
                             1568.10  1593.64  1623.36  1667.24  1685.01
                             1698.74  1736.16  1743.11  1816.58  1885.77
                             1939.02  1952.80  2030.03  2046.32  2064.77
                             2080.61  2125.53  2140.23  2144.28  2150.37
                             2158.12  2186.66  2229.23  2363.87  2368.65
                             2373.32  2409.44  4138.17  4407.54  4410.46
                             4508.13  4520.70  4524.11  4544.60  4546.74
                             4584.48  4590.62  4604.05  4613.37  4628.94
                             5073.59  5193.54

 Zero-point correction=                           0.240165 (Hartree/Particle)
 Thermal correction to Energy=                    0.253353
 Thermal correction to Enthalpy=                  0.254297
 Thermal correction to Gibbs Free Energy=         0.199389
 Sum of electronic and zero-point Energies=           -557.924024
 Sum of electronic and thermal Energies=              -557.910836
 Sum of electronic and thermal Enthalpies=            -557.909892
 Sum of electronic and thermal Free Energies=         -557.964800

                     E (Thermal)             CV                S
                      KCal/Mol        Cal/Mol-Kelvin    Cal/Mol-Kelvin
 Total                  158.981             48.588            115.563
 Electronic               0.000              0.000              0.000
 Translational            0.889              2.981             41.422
 Rotational               0.889              2.981             31.338
 Vibrational            157.204             42.626             42.803
 Vibration     1          0.594              1.984              5.847
 Vibration     2          0.596              1.976              4.707
 Vibration     3          0.598              1.970              4.245
 Vibration     4          0.602              1.957              3.680
 Vibration     5          0.606              1.942              3.290
 Vibration     6          0.621              1.893              2.564
 Vibration     7          0.632              1.858              2.261
 Vibration     8          0.641              1.829              2.062
 Vibration     9          0.661              1.767              1.751
 Vibration    10          0.673              1.731              1.605
 Vibration    11          0.682              1.705              1.516
 Vibration    12          0.711              1.619              1.269
 Vibration    13          0.746              1.524              1.060
 Vibration    14          0.786              1.419              0.880
 Vibration    15          0.807              1.366              0.803
 Vibration    16          0.852              1.259              0.668
 Vibration    17          0.875              1.206              0.610
 Vibration    18          0.937              1.074              0.485

 Optimization completed.
    -- Stationary point found.
 Normal termination of Gaussian 16 at Sat Feb 13 13:53:52 2021.
