 Gaussian 16, Revision A.03,
 Gaussian 16:  ES64L-G16RevA.03 25-Dec-2016

 ----------------------------------------------------------------------
 # wB97XD def2tzvp, opt=(ts, noeigen, calcfc, maxcycles=70, maxstep=5),
  freq=noraman, scrf=(iefpcm, solvent=water)
 ----------------------------------------------------------------------

 ------------------------
 2_iteration/TS-434-2.out
 ------------------------
 Symbolic Z-matrix:
 Charge =  0 Multiplicity = 1

 SCF Done:  E(RwB97XD) =  -1057.08481076     A.U. after   15 cycles
 SCF Done:  E(RwB97XD) =  -1057.08485363     A.U. after   11 cycles
 SCF Done:  E(RwB97XD) =  -1057.08485477     A.U. after    9 cycles
 SCF Done:  E(RwB97XD) =  -1057.08485508     A.U. after    8 cycles
 SCF Done:  E(RwB97XD) =  -1057.08485517     A.U. after    7 cycles
 Optimization completed.
    -- Stationary point found.
 Normal termination of Gaussian 16 at Sun Feb 14 15:08:36 2021.

 ---------------------------------------------------------------------
 #N Geom=AllCheck Guess=TCheck SCRF=Check GenChk RwB97XD/def2TZVP Freq
 ---------------------------------------------------------------------

 Structure from the checkpoint file:  "/beegfs/scratch/user/q/tla25/Gau-67194.chk"
 ------------------------
 2_iteration/TS-434-2.out
 ------------------------
 Charge =  0 Multiplicity = 1

                         Standard orientation:
 ---------------------------------------------------------------------
 Center     Atomic      Atomic             Coordinates (Angstroms)
 Number     Number       Type             X           Y           Z
 ---------------------------------------------------------------------
      1          6           0       -1.289662   -0.270644   -0.229076
      2          6           0       -1.241364   -1.262335    0.796825
      3          8           0       -0.266537   -1.403019    1.547194
      4          6           0       -0.250872    0.617435   -0.570213
      5          6           0       -0.767831    1.917708    1.931375
      6          1           0       -1.172367    2.792573    2.440051
      7          1           0       -1.488562    1.103367    1.988431
      8          1           0        0.151951    1.604217    2.418317
      9          7           0       -0.508667    2.197238    0.521412
     10          1           0       -1.342443    2.577692    0.087775
     11          1           0        0.224184    2.886787    0.396430
     12          6           0       -0.303670    1.336178   -1.905826
     13          1           0       -0.165127    0.598539   -2.698341
     14          1           0       -1.254845    1.835472   -2.076344
     15          1           0        0.506248    2.061280   -1.977374
     16          6           0        1.165196    0.162609   -0.292096
     17          6           0        2.114332    0.878028    0.425511
     18          6           0        3.422045    0.420469    0.528947
     19          6           0        3.809246   -0.751081   -0.098397
     20          6           0        2.873455   -1.463311   -0.836582
     21          6           0        1.570388   -1.009487   -0.932359
     22          1           0        1.862874    1.795821    0.935339
     23          1           0        4.138483    0.991615    1.105875
     24          1           0        4.828942   -1.105190   -0.017399
     25          1           0        3.158501   -2.379007   -1.339387
     26          1           0        0.844390   -1.575382   -1.502466
     27         17           0       -2.850042   -0.024924   -1.036286
     28          6           0       -2.429046   -2.188308    0.973931
     29          1           0       -2.729913   -2.649225    0.032439
     30          1           0       -2.159759   -2.959407    1.692747
     31          1           0       -3.292175   -1.635528    1.351100
 ---------------------------------------------------------------------

 SCF Done:  E(RwB97XD) =  -1057.08485517     A.U. after    1 cycles

 The electronic state is 1-A.
 Alpha  occ. eigenvalues -- -101.68336 -19.20063 -14.48721 -10.36331 -10.35317
 Alpha  occ. eigenvalues --  -10.31522 -10.30936 -10.30303 -10.29244 -10.29053
 Alpha  occ. eigenvalues --  -10.28984 -10.28870 -10.28803 -10.28636 -10.26912
 Alpha  occ. eigenvalues --   -9.56885  -7.31487  -7.30690  -7.30671  -1.10917
 Alpha  occ. eigenvalues --   -1.04299  -0.97621  -0.95735  -0.90127  -0.85229
 Alpha  occ. eigenvalues --   -0.83665  -0.83062  -0.79387  -0.78122  -0.71692
 Alpha  occ. eigenvalues --   -0.70664  -0.67598  -0.64557  -0.61311  -0.58670
 Alpha  occ. eigenvalues --   -0.57396  -0.56310  -0.55703  -0.54016  -0.53609
 Alpha  occ. eigenvalues --   -0.52787  -0.51532  -0.50789  -0.49611  -0.49514
 Alpha  occ. eigenvalues --   -0.49005  -0.47767  -0.46758  -0.45926  -0.45587
 Alpha  occ. eigenvalues --   -0.43769  -0.43121  -0.42447  -0.41839  -0.40627
 Alpha  occ. eigenvalues --   -0.39086  -0.34267  -0.33742  -0.30739  -0.27126
 Alpha virt. eigenvalues --    0.04132   0.05255   0.05672   0.09969   0.11762
 Alpha virt. eigenvalues --    0.12519   0.13370   0.13680   0.15210   0.15354
 Alpha virt. eigenvalues --    0.16585   0.17017   0.17341   0.18425   0.18918

 Mulliken charges:
               1
     1  C   -0.226240
     2  C    0.268042
     3  O   -0.512563
     4  C    0.169019
     5  C   -0.272649
     6  H    0.156967
     7  H    0.151257
     8  H    0.150060
     9  N   -0.351169
    10  H    0.279551
    11  H    0.284619
    12  C   -0.363092
    13  H    0.155361
    14  H    0.147926
    15  H    0.151182
    16  C    0.300232
    17  C   -0.246030
    18  C   -0.159027
    19  C   -0.162085
    20  C   -0.126217
    21  C   -0.331590
    22  H    0.133819
    23  H    0.141671
    24  H    0.142436
    25  H    0.141856
    26  H    0.154159
    27  Cl  -0.187525
    28  C   -0.384722
    29  H    0.135392
    30  H    0.121760
    31  H    0.137601
 Sum of Mulliken charges =  -0.00000

 Dipole moment (field-independent basis, Debye):
    X=              0.8414    Y=              7.7868    Z=             -1.0812  Tot=              7.9064
 Quadrupole moment (field-independent basis, Debye-Ang):
   XX=            -95.8758   YY=            -81.6744   ZZ=            -99.9497
   XY=             -2.4568   XZ=             -3.2289   YZ=             10.1370

  Exact polarizability: 257.342   2.285 236.433  16.947   8.479 195.763
 Approx polarizability: 202.950  -1.292 194.323  16.659   9.437 168.031

 ******    1 imaginary frequencies (negative Signs) ******

                      1                      2                      3
                      A                      A                      A
 Frequencies --   -347.9074                35.8935                63.3485
 Red. masses --      5.1344                 3.2490                 7.7891
 Frc consts  --      0.3662                 0.0025                 0.0184
 IR Inten    --    627.7182                 0.2398                 0.7475

                      4                      5                      6
                      A                      A                      A
 Frequencies --     66.0434                93.7438               107.2177
 Red. masses --      3.4894                 4.3420                 2.5434
 Frc consts  --      0.0090                 0.0225                 0.0172
 IR Inten    --      2.2638                 8.4491                 1.6080

                      7                      8                      9
                      A                      A                      A
 Frequencies --    138.8232               151.2695               162.9530
 Red. masses --      2.8611                 1.1708                 1.5662
 Frc consts  --      0.0325                 0.0158                 0.0245
 IR Inten    --     11.0675                 2.9828                 2.7768

                     10                     11                     12
                      A                      A                      A
 Frequencies --    207.1154               228.6575               242.7699
 Red. masses --      4.5505                 2.8646                 1.6599
 Frc consts  --      0.1150                 0.0882                 0.0576
 IR Inten    --     10.0134                 9.1829                 2.8396

                     13                     14                     15
                      A                      A                      A
 Frequencies --    254.2359               282.2429               291.5210
 Red. masses --      2.2338                 1.8104                 4.3645
 Frc consts  --      0.0851                 0.0850                 0.2185
 IR Inten    --      9.0354                 3.8376                 2.1420

                     16                     17                     18
                      A                      A                      A
 Frequencies --    316.4497               328.8045               360.0266
 Red. masses --      2.9206                 3.1161                 4.8466
 Frc consts  --      0.1723                 0.1985                 0.3701
 IR Inten    --      3.2813                10.6659                11.8806

                     19                     20                     21
                      A                      A                      A
 Frequencies --    421.0591               442.5060               456.9020
 Red. masses --      2.8767                 5.6957                 5.0488
 Frc consts  --      0.3005                 0.6571                 0.6210
 IR Inten    --      0.1144                39.8651                 6.1083

                     22                     23                     24
                      A                      A                      A
 Frequencies --    539.1942               562.6185               568.2536
 Red. masses --      3.2286                 2.9429                 2.4909
 Frc consts  --      0.5530                 0.5488                 0.4739
 IR Inten    --    100.2031                25.6273                 2.2418

                     25                     26                     27
                      A                      A                      A
 Frequencies --    625.6932               637.3304               659.8354
 Red. masses --      2.5302                 5.9318                 3.5492
 Frc consts  --      0.5836                 1.4196                 0.9104
 IR Inten    --     38.5734                 0.4461                52.3448

                     28                     29                     30
                      A                      A                      A
 Frequencies --    685.2164               722.0973               792.9833
 Red. masses --      2.6028                 1.5620                 2.1503
 Frc consts  --      0.7200                 0.4799                 0.7967
 IR Inten    --     48.6382                82.4123                52.7468

                     31                     32                     33
                      A                      A                      A
 Frequencies --    816.6227               867.1060               941.7688
 Red. masses --      3.3714                 1.2551                 1.4976
 Frc consts  --      1.3247                 0.5560                 0.7826
 IR Inten    --     35.1436                 0.4697                 7.2051

                     34                     35                     36
                      A                      A                      A
 Frequencies --    949.0764               993.9958              1000.1002
 Red. masses --      3.6124                 1.5537                 1.2353
 Frc consts  --      1.9171                 0.9045                 0.7280
 IR Inten    --     33.5838                24.9125                37.8432

                     37                     38                     39
                      A                      A                      A
 Frequencies --   1007.4500              1023.7281              1025.6544
 Red. masses --      1.3455                 4.6122                 1.3210
 Frc consts  --      0.8046                 2.8479                 0.8188
 IR Inten    --      1.4770                13.5625                 0.0448

                     40                     41                     42
                      A                      A                      A
 Frequencies --   1031.3474              1041.4377              1042.9332
 Red. masses --      1.5875                 1.7802                 1.9144
 Frc consts  --      0.9949                 1.1376                 1.2269
 IR Inten    --    228.4578                30.3926                28.5145

                     43                     44                     45
                      A                      A                      A
 Frequencies --   1065.0835              1069.8362              1089.2749
 Red. masses --      2.3452                 1.5672                 2.7677
 Frc consts  --      1.5675                 1.0569                 1.9348
 IR Inten    --     13.1277                 9.3629                 6.8034

                     46                     47                     48
                      A                      A                      A
 Frequencies --   1117.6649              1128.6746              1184.4474
 Red. masses --      2.1630                 1.6290                 1.1289
 Frc consts  --      1.5920                 1.2227                 0.9331
 IR Inten    --     32.9256                 4.2720                 0.4339

                     49                     50                     51
                      A                      A                      A
 Frequencies --   1224.9325              1233.1925              1256.2750
 Red. masses --      1.1442                 1.5334                 3.3562
 Frc consts  --      1.0115                 1.3739                 3.1209
 IR Inten    --      0.3240                37.5214                 2.6267

                     52                     53                     54
                      A                      A                      A
 Frequencies --   1310.5678              1333.9232              1351.4635
 Red. masses --      4.5182                 3.5623                 1.3547
 Frc consts  --      4.5723                 3.7346                 1.4578
 IR Inten    --      8.7906                44.4281                 1.0580

                     55                     56                     57
                      A                      A                      A
 Frequencies --   1369.0283              1378.4949              1409.0247
 Red. masses --      1.4111                 1.6094                 2.1005
 Frc consts  --      1.5582                 1.8018                 2.4571
 IR Inten    --     13.3134               118.6823               563.7136

                     58                     59                     60
                      A                      A                      A
 Frequencies --   1419.1876              1457.1191              1465.8828
 Red. masses --      1.5106                 1.0867                 1.1951
 Frc consts  --      1.7926                 1.3594                 1.5130
 IR Inten    --    312.0158                44.0117                 7.6759

                     61                     62                     63
                      A                      A                      A
 Frequencies --   1469.6160              1477.0759              1485.7244
 Red. masses --      1.0700                 1.0638                 1.0550
 Frc consts  --      1.3615                 1.3674                 1.3720
 IR Inten    --     21.9206                24.4282                12.0001

                     64                     65                     66
                      A                      A                      A
 Frequencies --   1488.2348              1493.6919              1506.8989
 Red. masses --      1.9417                 1.1471                 1.0413
 Frc consts  --      2.5338                 1.5079                 1.3931
 IR Inten    --     23.3671                30.3891                21.1037

                     67                     68                     69
                      A                      A                      A
 Frequencies --   1545.9122              1643.7051              1651.1916
 Red. masses --      2.2665                 4.6723                 2.2876
 Frc consts  --      3.1914                 7.4375                 3.6747
 IR Inten    --     35.9811               385.0154                64.5519

                     70                     71                     72
                      A                      A                      A
 Frequencies --   1657.2231              1676.3647              3059.7141
 Red. masses --      1.8296                 5.4855                 1.0368
 Frc consts  --      2.9605                 9.0825                 5.7186
 IR Inten    --     56.5986                11.2874                12.1943

                     73                     74                     75
                      A                      A                      A
 Frequencies --   3067.1281              3074.8664              3130.1731
 Red. masses --      1.0366                 1.0340                 1.0995
 Frc consts  --      5.7453                 5.7599                 6.3472
 IR Inten    --     14.5761                38.0639                15.3497

                     76                     77                     78
                      A                      A                      A
 Frequencies --   3141.2496              3151.8093              3162.6589
 Red. masses --      1.1015                 1.1042                 1.1040
 Frc consts  --      6.4040                 6.4626                 6.5064
 IR Inten    --     17.8232                10.1729                26.3885

                     79                     80                     81
                      A                      A                      A
 Frequencies --   3164.9504              3178.1331              3194.3167
 Red. masses --      1.1034                 1.1048                 1.0859
 Frc consts  --      6.5122                 6.5749                 6.5280
 IR Inten    --     24.3940                13.4641                 1.4376

                     82                     83                     84
                      A                      A                      A
 Frequencies --   3201.8377              3210.7212              3220.9087
 Red. masses --      1.0890                 1.0936                 1.0979
 Frc consts  --      6.5775                 6.6421                 6.7104
 IR Inten    --      3.7885                27.1093                26.7634

                     85                     86                     87
                      A                      A                      A
 Frequencies --   3244.9159              3521.1099              3595.6754
 Red. masses --      1.0916                 1.0514                 1.0949
 Frc consts  --      6.7718                 7.6804                 8.3402
 IR Inten    --     20.8583                35.6916                39.7557

 - Thermochemistry -
 -------------------
 Temperature   298.150 Kelvin.  Pressure   1.00000 Atm.
 Atom     1 has atomic number  6 and mass  12.00000

 Molecular mass:   225.09204 amu.
 Principal axes and moments of inertia in atomic units:
                           1         2         3
     Eigenvalues --  2247.329374517.324074914.73297
           X            0.99982   0.00656  -0.01792
           Y           -0.00562   0.99864   0.05175
           Z            0.01824  -0.05164   0.99850
 This molecule is an asymmetric top.
 Rotational symmetry number  1.
 Warning -- assumption of classical behavior for rotation
           may cause significant error
 Rotational temperatures (Kelvin)      0.03854     0.01917     0.01762
 Rotational constants (GHZ):           0.80306     0.39952     0.36721
    1 imaginary frequencies ignored.
 Zero-point vibrational energy     678676.8 (Joules/Mol)
                                  162.20766 (Kcal/Mol)
 Warning -- explicit consideration of  23 degrees of freedom as
           vibrations may cause significant error
 Vibrational temperatures:     51.64    91.14    95.02   134.88   154.26
          (Kelvin)            199.74   217.64   234.45   297.99   328.99
                              349.29   365.79   406.08   419.43   455.30
                              473.08   518.00   605.81   636.67   657.38
                              775.78   809.48   817.59   900.23   916.98
                              949.36   985.87  1038.94  1140.93  1174.94
                             1247.57  1355.00  1365.51  1430.14  1438.92
                             1449.50  1472.92  1475.69  1483.88  1498.40
                             1500.55  1532.42  1539.26  1567.22  1608.07
                             1623.91  1704.16  1762.40  1774.29  1807.50
                             1885.61  1919.22  1944.45  1969.73  1983.35
                             2027.27  2041.89  2096.47  2109.08  2114.45
                             2125.18  2137.63  2141.24  2149.09  2168.09
                             2224.22  2364.93  2375.70  2384.37  2411.91
                             4402.25  4412.91  4424.05  4503.62  4519.56
                             4534.75  4550.36  4553.66  4572.62  4595.91
                             4606.73  4619.51  4634.17  4668.71  5066.09
                             5173.37

 Zero-point correction=                           0.258494 (Hartree/Particle)
 Thermal correction to Energy=                    0.274146
 Thermal correction to Enthalpy=                  0.275090
 Thermal correction to Gibbs Free Energy=         0.215405
 Sum of electronic and zero-point Energies=          -1056.826361
 Sum of electronic and thermal Energies=             -1056.810709
 Sum of electronic and thermal Enthalpies=           -1056.809765
 Sum of electronic and thermal Free Energies=        -1056.869450

                     E (Thermal)             CV                S
                      KCal/Mol        Cal/Mol-Kelvin    Cal/Mol-Kelvin
 Total                  172.029             58.320            125.618
 Electronic               0.000              0.000              0.000
 Translational            0.889              2.981             42.136
 Rotational               0.889              2.981             32.278
 Vibrational            170.252             52.359             51.203
 Vibration     1          0.594              1.982              5.474
 Vibration     2          0.597              1.972              4.350
 Vibration     3          0.597              1.970              4.268
 Vibration     4          0.603              1.954              3.580
 Vibration     5          0.606              1.943              3.319
 Vibration     6          0.614              1.915              2.820
 Vibration     7          0.619              1.901              2.656
 Vibration     8          0.623              1.888              2.515
 Vibration     9          0.641              1.830              2.069
 Vibration    10          0.651              1.797              1.889
 Vibration    11          0.659              1.775              1.782
 Vibration    12          0.665              1.756              1.701
 Vibration    13          0.681              1.707              1.520
 Vibration    14          0.687              1.690              1.465
 Vibration    15          0.703              1.642              1.328
 Vibration    16          0.712              1.618              1.266
 Vibration    17          0.735              1.555              1.122
 Vibration    18          0.784              1.424              0.888
 Vibration    19          0.802              1.377              0.819
 Vibration    20          0.815              1.346              0.775
 Vibration    21          0.894              1.163              0.567
 Vibration    22          0.918              1.112              0.519
 Vibration    23          0.924              1.100              0.508

 Optimization completed.
    -- Stationary point found.
 Normal termination of Gaussian 16 at Sun Feb 14 16:38:32 2021.
