 Gaussian 16, Revision A.03,
 Gaussian 16:  ES64L-G16RevA.03 25-Dec-2016

 ----------------------------------------------------------------------
 # wB97XD def2tzvp, opt=(ts, noeigen, calcfc, maxcycles=70, maxstep=1),
  freq=noraman, scrf=(iefpcm, solvent=water)
 ----------------------------------------------------------------------

 ------------------------
 0_iteration/TS-443-0.out
 ------------------------
 Symbolic Z-matrix:
 Charge =  0 Multiplicity = 1

 SCF Done:  E(RwB97XD) =  -613.548347635     A.U. after   14 cycles
 SCF Done:  E(RwB97XD) =  -613.548338503     A.U. after   10 cycles
 SCF Done:  E(RwB97XD) =  -613.548336625     A.U. after   10 cycles
 SCF Done:  E(RwB97XD) =  -613.548342067     A.U. after   10 cycles
 SCF Done:  E(RwB97XD) =  -613.548360850     A.U. after   11 cycles
 SCF Done:  E(RwB97XD) =  -613.548387214     A.U. after   11 cycles
 SCF Done:  E(RwB97XD) =  -613.548430255     A.U. after   11 cycles
 SCF Done:  E(RwB97XD) =  -613.548487028     A.U. after   11 cycles
 SCF Done:  E(RwB97XD) =  -613.548552304     A.U. after   11 cycles
 SCF Done:  E(RwB97XD) =  -613.548612954     A.U. after   11 cycles
 SCF Done:  E(RwB97XD) =  -613.548895469     A.U. after   11 cycles
 SCF Done:  E(RwB97XD) =  -613.548908448     A.U. after   10 cycles
 SCF Done:  E(RwB97XD) =  -613.548911225     A.U. after   10 cycles
 SCF Done:  E(RwB97XD) =  -613.548910907     A.U. after   10 cycles
 SCF Done:  E(RwB97XD) =  -613.548908602     A.U. after   10 cycles
 SCF Done:  E(RwB97XD) =  -613.548911797     A.U. after   10 cycles
 SCF Done:  E(RwB97XD) =  -613.548912475     A.U. after    8 cycles
 SCF Done:  E(RwB97XD) =  -613.548912484     A.U. after    7 cycles
 SCF Done:  E(RwB97XD) =  -613.548912452     A.U. after    7 cycles
 Optimization completed.
    -- Stationary point found.
 Normal termination of Gaussian 16 at Sat Feb 13 12:14:38 2021.

 ---------------------------------------------------------------------
 #N Geom=AllCheck Guess=TCheck SCRF=Check GenChk RwB97XD/def2TZVP Freq
 ---------------------------------------------------------------------

 Structure from the checkpoint file:  "/beegfs/scratch/user/q/tla25/Gau-4448.chk"
 ------------------------
 0_iteration/TS-443-0.out
 ------------------------
 Charge =  0 Multiplicity = 1

                         Standard orientation:
 ---------------------------------------------------------------------
 Center     Atomic      Atomic             Coordinates (Angstroms)
 Number     Number       Type             X           Y           Z
 ---------------------------------------------------------------------
      1          6           0        0.403215    0.428143    0.481040
      2          6           0        0.853780    1.781279    0.343405
      3          8           0        2.062259    2.102491    0.325597
      4          6           0        1.403349   -0.532288    0.719094
      5          6           0        3.636821   -1.480078   -0.873361
      6          1           0        4.249119   -1.283112   -1.754682
      7          1           0        4.208457   -1.218308    0.017362
      8          1           0        3.399950   -2.541353   -0.838909
      9          7           0        2.401726   -0.702595   -0.882892
     10          1           0        2.580897    0.289840   -1.006500
     11          1           0        1.754171   -1.007348   -1.599405
     12          6           0        1.069855   -1.960591    1.042386
     13          1           0        0.647724   -2.012837    2.047326
     14          1           0        0.333608   -2.371075    0.351000
     15          1           0        1.959988   -2.588067    1.027837
     16          1           0        2.275510   -0.156488    1.245609
     17          6           0       -0.992394    0.041871    0.146665
     18          6           0       -1.839176   -0.538904    1.094543
     19          6           0       -3.136912   -0.911758    0.775901
     20          6           0       -3.631814   -0.696249   -0.502664
     21          6           0       -2.813291   -0.110929   -1.458442
     22          6           0       -1.511455    0.244512   -1.136750
     23          1           0       -1.470094   -0.694522    2.101177
     24          1           0       -3.767743   -1.362678    1.532429
     25          1           0       -4.646665   -0.980257   -0.751445
     26          1           0       -3.185867    0.059835   -2.461217
     27          1           0       -0.875229    0.688050   -1.894647
     28          7           0       -0.088183    2.783557    0.260473
     29          1           0       -1.042434    2.541800    0.057799
     30          1           0        0.233867    3.659813   -0.112482
 ---------------------------------------------------------------------

 SCF Done:  E(RwB97XD) =  -613.548912452     A.U. after    1 cycles

 The electronic state is 1-A.
 Alpha  occ. eigenvalues --  -19.18897 -14.47290 -14.42666 -10.36308 -10.32883
 Alpha  occ. eigenvalues --  -10.31515 -10.29329 -10.28601 -10.28568 -10.28447
 Alpha  occ. eigenvalues --  -10.28242 -10.28153 -10.27661 -10.24338  -1.10969
 Alpha  occ. eigenvalues --   -1.02965  -0.98134  -0.95995  -0.89973  -0.84766
 Alpha  occ. eigenvalues --   -0.84394  -0.79742  -0.78193  -0.70470  -0.69783
 Alpha  occ. eigenvalues --   -0.68743  -0.63484  -0.62520  -0.60960  -0.59430
 Alpha  occ. eigenvalues --   -0.56015  -0.55980  -0.54900  -0.53394  -0.53226
 Alpha  occ. eigenvalues --   -0.51242  -0.50357  -0.49139  -0.48857  -0.48108
 Alpha  occ. eigenvalues --   -0.47158  -0.46112  -0.45499  -0.45013  -0.42298
 Alpha  occ. eigenvalues --   -0.41347  -0.40642  -0.34893  -0.34120  -0.33180
 Alpha  occ. eigenvalues --   -0.32005  -0.25491
 Alpha virt. eigenvalues --    0.05346   0.05600   0.07911   0.10060   0.12920
 Alpha virt. eigenvalues --    0.13474   0.14143   0.14438   0.15450   0.16794
 Alpha virt. eigenvalues --    0.17003   0.17775   0.18358   0.18808   0.19244

 Mulliken charges:
               1
     1  C   -0.205229
     2  C    0.294734
     3  O   -0.586052
     4  C   -0.033001
     5  C   -0.297232
     6  H    0.150955
     7  H    0.149510
     8  H    0.155421
     9  N   -0.308420
    10  H    0.274533
    11  H    0.273478
    12  C   -0.351834
    13  H    0.141266
    14  H    0.141006
    15  H    0.141677
    16  H    0.137071
    17  C    0.135133
    18  C   -0.242995
    19  C   -0.148698
    20  C   -0.155405
    21  C   -0.121471
    22  C   -0.290079
    23  H    0.143557
    24  H    0.137508
    25  H    0.140960
    26  H    0.138795
    27  H    0.143035
    28  N   -0.480592
    29  H    0.266369
    30  H    0.256001
 Sum of Mulliken charges =  -0.00000

 Dipole moment (field-independent basis, Debye):
    X=              0.5951    Y=             -5.3884    Z=             -3.9970  Tot=              6.7354
 Quadrupole moment (field-independent basis, Debye-Ang):
   XX=            -76.3436   YY=            -86.5247   ZZ=            -79.2293
   XY=            -15.6101   XZ=             -6.0317   YZ=             -5.7278

  Exact polarizability: 250.587   2.554 196.297  -2.400  -8.702 188.622
 Approx polarizability: 190.794   6.139 155.116  -0.763  -8.289 162.399

 ******    1 imaginary frequencies (negative Signs) ******

                      1                      2                      3
                      A                      A                      A
 Frequencies --   -386.7441                40.3068                45.3809
 Red. masses --      5.7762                 3.7962                 3.5568
 Frc consts  --      0.5090                 0.0036                 0.0043
 IR Inten    --    990.3134                 3.7698                 3.2154

                      4                      5                      6
                      A                      A                      A
 Frequencies --     84.7184                90.6988               105.6984
 Red. masses --      2.3739                 4.2090                 4.1646
 Frc consts  --      0.0100                 0.0204                 0.0274
 IR Inten    --      1.8782                 6.9676                 9.8067

                      7                      8                      9
                      A                      A                      A
 Frequencies --    110.0272               169.4830               174.2565
 Red. masses --      2.9750                 2.4532                 1.5545
 Frc consts  --      0.0212                 0.0415                 0.0278
 IR Inten    --     26.2905                15.1973                 3.2232

                     10                     11                     12
                      A                      A                      A
 Frequencies --    221.0111               249.0306               262.4781
 Red. masses --      2.2342                 1.1820                 3.9044
 Frc consts  --      0.0643                 0.0432                 0.1585
 IR Inten    --      5.1750                 4.5034                34.4939

                     13                     14                     15
                      A                      A                      A
 Frequencies --    306.3736               334.5123               381.8966
 Red. masses --      3.5507                 2.2886                 1.8382
 Frc consts  --      0.1964                 0.1509                 0.1580
 IR Inten    --     68.3422                 6.0759               242.8090

                     16                     17                     18
                      A                      A                      A
 Frequencies --    400.3334               425.0098               429.6482
 Red. masses --      2.3966                 2.8592                 2.5427
 Frc consts  --      0.2263                 0.3043                 0.2765
 IR Inten    --    155.3555                 9.3063                 9.1341

                     19                     20                     21
                      A                      A                      A
 Frequencies --    480.1111               505.6662               526.0307
 Red. masses --      1.3956                 3.2531                 3.1115
 Frc consts  --      0.1895                 0.4901                 0.5073
 IR Inten    --      2.8647                 9.7124                45.9045

                     22                     23                     24
                      A                      A                      A
 Frequencies --    616.9802               637.0339               645.3307
 Red. masses --      2.7091                 4.9939                 5.3196
 Frc consts  --      0.6076                 1.1940                 1.3053
 IR Inten    --     37.9830                17.8998                10.1746

                     25                     26                     27
                      A                      A                      A
 Frequencies --    686.1717               730.7588               739.9103
 Red. masses --      1.4428                 1.6269                 3.0874
 Frc consts  --      0.4003                 0.5119                 0.9959
 IR Inten    --     17.6077                78.7574                11.5032

                     28                     29                     30
                      A                      A                      A
 Frequencies --    795.8619               807.0422               881.0884
 Red. masses --      4.5855                 3.0834                 1.2453
 Frc consts  --      1.7112                 1.1832                 0.5696
 IR Inten    --     32.2411                81.3632                 1.2541

                     31                     32                     33
                      A                      A                      A
 Frequencies --    951.5393               960.6952              1001.5001
 Red. masses --      1.4679                 1.5765                 1.5179
 Frc consts  --      0.7831                 0.8572                 0.8970
 IR Inten    --     10.6600                24.9744                48.5577

                     34                     35                     36
                      A                      A                      A
 Frequencies --   1013.9250              1017.0628              1025.3372
 Red. masses --      1.3810                 1.6653                 4.3083
 Frc consts  --      0.8365                 1.0149                 2.6686
 IR Inten    --      1.0169                20.2407                 1.6507

                     37                     38                     39
                      A                      A                      A
 Frequencies --   1027.0880              1050.3945              1062.1037
 Red. masses --      1.4124                 1.3280                 1.9534
 Frc consts  --      0.8778                 0.8633                 1.2983
 IR Inten    --      0.6116                29.9537                19.0795

                     40                     41                     42
                      A                      A                      A
 Frequencies --   1069.2279              1076.1608              1106.1425
 Red. masses --      1.9415                 3.0200                 1.6177
 Frc consts  --      1.3078                 2.0607                 1.1662
 IR Inten    --    155.2997               105.8713                11.1942

                     43                     44                     45
                      A                      A                      A
 Frequencies --   1111.9377              1141.0292              1180.4268
 Red. masses --      1.6152                 2.3961                 1.1319
 Frc consts  --      1.1766                 1.8380                 0.9293
 IR Inten    --     60.6222                21.1140                 0.6102

                     46                     47                     48
                      A                      A                      A
 Frequencies --   1204.8113              1206.3023              1210.7836
 Red. masses --      1.6734                 1.1253                 1.2592
 Frc consts  --      1.4312                 0.9648                 1.0876
 IR Inten    --     46.2406                 5.6134               110.3567

                     49                     50                     51
                      A                      A                      A
 Frequencies --   1240.0043              1303.9053              1350.6034
 Red. masses --      1.3737                 4.4409                 1.3444
 Frc consts  --      1.2445                 4.4485                 1.4449
 IR Inten    --     40.5991                 2.1648                17.1853

                     52                     53                     54
                      A                      A                      A
 Frequencies --   1355.4216              1361.1870              1401.7945
 Red. masses --      1.4958                 2.0086                 4.0300
 Frc consts  --      1.6190                 2.1927                 4.6657
 IR Inten    --     25.4279               149.7604               313.7636

                     55                     56                     57
                      A                      A                      A
 Frequencies --   1409.5847              1449.7974              1468.1116
 Red. masses --      1.3743                 1.7096                 1.4121
 Frc consts  --      1.6088                 2.1172                 1.7932
 IR Inten    --     24.8190               272.8180               137.5495

                     58                     59                     60
                      A                      A                      A
 Frequencies --   1484.7311              1485.7687              1492.0785
 Red. masses --      1.0801                 1.8900                 1.0935
 Frc consts  --      1.4029                 2.4582                 1.4343
 IR Inten    --     11.2758                 9.1385                30.6249

                     61                     62                     63
                      A                      A                      A
 Frequencies --   1498.0937              1510.4016              1541.4579
 Red. masses --      1.2101                 1.0847                 2.4317
 Frc consts  --      1.6001                 1.4580                 3.4043
 IR Inten    --    148.1834                 9.0831                32.0116

                     64                     65                     66
                      A                      A                      A
 Frequencies --   1605.5843              1627.4778              1639.9449
 Red. masses --      2.4975                 1.6844                 5.3853
 Frc consts  --      3.7933                 2.6287                 8.5333
 IR Inten    --    589.2257               400.7714                11.5221

                     67                     68                     69
                      A                      A                      A
 Frequencies --   1648.2308              1669.2667              3060.8141
 Red. masses --      1.1450                 5.8359                 1.0345
 Frc consts  --      1.8327                 9.5810                 5.7105
 IR Inten    --    104.5745                 9.2590                64.7362

                     70                     71                     72
                      A                      A                      A
 Frequencies --   3065.4792              3132.8985              3134.5206
 Red. masses --      1.0365                 1.1038                 1.1006
 Frc consts  --      5.7386                 6.3833                 6.3714
 IR Inten    --     19.3405                17.1581                27.3340

                     73                     74                     75
                      A                      A                      A
 Frequencies --   3143.5927              3157.4964              3162.7698
 Red. masses --      1.0974                 1.0966                 1.1035
 Frc consts  --      6.3897                 6.4413                 6.5036
 IR Inten    --      5.4982                63.3600                17.6140

                     76                     77                     78
                      A                      A                      A
 Frequencies --   3182.0291              3188.3158              3198.3213
 Red. masses --      1.0870                 1.0868                 1.0911
 Frc consts  --      6.4850                 6.5093                 6.5762
 IR Inten    --     11.8939                 2.4488                13.3187

                     79                     80                     81
                      A                      A                      A
 Frequencies --   3204.8622              3217.1593              3499.6346
 Red. masses --      1.0947                 1.0986                 1.0540
 Frc consts  --      6.6247                 6.6995                 7.6054
 IR Inten    --     52.5914                21.5788                36.0160

                     82                     83                     84
                      A                      A                      A
 Frequencies --   3597.8599              3611.7934              3729.0101
 Red. masses --      1.0943                 1.0462                 1.1021
 Frc consts  --      8.3456                 8.0407                 9.0295
 IR Inten    --     58.7073                45.5583                64.6018

 - Thermochemistry -
 -------------------
 Temperature   298.150 Kelvin.  Pressure   1.00000 Atm.
 Atom     1 has atomic number  6 and mass  12.00000

 Molecular mass:   192.12626 amu.
 Principal axes and moments of inertia in atomic units:
                           1         2         3
     Eigenvalues --  1842.262873814.809634633.24858
           X            0.99933  -0.03606  -0.00611
           Y            0.03587   0.99897  -0.02779
           Z            0.00711   0.02756   0.99960
 This molecule is an asymmetric top.
 Rotational symmetry number  1.
 Warning -- assumption of classical behavior for rotation
           may cause significant error
 Rotational temperatures (Kelvin)      0.04701     0.02270     0.01869
 Rotational constants (GHZ):           0.97963     0.47309     0.38952
    1 imaginary frequencies ignored.
 Zero-point vibrational energy     676663.6 (Joules/Mol)
                                  161.72648 (Kcal/Mol)
 Warning -- explicit consideration of  21 degrees of freedom as
           vibrations may cause significant error
 Vibrational temperatures:     57.99    65.29   121.89   130.50   152.08
          (Kelvin)            158.30   243.85   250.72   317.99   358.30
                              377.65   440.80   481.29   549.46   575.99
                              611.49   618.17   690.77   727.54   756.84
                              887.70   916.55   928.49   987.25  1051.40
                             1064.57  1145.07  1161.15  1267.69  1369.05
                             1382.23  1440.94  1458.81  1463.33  1475.23
                             1477.75  1511.28  1528.13  1538.38  1548.36
                             1591.49  1599.83  1641.69  1698.37  1733.45
                             1735.60  1742.05  1784.09  1876.03  1943.22
                             1950.15  1958.44  2016.87  2028.08  2085.94
                             2112.29  2136.20  2137.69  2146.77  2155.42
                             2173.13  2217.81  2310.08  2341.58  2359.51
                             2371.44  2401.70  4403.83  4410.54  4507.54
                             4509.88  4522.93  4542.93  4550.52  4578.23
                             4587.28  4601.67  4611.08  4628.77  5035.19
                             5176.52  5196.57  5365.21

 Zero-point correction=                           0.257728 (Hartree/Particle)
 Thermal correction to Energy=                    0.272165
 Thermal correction to Enthalpy=                  0.273109
 Thermal correction to Gibbs Free Energy=         0.215874
 Sum of electronic and zero-point Energies=           -613.291185
 Sum of electronic and thermal Energies=              -613.276747
 Sum of electronic and thermal Enthalpies=            -613.275803
 Sum of electronic and thermal Free Energies=         -613.333038

                     E (Thermal)             CV                S
                      KCal/Mol        Cal/Mol-Kelvin    Cal/Mol-Kelvin
 Total                  170.786             53.940            120.461
 Electronic               0.000              0.000              0.000
 Translational            0.889              2.981             41.664
 Rotational               0.889              2.981             31.854
 Vibrational            169.009             47.978             46.942
 Vibration     1          0.594              1.981              5.244
 Vibration     2          0.595              1.979              5.009
 Vibration     3          0.601              1.960              3.778
 Vibration     4          0.602              1.956              3.645
 Vibration     5          0.605              1.945              3.346
 Vibration     6          0.606              1.941              3.268
 Vibration     7          0.625              1.880              2.441
 Vibration     8          0.627              1.874              2.389
 Vibration     9          0.648              1.809              1.951
 Vibration    10          0.662              1.764              1.737
 Vibration    11          0.670              1.742              1.645
 Vibration    12          0.697              1.662              1.382
 Vibration    13          0.716              1.607              1.238
 Vibration    14          0.751              1.509              1.032
 Vibration    15          0.766              1.469              0.961
 Vibration    16          0.787              1.416              0.875
 Vibration    17          0.791              1.406              0.860
 Vibration    18          0.836              1.294              0.710
 Vibration    19          0.861              1.237              0.644
 Vibration    20          0.881              1.192              0.596
 Vibration    21          0.977              0.996              0.421

 Optimization completed.
    -- Stationary point found.
 Normal termination of Gaussian 16 at Sat Feb 13 13:06:48 2021.
