 Gaussian 16, Revision A.03,
 Gaussian 16:  ES64L-G16RevA.03 25-Dec-2016

 ----------------------------------------------------------------------
 # wB97XD def2tzvp, opt=(ts, noeigen, calcfc, maxcycles=70, maxstep=5),
  freq=noraman, scrf=(iefpcm, solvent=water)
 ----------------------------------------------------------------------

 ------------------------
 2_iteration/TS-421-2.out
 ------------------------
 Symbolic Z-matrix:
 Charge =  0 Multiplicity = 1

 SCF Done:  E(RwB97XD) =  -692.159422124     A.U. after   14 cycles
 SCF Done:  E(RwB97XD) =  -692.159647840     A.U. after   11 cycles
 SCF Done:  E(RwB97XD) =  -692.159817340     A.U. after   11 cycles
 SCF Done:  E(RwB97XD) =  -692.159914239     A.U. after   11 cycles
 SCF Done:  E(RwB97XD) =  -692.159909405     A.U. after   10 cycles
 SCF Done:  E(RwB97XD) =  -692.159919692     A.U. after   10 cycles
 SCF Done:  E(RwB97XD) =  -692.159923872     A.U. after   10 cycles
 SCF Done:  E(RwB97XD) =  -692.159924157     A.U. after    8 cycles
 SCF Done:  E(RwB97XD) =  -692.159924242     A.U. after    7 cycles
 Optimization completed.
    -- Stationary point found.
 Normal termination of Gaussian 16 at Sun Feb 14 15:02:43 2021.

 ---------------------------------------------------------------------
 #N Geom=AllCheck Guess=TCheck SCRF=Check GenChk RwB97XD/def2TZVP Freq
 ---------------------------------------------------------------------

 Structure from the checkpoint file:  "/beegfs/scratch/user/q/tla25/Gau-27951.chk"
 ------------------------
 2_iteration/TS-421-2.out
 ------------------------
 Charge =  0 Multiplicity = 1

                         Standard orientation:
 ---------------------------------------------------------------------
 Center     Atomic      Atomic             Coordinates (Angstroms)
 Number     Number       Type             X           Y           Z
 ---------------------------------------------------------------------
      1          6           0        1.153279    0.325574    0.738868
      2          6           0        1.602522   -0.674587   -0.171075
      3          8           0        1.048477   -0.924695   -1.274018
      4          6           0       -0.092639    0.959147    0.466432
      5          6           0        1.237256    2.639342   -1.314557
      6          1           0        1.628799    2.721509   -2.328748
      7          1           0        0.928696    3.624307   -0.969806
      8          1           0        2.026275    2.257644   -0.663598
      9          7           0        0.116470    1.714530   -1.246877
     10          1           0       -0.720068    2.102277   -1.662535
     11          1           0        0.344185    0.817848   -1.688488
     12          6           0       -0.458757    2.172545    1.297684
     13          1           0       -0.663700    1.861505    2.323761
     14          1           0        0.344269    2.907541    1.318713
     15          1           0       -1.356594    2.652770    0.912242
     16          6           0       -1.319232    0.096227    0.206913
     17          6           0       -1.364484   -1.205466    0.699110
     18          6           0       -2.498829   -1.989660    0.559245
     19          6           0       -3.626198   -1.484348   -0.071385
     20          6           0       -3.606896   -0.182478   -0.547835
     21          6           0       -2.469632    0.597614   -0.401171
     22          1           0       -0.490358   -1.601599    1.198199
     23          1           0       -2.501120   -3.000530    0.948073
     24          1           0       -4.513469   -2.094857   -0.182178
     25          1           0       -4.481823    0.234050   -1.031135
     26          1           0       -2.504139    1.617539   -0.763389
     27          6           0        2.089342    0.785831    1.831363
     28          1           0        1.702341    1.649335    2.367998
     29          1           0        2.251157    0.013012    2.594926
     30          1           0        3.081094    1.064148    1.454736
     31          7           0        2.760652   -1.349907    0.137128
     32          6           0        3.228032   -2.446937   -0.674914
     33          1           0        3.064064   -1.333588    1.093744
     34          1           0        3.343050   -2.130512   -1.711284
     35          1           0        4.199510   -2.769004   -0.302178
     36          1           0        2.547587   -3.305011   -0.660740
 ---------------------------------------------------------------------

 SCF Done:  E(RwB97XD) =  -692.159924242     A.U. after    1 cycles

 The electronic state is 1-A.
 Alpha  occ. eigenvalues --  -19.18531 -14.46965 -14.43053 -10.35236 -10.34457
 Alpha  occ. eigenvalues --  -10.30963 -10.29932 -10.29859 -10.28980 -10.28859
 Alpha  occ. eigenvalues --  -10.28742 -10.28673 -10.28392 -10.27781 -10.26582
 Alpha  occ. eigenvalues --  -10.23706  -1.10635  -1.02980  -0.99537  -0.96685
 Alpha  occ. eigenvalues --   -0.91017  -0.85335  -0.84730  -0.82275  -0.78273
 Alpha  occ. eigenvalues --   -0.77972  -0.75539  -0.70418  -0.69865  -0.66564
 Alpha  occ. eigenvalues --   -0.63684  -0.62215  -0.61099  -0.57645  -0.56680
 Alpha  occ. eigenvalues --   -0.55043  -0.54029  -0.53427  -0.52968  -0.52633
 Alpha  occ. eigenvalues --   -0.50904  -0.50652  -0.49237  -0.48869  -0.47934
 Alpha  occ. eigenvalues --   -0.47356  -0.46868  -0.46234  -0.45456  -0.44725
 Alpha  occ. eigenvalues --   -0.44369  -0.43924  -0.42269  -0.41541  -0.40353
 Alpha  occ. eigenvalues --   -0.34092  -0.33503  -0.32111  -0.31651  -0.24406
 Alpha virt. eigenvalues --    0.03978   0.05617   0.09059   0.10216   0.12014
 Alpha virt. eigenvalues --    0.13264   0.13825   0.15148   0.15730   0.16125
 Alpha virt. eigenvalues --    0.16474   0.16886   0.17601   0.18575   0.18957

 Mulliken charges:
               1
     1  C   -0.394267
     2  C    0.375815
     3  O   -0.632870
     4  C    0.350091
     5  C   -0.314778
     6  H    0.151299
     7  H    0.156099
     8  H    0.153848
     9  N   -0.287892
    10  H    0.258497
    11  H    0.272729
    12  C   -0.422214
    13  H    0.157140
    14  H    0.147657
    15  H    0.144604
    16  C    0.188842
    17  C   -0.227955
    18  C   -0.152229
    19  C   -0.144740
    20  C   -0.175340
    21  C   -0.286757
    22  H    0.154953
    23  H    0.138414
    24  H    0.141829
    25  H    0.139977
    26  H    0.149197
    27  C   -0.449509
    28  H    0.132455
    29  H    0.121381
    30  H    0.120966
    31  N   -0.325140
    32  C   -0.256718
    33  H    0.246217
    34  H    0.122715
    35  H    0.132872
    36  H    0.112812
 Sum of Mulliken charges =  -0.00000

 Dipole moment (field-independent basis, Debye):
    X=             -0.4751    Y=              4.7434    Z=              0.7119  Tot=              4.8200
 Quadrupole moment (field-independent basis, Debye-Ang):
   XX=            -89.4299   YY=            -83.7477   ZZ=            -98.4209
   XY=             -2.6342   XZ=              5.9980   YZ=            -10.8202

  Exact polarizability: 269.212  -8.998 255.851  20.350 -13.846 203.732
 Approx polarizability: 206.518  -5.747 204.525  17.888 -12.413 174.958

 ******    1 imaginary frequencies (negative Signs) ******

                      1                      2                      3
                      A                      A                      A
 Frequencies --   -409.9875                47.9351                60.1997
 Red. masses --      5.1501                 3.4170                 3.5380
 Frc consts  --      0.5100                 0.0046                 0.0076
 IR Inten    --    650.1051                 2.7677                 3.2864

                      4                      5                      6
                      A                      A                      A
 Frequencies --     85.8131                96.5035               113.3852
 Red. masses --      2.9040                 2.1634                 2.5559
 Frc consts  --      0.0126                 0.0119                 0.0194
 IR Inten    --      5.5567                 5.0880                 8.4447

                      7                      8                      9
                      A                      A                      A
 Frequencies --    128.0381               133.5750               150.3560
 Red. masses --      1.4537                 1.8148                 3.1026
 Frc consts  --      0.0140                 0.0191                 0.0413
 IR Inten    --      2.5799                 5.8525                26.2445

                     10                     11                     12
                      A                      A                      A
 Frequencies --    166.0435               181.5437               199.7095
 Red. masses --      1.5508                 2.5054                 1.9253
 Frc consts  --      0.0252                 0.0487                 0.0452
 IR Inten    --      1.4603                27.7133                 2.8291

                     13                     14                     15
                      A                      A                      A
 Frequencies --    227.7760               283.0319               289.7611
 Red. masses --      1.7068                 2.6683                 2.9822
 Frc consts  --      0.0522                 0.1259                 0.1475
 IR Inten    --      5.4119                29.5831                 2.2238

                     16                     17                     18
                      A                      A                      A
 Frequencies --    298.4105               318.4765               324.3605
 Red. masses --      3.2627                 1.3442                 3.2705
 Frc consts  --      0.1712                 0.0803                 0.2027
 IR Inten    --      4.9810                 6.2583                17.0670

                     19                     20                     21
                      A                      A                      A
 Frequencies --    356.4051               366.9168               392.8670
 Red. masses --      2.9226                 3.9250                 2.1093
 Frc consts  --      0.2187                 0.3113                 0.1918
 IR Inten    --     98.5730                 4.0858                 2.7353

                     22                     23                     24
                      A                      A                      A
 Frequencies --    419.6226               430.2066               453.5911
 Red. masses --      3.0142                 2.9382                 1.5980
 Frc consts  --      0.3127                 0.3204                 0.1937
 IR Inten    --     13.2199                 3.5344               111.2112

                     25                     26                     27
                      A                      A                      A
 Frequencies --    542.4712               568.1977               596.2554
 Red. masses --      3.9791                 3.2824                 3.3928
 Frc consts  --      0.6899                 0.6244                 0.7107
 IR Inten    --     43.3753                10.0575                76.7880

                     28                     29                     30
                      A                      A                      A
 Frequencies --    639.5254               657.4910               728.5466
 Red. masses --      6.2864                 4.2301                 1.6847
 Frc consts  --      1.5148                 1.0774                 0.5268
 IR Inten    --      0.4760                31.9177                73.3647

                     31                     32                     33
                      A                      A                      A
 Frequencies --    734.9177               769.1733               793.4272
 Red. masses --      1.7982                 2.2740                 2.7046
 Frc consts  --      0.5722                 0.7927                 1.0032
 IR Inten    --     77.8796                13.7077                74.1438

                     34                     35                     36
                      A                      A                      A
 Frequencies --    799.6701               860.6944               880.0755
 Red. masses --      3.6770                 2.8273                 1.2437
 Frc consts  --      1.3854                 1.2340                 0.5676
 IR Inten    --     40.7049                15.1033                 0.4748

                     37                     38                     39
                      A                      A                      A
 Frequencies --    956.1272               963.6363              1004.1538
 Red. masses --      1.7339                 1.6772                 1.1640
 Frc consts  --      0.9339                 0.9176                 0.6915
 IR Inten    --     28.7926                33.0089                46.6063

                     40                     41                     42
                      A                      A                      A
 Frequencies --   1019.9622              1026.0950              1029.2546
 Red. masses --      1.4316                 3.9033                 1.3142
 Frc consts  --      0.8775                 2.4214                 0.8202
 IR Inten    --      9.0068                 6.2693                 1.3713

                     43                     44                     45
                      A                      A                      A
 Frequencies --   1043.4730              1052.8366              1062.1582
 Red. masses --      1.6705                 1.5812                 2.3584
 Frc consts  --      1.0716                 1.0327                 1.5677
 IR Inten    --     60.4791                82.8429                31.9384

                     46                     47                     48
                      A                      A                      A
 Frequencies --   1069.4746              1087.5231              1092.7112
 Red. masses --      1.4646                 1.3849                 2.7498
 Frc consts  --      0.9870                 0.9650                 1.9345
 IR Inten    --     15.1949                66.8390                 6.4503

                     49                     50                     51
                      A                      A                      A
 Frequencies --   1106.8671              1124.6338              1147.0426
 Red. masses --      1.9636                 1.6100                 1.3469
 Frc consts  --      1.4174                 1.1998                 1.0441
 IR Inten    --     28.3131                44.6988                 2.5462

                     52                     53                     54
                      A                      A                      A
 Frequencies --   1158.5614              1182.8040              1184.5626
 Red. masses --      1.7884                 1.1250                 2.2793
 Frc consts  --      1.4143                 0.9273                 1.8843
 IR Inten    --     82.0509                 0.0689                 5.7328

                     55                     56                     57
                      A                      A                      A
 Frequencies --   1211.6466              1216.4440              1229.6957
 Red. masses --      1.8950                 1.6606                 1.3938
 Frc consts  --      1.6391                 1.4478                 1.2418
 IR Inten    --     44.4503                31.4670                69.7747

                     58                     59                     60
                      A                      A                      A
 Frequencies --   1265.7534              1322.5143              1349.0726
 Red. masses --      3.1499                 4.4467                 3.2914
 Frc consts  --      2.9734                 4.5823                 3.5295
 IR Inten    --     95.0598                 2.5018               366.9440

                     61                     62                     63
                      A                      A                      A
 Frequencies --   1353.1619              1367.6579              1405.1273
 Red. masses --      1.4295                 1.3541                 2.2908
 Frc consts  --      1.5421                 1.4923                 2.6648
 IR Inten    --     15.4053                13.0312               240.4902

                     64                     65                     66
                      A                      A                      A
 Frequencies --   1419.8423              1424.6925              1449.9087
 Red. masses --      1.5258                 1.2054                 1.2434
 Frc consts  --      1.8123                 1.4415                 1.5401
 IR Inten    --    124.6584                12.9133                36.6275

                     67                     68                     69
                      A                      A                      A
 Frequencies --   1452.1374              1475.8887              1482.0373
 Red. masses --      1.2079                 1.0927                 1.1219
 Frc consts  --      1.5007                 1.4024                 1.4519
 IR Inten    --     20.2331                63.2746                 5.8579

                     70                     71                     72
                      A                      A                      A
 Frequencies --   1488.6841              1491.3072              1496.4480
 Red. masses --      1.3729                 1.3678                 1.0798
 Frc consts  --      1.7927                 1.7922                 1.4246
 IR Inten    --     27.8041                30.6525                13.9577

                     73                     74                     75
                      A                      A                      A
 Frequencies --   1502.1107              1504.5737              1508.8227
 Red. masses --      1.1128                 1.1316                 1.0398
 Frc consts  --      1.4793                 1.5093                 1.3947
 IR Inten    --     23.8162                54.2874                31.4355

                     76                     77                     78
                      A                      A                      A
 Frequencies --   1522.0417              1536.5378              1542.6660
 Red. masses --      1.0915                 1.7815                 2.1805
 Frc consts  --      1.4898                 2.4781                 3.0573
 IR Inten    --    103.7213               546.6475                25.4670

                     79                     80                     81
                      A                      A                      A
 Frequencies --   1600.5653              1650.9693              1656.4848
 Red. masses --      3.5151                 4.7584                 1.2064
 Frc consts  --      5.3056                 7.6417                 1.9504
 IR Inten    --    431.3959                 4.4674                20.4445

                     82                     83                     84
                      A                      A                      A
 Frequencies --   1673.7189              2989.7260              3024.5867
 Red. masses --      5.9265                 1.0497                 1.0501
 Frc consts  --      9.7816                 5.5283                 5.6599
 IR Inten    --      5.1491               159.2667               133.3211

                     85                     86                     87
                      A                      A                      A
 Frequencies --   3025.6722              3059.8283              3068.3847
 Red. masses --      1.0936                 1.0333                 1.0378
 Frc consts  --      5.8984                 5.7001                 5.7569
 IR Inten    --     66.5685                60.2282                18.3078

                     88                     89                     90
                      A                      A                      A
 Frequencies --   3103.4876              3131.8789              3141.4032
 Red. masses --      1.0872                 1.1035                 1.0993
 Frc consts  --      6.1698                 6.3774                 6.3919
 IR Inten    --     49.9893                13.0168                19.7268

                     91                     92                     93
                      A                      A                      A
 Frequencies --   3146.8548              3147.7027              3157.5905
 Red. masses --      1.1038                 1.0915                 1.1039
 Frc consts  --      6.4399                 6.3719                 6.4847
 IR Inten    --     31.3172                35.6907                23.0176

                     94                     95                     96
                      A                      A                      A
 Frequencies --   3161.4758              3190.6748              3196.5888
 Red. masses --      1.1025                 1.0855                 1.0882
 Frc consts  --      6.4922                 6.5110                 6.5515
 IR Inten    --     30.4308                 6.3361                 3.5599

                     97                     98                     99
                      A                      A                      A
 Frequencies --   3206.4016              3216.9482              3223.0162
 Red. masses --      1.0924                 1.0947                 1.0966
 Frc consts  --      6.6170                 6.6746                 6.7117
 IR Inten    --     33.6406                29.0656                13.7449

                    100                    101                    102
                      A                      A                      A
 Frequencies --   3345.4739              3595.5339              3675.6348
 Red. masses --      1.0689                 1.0814                 1.0770
 Frc consts  --      7.0485                 8.2370                 8.5732
 IR Inten    --    193.3925                56.0330                39.5583

 - Thermochemistry -
 -------------------
 Temperature   298.150 Kelvin.  Pressure   1.00000 Atm.
 Atom     1 has atomic number  6 and mass  12.00000

 Molecular mass:   220.15756 amu.
 Principal axes and moments of inertia in atomic units:
                           1         2         3
     Eigenvalues --  2553.421854304.683365403.39155
           X            0.99993  -0.00991   0.00717
           Y            0.00993   0.99995  -0.00244
           Z           -0.00715   0.00252   0.99997
 This molecule is an asymmetric top.
 Rotational symmetry number  1.
 Warning -- assumption of classical behavior for rotation
           may cause significant error
 Rotational temperatures (Kelvin)      0.03392     0.02012     0.01603
 Rotational constants (GHZ):           0.70679     0.41925     0.33400
    1 imaginary frequencies ignored.
 Zero-point vibrational energy     824324.1 (Joules/Mol)
                                  197.01819 (Kcal/Mol)
 Warning -- explicit consideration of  26 degrees of freedom as
           vibrations may cause significant error
 Vibrational temperatures:     68.97    86.61   123.47   138.85   163.14
          (Kelvin)            184.22   192.18   216.33   238.90   261.20
                              287.34   327.72   407.22   416.90   429.35
                              458.22   466.68   512.79   527.91   565.25
                              603.74   618.97   652.62   780.50   817.51
                              857.88   920.13   945.98  1048.22  1057.38
                             1106.67  1141.56  1150.55  1238.35  1266.23
                             1375.65  1386.46  1444.75  1467.50  1476.32
                             1480.87  1501.32  1514.80  1528.21  1538.74
                             1564.70  1572.17  1592.53  1618.10  1650.34
                             1666.91  1701.79  1704.32  1743.29  1750.19
                             1769.26  1821.14  1902.80  1941.01  1946.90
                             1967.75  2021.66  2042.84  2049.81  2086.10
                             2089.30  2123.47  2132.32  2141.88  2145.66
                             2153.05  2161.20  2164.75  2170.86  2189.88
                             2210.74  2219.55  2302.86  2375.38  2383.31
                             2408.11  4301.55  4351.71  4353.27  4402.41
                             4414.72  4465.23  4506.08  4519.78  4527.62
                             4528.84  4543.07  4548.66  4590.67  4599.18
                             4613.30  4628.47  4637.20  4813.39  5173.17
                             5288.42

 Zero-point correction=                           0.313968 (Hartree/Particle)
 Thermal correction to Energy=                    0.330964
 Thermal correction to Enthalpy=                  0.331908
 Thermal correction to Gibbs Free Energy=         0.270118
 Sum of electronic and zero-point Energies=           -691.845956
 Sum of electronic and thermal Energies=              -691.828960
 Sum of electronic and thermal Enthalpies=            -691.828016
 Sum of electronic and thermal Free Energies=         -691.889806

                     E (Thermal)             CV                S
                      KCal/Mol        Cal/Mol-Kelvin    Cal/Mol-Kelvin
 Total                  207.683             64.093            130.048
 Electronic               0.000              0.000              0.000
 Translational            0.889              2.981             42.070
 Rotational               0.889              2.981             32.452
 Vibrational            205.906             58.131             55.526
 Vibration     1          0.595              1.978              4.901
 Vibration     2          0.597              1.973              4.451
 Vibration     3          0.601              1.959              3.753
 Vibration     4          0.603              1.952              3.524
 Vibration     5          0.607              1.938              3.210
 Vibration     6          0.611              1.925              2.975
 Vibration     7          0.613              1.920              2.894
 Vibration     8          0.618              1.902              2.668
 Vibration     9          0.624              1.884              2.480
 Vibration    10          0.630              1.865              2.312
 Vibration    11          0.638              1.840              2.136
 Vibration    12          0.651              1.799              1.896
 Vibration    13          0.682              1.705              1.515
 Vibration    14          0.686              1.693              1.475
 Vibration    15          0.691              1.677              1.426
 Vibration    16          0.705              1.638              1.318
 Vibration    17          0.709              1.627              1.288
 Vibration    18          0.732              1.562              1.138
 Vibration    19          0.740              1.540              1.093
 Vibration    20          0.760              1.485              0.989
 Vibration    21          0.782              1.428              0.893
 Vibration    22          0.791              1.404              0.858
 Vibration    23          0.812              1.353              0.785
 Vibration    24          0.898              1.156              0.560
 Vibration    25          0.924              1.100              0.508
 Vibration    26          0.954              1.040              0.456

 Optimization completed.
    -- Stationary point found.
 Normal termination of Gaussian 16 at Sun Feb 14 16:27:04 2021.
