 Gaussian 16, Revision A.03,
 Gaussian 16:  ES64L-G16RevA.03 25-Dec-2016

 ----------------------------------------------------------------------
 # wB97XD def2tzvp, opt=(ts, noeigen, calcfc, maxcycles=70, maxstep=8),
  freq=noraman, scrf=(iefpcm, solvent=water)
 ----------------------------------------------------------------------

 ------------------------
 1_iteration/TS-403-1.out
 ------------------------
 Symbolic Z-matrix:
 Charge =  0 Multiplicity = 1

 SCF Done:  E(RwB97XD) =  -844.589675110     A.U. after   14 cycles
 Optimization completed.
    -- Stationary point found.
 Normal termination of Gaussian 16 at Mon Mar 29 07:02:11 2021.

 ---------------------------------------------------------------------
 #N Geom=AllCheck Guess=TCheck SCRF=Check GenChk RwB97XD/def2TZVP Freq
 ---------------------------------------------------------------------

 Structure from the checkpoint file:  "/beegfs/scratch/user/q/tla25/Gau-76180.chk"
 ------------------------
 1_iteration/TS-403-1.out
 ------------------------
 Charge =  0 Multiplicity = 1

                         Standard orientation:
 ---------------------------------------------------------------------
 Center     Atomic      Atomic             Coordinates (Angstroms)
 Number     Number       Type             X           Y           Z
 ---------------------------------------------------------------------
      1          6           0       -0.512490    0.199551    0.407780
      2          6           0       -0.312830    0.769321    1.699100
      3          8           0       -1.185530    0.813781    2.587230
      4          6           0        0.478760    0.237471   -0.624640
      5          6           0       -0.445080    2.818481   -1.022750
      6          1           0       -0.881220    2.741401   -0.030640
      7          1           0       -0.230010    3.862331   -1.246570
      8          1           0       -1.149060    2.426921   -1.753900
      9          7           0        0.780930    2.025281   -1.054230
     10          1           0        1.224890    2.099051   -1.961840
     11          1           0        1.431310    2.369241   -0.355140
     12          6           0        0.056750   -0.275969   -1.992450
     13          1           0       -0.896020    0.147041   -2.307530
     14          1           0        0.817590   -0.054129   -2.740420
     15          1           0       -0.054410   -1.358999   -1.951030
     16          6           0        1.891750   -0.242889   -0.320970
     17          6           0        3.022550    0.198041   -1.007920
     18          6           0        4.272250   -0.344909   -0.752060
     19          6           0        4.418010   -1.356019    0.185410
     20          6           0        3.299940   -1.822119    0.858970
     21          6           0        2.052610   -1.272959    0.604740
     22          1           0        2.954610    0.968861   -1.763590
     23          1           0        5.133880    0.023512   -1.294000
     24          1           0        5.393950   -1.779968    0.383970
     25          1           0        3.394811   -2.617799    1.586980
     26          1           0        1.180040   -1.637599    1.130600
     27          6           0       -1.884750   -0.301859    0.107800
     28          6           0       -2.997340    0.541001    0.059910
     29          6           0       -4.265830    0.054150   -0.217670
     30          6           0       -4.458190   -1.299620   -0.460480
     31          6           0       -3.369530   -2.157540   -0.410560
     32          6           0       -2.105490   -1.661129   -0.122710
     33          1           0       -2.865930    1.598591    0.249940
     34          1           0       -5.108200    0.734960   -0.248770
     35          1           0       -5.447260   -1.681300   -0.681610
     36          1           0       -3.504369   -3.217850   -0.587880
     37          1           0       -1.264059   -2.342949   -0.071080
     38          7           0        0.900730    1.415721    1.975680
     39          1           0        1.737400    1.011251    1.585680
     40          1           0        0.998110    1.612141    2.959770
 ---------------------------------------------------------------------

 SCF Done:  E(RwB97XD) =  -844.589675110     A.U. after    1 cycles

 The electronic state is 1-A.
 Alpha  occ. eigenvalues --  -19.18353 -14.49602 -14.42411 -10.35971 -10.35880
 Alpha  occ. eigenvalues --  -10.31800 -10.30884 -10.29871 -10.29535 -10.29426
 Alpha  occ. eigenvalues --  -10.29365 -10.29291 -10.28824 -10.28308 -10.28217
 Alpha  occ. eigenvalues --  -10.28188 -10.28107 -10.27724 -10.27703 -10.24368
 Alpha  occ. eigenvalues --   -1.10576  -1.05209  -0.98117  -0.97040  -0.95735
 Alpha  occ. eigenvalues --   -0.91538  -0.86335  -0.85637  -0.84094  -0.83319
 Alpha  occ. eigenvalues --   -0.79720  -0.79206  -0.72699  -0.70914  -0.69383
 Alpha  occ. eigenvalues --   -0.68871  -0.67427  -0.64224  -0.63410  -0.62138
 Alpha  occ. eigenvalues --   -0.60527  -0.58522  -0.57474  -0.56818  -0.55829
 Alpha  occ. eigenvalues --   -0.54109  -0.53614  -0.53020  -0.52767  -0.51317
 Alpha  occ. eigenvalues --   -0.50522  -0.50250  -0.49841  -0.49539  -0.48150
 Alpha  occ. eigenvalues --   -0.47855  -0.47038  -0.46752  -0.46108  -0.44948
 Alpha  occ. eigenvalues --   -0.44044  -0.43281  -0.42181  -0.41303  -0.40842
 Alpha  occ. eigenvalues --   -0.35295  -0.34151  -0.33673  -0.33144  -0.32615
 Alpha  occ. eigenvalues --   -0.31754  -0.25535
 Alpha virt. eigenvalues --    0.03329   0.04667   0.05933   0.06118   0.08275
 Alpha virt. eigenvalues --    0.10009   0.12365   0.12800   0.13298   0.14313
 Alpha virt. eigenvalues --    0.14715   0.15887   0.16175   0.16803   0.17066

 Mulliken charges:
               1
     1  C   -0.208336
     2  C    0.191987
     3  O   -0.552427
     4  C    0.117014
     5  C   -0.319619
     6  H    0.156078
     7  H    0.167281
     8  H    0.160850
     9  N   -0.264952
    10  H    0.284350
    11  H    0.283557
    12  C   -0.368599
    13  H    0.149266
    14  H    0.150650
    15  H    0.151754
    16  C    0.088056
    17  C   -0.232896
    18  C   -0.173049
    19  C   -0.133267
    20  C   -0.133586
    21  C   -0.208952
    22  H    0.137498
    23  H    0.144907
    24  H    0.146641
    25  H    0.144469
    26  H    0.171573
    27  C    0.253405
    28  C   -0.292897
    29  C   -0.142327
    30  C   -0.156367
    31  C   -0.147803
    32  C   -0.273575
    33  H    0.134579
    34  H    0.133494
    35  H    0.137547
    36  H    0.133617
    37  H    0.151293
    38  N   -0.490260
    39  H    0.263902
    40  H    0.245143
 Sum of Mulliken charges =  -0.00000

 Dipole moment (field-independent basis, Debye):
    X=              8.1611    Y=              3.3058    Z=             -8.5300  Tot=             12.2594
 Quadrupole moment (field-independent basis, Debye-Ang):
   XX=           -109.9837   YY=           -103.2762   ZZ=           -127.7591
   XY=              3.7110   XZ=              9.5549   YZ=            -12.7086

  Exact polarizability: 358.202   0.658 287.483  -6.518 -14.503 258.333
 Approx polarizability: 274.190  -0.161 242.709  -7.359 -13.391 218.155

 ******    1 imaginary frequencies (negative Signs) ******

                      1                      2                      3
                      A                      A                      A
 Frequencies --   -362.8339                38.9760                45.0207
 Red. masses --      4.9242                 3.9127                 3.8789
 Frc consts  --      0.3819                 0.0035                 0.0046
 IR Inten    --    514.3544                 0.1822                 0.8902

                      4                      5                      6
                      A                      A                      A
 Frequencies --     56.9078                76.9206                95.0991
 Red. masses --      4.0715                 4.7795                 5.8314
 Frc consts  --      0.0078                 0.0167                 0.0311
 IR Inten    --      4.7268                 4.6455                14.9437

                      7                      8                      9
                      A                      A                      A
 Frequencies --    103.0370               113.3180               150.3829
 Red. masses --      3.9268                 2.2427                 3.4510
 Frc consts  --      0.0246                 0.0170                 0.0460
 IR Inten    --      3.4180                10.3004                 9.4244

                     10                     11                     12
                      A                      A                      A
 Frequencies --    162.2040               196.0322               207.3475
 Red. masses --      2.7063                 1.5254                 3.3681
 Frc consts  --      0.0420                 0.0345                 0.0853
 IR Inten    --      7.8100                 3.4311                 5.9165

                     13                     14                     15
                      A                      A                      A
 Frequencies --    232.1059               267.4400               282.0633
 Red. masses --      4.0854                 3.0657                 2.0718
 Frc consts  --      0.1297                 0.1292                 0.0971
 IR Inten    --      2.0264                 4.9089                 3.4886

                     16                     17                     18
                      A                      A                      A
 Frequencies --    291.1910               311.3703               329.1842
 Red. masses --      2.6738                 1.8942                 3.5981
 Frc consts  --      0.1336                 0.1082                 0.2297
 IR Inten    --      3.7730                 1.2580                 2.9422

                     19                     20                     21
                      A                      A                      A
 Frequencies --    337.6163               385.4733               421.6853
 Red. masses --      2.4503                 3.2366                 3.1897
 Frc consts  --      0.1646                 0.2834                 0.3342
 IR Inten    --     37.7680                14.8520                 4.4410

                     22                     23                     24
                      A                      A                      A
 Frequencies --    425.4572               429.8383               446.5525
 Red. masses --      3.5137                 2.9320                 1.3165
 Frc consts  --      0.3747                 0.3192                 0.1547
 IR Inten    --      2.9166                 0.3329                42.0340

                     25                     26                     27
                      A                      A                      A
 Frequencies --    470.7658               534.3279               559.9677
 Red. masses --      3.3132                 3.3521                 3.2939
 Frc consts  --      0.4326                 0.5639                 0.6085
 IR Inten    --      7.8060                13.8797                33.8333

                     28                     29                     30
                      A                      A                      A
 Frequencies --    600.9624               624.0487               632.1957
 Red. masses --      2.7574                 3.6854                 2.6911
 Frc consts  --      0.5867                 0.8456                 0.6337
 IR Inten    --    213.1718                23.1195               116.5325

                     31                     32                     33
                      A                      A                      A
 Frequencies --    638.1863               642.3684               650.8385
 Red. masses --      5.0955                 4.2051                 2.7046
 Frc consts  --      1.2227                 1.0223                 0.6750
 IR Inten    --     16.9782                51.0162               103.8776

                     34                     35                     36
                      A                      A                      A
 Frequencies --    700.1502               713.9424               727.2681
 Red. masses --      1.4833                 4.5123                 1.5642
 Frc consts  --      0.4284                 1.3551                 0.4875
 IR Inten    --     40.8188                17.4225                87.9233

                     37                     38                     39
                      A                      A                      A
 Frequencies --    729.0273               789.4250               798.6189
 Red. masses --      1.5309                 2.4395                 2.1365
 Frc consts  --      0.4794                 0.8957                 0.8029
 IR Inten    --     84.1870                21.9757                45.7233

                     40                     41                     42
                      A                      A                      A
 Frequencies --    809.5626               845.9891               876.2402
 Red. masses --      6.5702                 3.1821                 1.2531
 Frc consts  --      2.5371                 1.3418                 0.5669
 IR Inten    --    111.9131                19.7386                 0.1635

                     43                     44                     45
                      A                      A                      A
 Frequencies --    877.3469               951.8129               960.0798
 Red. masses --      1.2496                 1.5066                 1.4191
 Frc consts  --      0.5667                 0.8042                 0.7707
 IR Inten    --      1.6640                 3.2204                 4.1842

                     46                     47                     48
                      A                      A                      A
 Frequencies --    980.2390              1010.3262              1018.0065
 Red. masses --      3.2479                 1.3793                 1.4079
 Frc consts  --      1.8387                 0.8295                 0.8596
 IR Inten    --     35.6722                 2.7651                 0.4230

                     49                     50                     51
                      A                      A                      A
 Frequencies --   1020.8956              1021.9460              1025.1778
 Red. masses --      1.3387                 1.3452                 4.2629
 Frc consts  --      0.8220                 0.8277                 2.6397
 IR Inten    --      1.5969                 5.2498                 5.7871

                     52                     53                     54
                      A                      A                      A
 Frequencies --   1026.6374              1035.4877              1044.4247
 Red. masses --      4.7390                 1.3425                 1.7759
 Frc consts  --      2.9429                 0.8481                 1.1414
 IR Inten    --      0.5502                21.3650               120.2765

                     55                     56                     57
                      A                      A                      A
 Frequencies --   1058.6783              1062.3656              1064.2439
 Red. masses --      1.2669                 2.1853                 2.0819
 Frc consts  --      0.8366                 1.4531                 1.3893
 IR Inten    --     32.5667                24.5395                13.4226

                     58                     59                     60
                      A                      A                      A
 Frequencies --   1086.0452              1088.3990              1101.6660
 Red. masses --      2.5970                 2.3660                 1.8131
 Frc consts  --      1.8047                 1.6514                 1.2965
 IR Inten    --     12.7171                17.1136                52.3734

                     61                     62                     63
                      A                      A                      A
 Frequencies --   1111.0842              1121.1251              1131.9489
 Red. masses --      1.5952                 1.7531                 1.7778
 Frc consts  --      1.1603                 1.2983                 1.3421
 IR Inten    --     21.0506                 6.0494                19.4597

                     64                     65                     66
                      A                      A                      A
 Frequencies --   1179.6422              1185.3820              1208.4589
 Red. masses --      1.1268                 1.1270                 1.1231
 Frc consts  --      0.9239                 0.9330                 0.9664
 IR Inten    --      0.0923                 0.1703                 0.3217

                     67                     68                     69
                      A                      A                      A
 Frequencies --   1215.6408              1247.0290              1254.7018
 Red. masses --      1.1429                 3.2851                 1.8155
 Frc consts  --      0.9951                 3.0099                 1.6839
 IR Inten    --      6.9949                90.2812                24.2877

                     70                     71                     72
                      A                      A                      A
 Frequencies --   1261.4622              1306.4490              1319.4157
 Red. masses --      2.4757                 4.6196                 4.3909
 Frc consts  --      2.3211                 4.6455                 4.5036
 IR Inten    --     66.9783                 2.9283                 5.9470

                     73                     74                     75
                      A                      A                      A
 Frequencies --   1354.2748              1357.8219              1370.5843
 Red. masses --      1.5720                 1.4729                 1.3235
 Frc consts  --      1.6987                 1.6000                 1.4648
 IR Inten    --     44.0998                 8.1578                12.0964

                     76                     77                     78
                      A                      A                      A
 Frequencies --   1375.5064              1418.3026              1423.2011
 Red. masses --      3.6685                 1.7005                 2.2563
 Frc consts  --      4.0895                 2.0154                 2.6926
 IR Inten    --    446.2859               114.2163               219.0575

                     79                     80                     81
                      A                      A                      A
 Frequencies --   1455.1743              1481.9431              1485.0986
 Red. masses --      1.1822                 1.1273                 1.9197
 Frc consts  --      1.4749                 1.4586                 2.4946
 IR Inten    --      4.4580                 1.6500                 6.8336

                     82                     83                     84
                      A                      A                      A
 Frequencies --   1489.0313              1495.8876              1501.1048
 Red. masses --      1.8768                 1.1723                 1.0688
 Frc consts  --      2.4518                 1.5456                 1.4189
 IR Inten    --     34.9772                15.1775                74.2787

                     85                     86                     87
                      A                      A                      A
 Frequencies --   1504.8495              1540.6965              1543.3917
 Red. masses --      1.0859                 2.2189                 2.3865
 Frc consts  --      1.4488                 3.1033                 3.3494
 IR Inten    --     19.8196                40.7806                48.1679

                     88                     89                     90
                      A                      A                      A
 Frequencies --   1600.3382              1632.0196              1634.7890
 Red. masses --      3.0554                 1.1558                 1.5070
 Frc consts  --      4.6105                 1.8138                 2.3730
 IR Inten    --    953.9903                23.5248               289.9687

                     91                     92                     93
                      A                      A                      A
 Frequencies --   1641.9085              1651.6532              1670.2175
 Red. masses --      5.2389                 4.6767                 5.9374
 Frc consts  --      8.3212                 7.5168                 9.7588
 IR Inten    --     17.4055                 5.3919                78.4813

                     94                     95                     96
                      A                      A                      A
 Frequencies --   1673.7235              3071.2873              3084.9239
 Red. masses --      5.7916                 1.0358                 1.0342
 Frc consts  --      9.5591                 5.7568                 5.7991
 IR Inten    --      4.5964                18.5757                31.4662

                     97                     98                     99
                      A                      A                      A
 Frequencies --   3148.7058              3158.0444              3166.1515
 Red. masses --      1.1018                 1.1034                 1.1045
 Frc consts  --      6.4363                 6.4837                 6.5234
 IR Inten    --     30.1386                24.9897                14.6683

                    100                    101                    102
                      A                      A                      A
 Frequencies --   3181.2875              3187.8321              3189.7447
 Red. masses --      1.0864                 1.0905                 1.1011
 Frc consts  --      6.4778                 6.5290                 6.6008
 IR Inten    --     12.6021                 1.8215                 4.3760

                    103                    104                    105
                      A                      A                      A
 Frequencies --   3197.9798              3198.5194              3205.5877
 Red. masses --      1.0860                 1.0923                 1.0888
 Frc consts  --      6.5437                 6.5843                 6.5919
 IR Inten    --      0.8933                35.4594                 4.0443

                    106                    107                    108
                      A                      A                      A
 Frequencies --   3209.6428              3215.2878              3217.2872
 Red. masses --      1.0940                 1.0916                 1.0973
 Frc consts  --      6.6399                 6.6492                 6.6921
 IR Inten    --     53.3389                15.7156                16.9198

                    109                    110                    111
                      A                      A                      A
 Frequencies --   3221.2103              3227.3941              3516.5104
 Red. masses --      1.0941                 1.0977                 1.0510
 Frc consts  --      6.6887                 6.7366                 7.6574
 IR Inten    --     36.4962                12.1590                35.8392

                    112                    113                    114
                      A                      A                      A
 Frequencies --   3578.0289              3601.5002              3678.3211
 Red. masses --      1.0479                 1.0956                 1.0977
 Frc consts  --      7.9044                 8.3728                 8.7507
 IR Inten    --     36.8653                54.8719                78.4753

 - Thermochemistry -
 -------------------
 Temperature   298.150 Kelvin.  Pressure   1.00000 Atm.
 Atom     1 has atomic number  6 and mass  12.00000

 Molecular mass:   268.15756 amu.
 Principal axes and moments of inertia in atomic units:
                           1         2         3
     Eigenvalues --  3008.889507736.998518150.19591
           X            0.99998   0.00115   0.00565
           Y           -0.00064   0.99595  -0.08987
           Z           -0.00573   0.08986   0.99594
 This molecule is an asymmetric top.
 Rotational symmetry number  1.
 Warning -- assumption of classical behavior for rotation
           may cause significant error
 Rotational temperatures (Kelvin)      0.02879     0.01119     0.01063
 Rotational constants (GHZ):           0.59980     0.23326     0.22144
    1 imaginary frequencies ignored.
 Zero-point vibrational energy     892904.6 (Joules/Mol)
                                  213.40932 (Kcal/Mol)
 Warning -- explicit consideration of  27 degrees of freedom as
           vibrations may cause significant error
 Vibrational temperatures:     56.08    64.77    81.88   110.67   136.83
          (Kelvin)            148.25   163.04   216.37   233.38   282.05
                              298.33   333.95   384.79   405.83   418.96
                              447.99   473.62   485.75   554.61   606.71
                              612.14   618.44   642.49   677.33   768.78
                              805.67   864.65   897.87   909.59   918.21
                              924.22   936.41  1007.36  1027.20  1046.38
                             1048.91  1135.81  1149.03  1164.78  1217.19
                             1260.71  1262.31  1369.45  1381.34  1410.35
                             1453.63  1464.68  1468.84  1470.35  1475.00
                             1477.10  1489.84  1502.69  1523.20  1528.51
                             1531.21  1562.58  1565.96  1585.05  1598.60
                             1613.05  1628.62  1697.24  1705.50  1738.70
                             1749.04  1794.20  1805.24  1814.96  1879.69
                             1898.34  1948.50  1953.60  1971.97  1979.05
                             2040.62  2047.67  2093.67  2132.19  2136.73
                             2142.38  2152.25  2159.75  2165.14  2216.72
                             2220.60  2302.53  2348.11  2352.10  2362.34
                             2376.36  2403.07  2408.11  4418.90  4438.52
                             4530.29  4543.72  4555.39  4577.16  4586.58
                             4589.33  4601.18  4601.96  4612.13  4617.96
                             4626.08  4628.96  4634.60  4643.50  5059.47
                             5147.99  5181.76  5292.28

 Zero-point correction=                           0.340089 (Hartree/Particle)
 Thermal correction to Energy=                    0.358455
 Thermal correction to Enthalpy=                  0.359399
 Thermal correction to Gibbs Free Energy=         0.293775
 Sum of electronic and zero-point Energies=           -844.249586
 Sum of electronic and thermal Energies=              -844.231221
 Sum of electronic and thermal Enthalpies=            -844.230276
 Sum of electronic and thermal Free Energies=         -844.295900

                     E (Thermal)             CV                S
                      KCal/Mol        Cal/Mol-Kelvin    Cal/Mol-Kelvin
 Total                  224.934             72.203            138.118
 Electronic               0.000              0.000              0.000
 Translational            0.889              2.981             42.658
 Rotational               0.889              2.981             33.606
 Vibrational            223.156             66.241             61.854
 Vibration     1          0.594              1.981              5.310
 Vibration     2          0.595              1.979              5.025
 Vibration     3          0.596              1.975              4.562
 Vibration     4          0.599              1.965              3.968
 Vibration     5          0.603              1.953              3.552
 Vibration     6          0.605              1.947              3.396
 Vibration     7          0.607              1.938              3.211
 Vibration     8          0.618              1.902              2.667
 Vibration     9          0.622              1.889              2.524
 Vibration    10          0.636              1.845              2.170
 Vibration    11          0.641              1.829              2.067
 Vibration    12          0.653              1.792              1.863
 Vibration    13          0.673              1.733              1.613
 Vibration    14          0.681              1.707              1.521
 Vibration    15          0.687              1.690              1.467
 Vibration    16          0.700              1.652              1.355
 Vibration    17          0.712              1.617              1.264
 Vibration    18          0.718              1.600              1.223
 Vibration    19          0.754              1.501              1.018
 Vibration    20          0.784              1.423              0.886
 Vibration    21          0.787              1.415              0.874
 Vibration    22          0.791              1.405              0.859
 Vibration    23          0.806              1.368              0.806
 Vibration    24          0.828              1.315              0.735
 Vibration    25          0.889              1.174              0.578
 Vibration    26          0.916              1.118              0.524
 Vibration    27          0.959              1.030              0.448

 Optimization completed.
    -- Stationary point found.
 Normal termination of Gaussian 16 at Mon Mar 29 09:55:17 2021.
