 Gaussian 16, Revision A.03,
 Gaussian 16:  ES64L-G16RevA.03 25-Dec-2016

 ----------------------------------------------------------------------
 # wB97XD def2tzvp, opt=(ts, noeigen, calcfc, maxcycles=70, maxstep=1),
  freq=noraman, scrf=(iefpcm, solvent=water)
 ----------------------------------------------------------------------

 ------------------------
 0_iteration/TS-466-0.out
 ------------------------
 Symbolic Z-matrix:
 Charge =  0 Multiplicity = 1

 SCF Done:  E(RwB97XD) =  -2940.04759112     A.U. after   14 cycles
 SCF Done:  E(RwB97XD) =  -2940.04746516     A.U. after   10 cycles
 SCF Done:  E(RwB97XD) =  -2940.04734447     A.U. after   10 cycles
 SCF Done:  E(RwB97XD) =  -2940.04723541     A.U. after   10 cycles
 SCF Done:  E(RwB97XD) =  -2940.04715012     A.U. after   11 cycles
 SCF Done:  E(RwB97XD) =  -2940.04703968     A.U. after   10 cycles
 SCF Done:  E(RwB97XD) =  -2940.04693598     A.U. after   10 cycles
 SCF Done:  E(RwB97XD) =  -2940.04685486     A.U. after   11 cycles
 SCF Done:  E(RwB97XD) =  -2940.04677437     A.U. after   11 cycles
 SCF Done:  E(RwB97XD) =  -2940.04668390     A.U. after   10 cycles
 SCF Done:  E(RwB97XD) =  -2940.04710137     A.U. after   10 cycles
 SCF Done:  E(RwB97XD) =  -2940.04715710     A.U. after   10 cycles
 SCF Done:  E(RwB97XD) =  -2940.04719978     A.U. after   10 cycles
 SCF Done:  E(RwB97XD) =  -2940.04723325     A.U. after   10 cycles
 SCF Done:  E(RwB97XD) =  -2940.04726270     A.U. after   10 cycles
 SCF Done:  E(RwB97XD) =  -2940.04728531     A.U. after   10 cycles
 SCF Done:  E(RwB97XD) =  -2940.04729634     A.U. after   10 cycles
 SCF Done:  E(RwB97XD) =  -2940.04729861     A.U. after   10 cycles
 SCF Done:  E(RwB97XD) =  -2940.04729862     A.U. after    7 cycles
 Optimization completed.
    -- Stationary point found.
 Normal termination of Gaussian 16 at Sat Feb 13 08:22:01 2021.

 ---------------------------------------------------------------------
 #N Geom=AllCheck Guess=TCheck SCRF=Check GenChk RwB97XD/def2TZVP Freq
 ---------------------------------------------------------------------

 Structure from the checkpoint file:  "/beegfs/scratch/user/q/tla25/Gau-57493.chk"
 ------------------------
 0_iteration/TS-466-0.out
 ------------------------
 Charge =  0 Multiplicity = 1

                         Standard orientation:
 ---------------------------------------------------------------------
 Center     Atomic      Atomic             Coordinates (Angstroms)
 Number     Number       Type             X           Y           Z
 ---------------------------------------------------------------------
      1          6           0       -0.258567    0.264391    0.362919
      2          6           0       -0.618139    1.643981    0.238414
      3          8           0        0.223062    2.533246    0.433377
      4          6           0        1.019118   -0.100631    0.760350
      5          6           0        3.671541    0.048099   -0.596305
      6          1           0        4.246869    0.420422   -1.446054
      7          1           0        3.951418    0.614618    0.291986
      8          1           0        3.922863   -0.998490   -0.435401
      9          7           0        2.233152    0.173770   -0.804879
     10          1           0        1.969043    1.123127   -1.039200
     11          1           0        1.896332   -0.438212   -1.537700
     12          6           0        1.406047   -1.488203    1.161723
     13          1           0        0.853291   -1.759003    2.064250
     14          1           0        1.160742   -2.218112    0.391220
     15          1           0        2.468700   -1.549388    1.388168
     16          1           0        1.530762    0.694450    1.291223
     17         35           0       -1.469172   -1.089844   -0.251916
     18          6           0       -2.029299    2.031157   -0.137539
     19          1           0       -2.234102    1.752043   -1.173584
     20          1           0       -2.765608    1.519709    0.483600
     21          1           0       -2.140042    3.108238   -0.031695
 ---------------------------------------------------------------------

 SCF Done:  E(RwB97XD) =  -2940.04729862     A.U. after    1 cycles

 The electronic state is 1-A.
 Alpha  occ. eigenvalues -- -483.11993 -62.66838 -56.45932 -56.45608 -56.45603
 Alpha  occ. eigenvalues --  -19.20907 -14.46829 -10.35874 -10.34005 -10.31439
 Alpha  occ. eigenvalues --  -10.30036 -10.28347 -10.27277  -8.80957  -6.63044
 Alpha  occ. eigenvalues --   -6.62006  -6.61990  -2.73445  -2.73140  -2.73128
 Alpha  occ. eigenvalues --   -2.72287  -2.72286  -1.11607  -1.02477  -0.92982
 Alpha  occ. eigenvalues --   -0.86468  -0.82995  -0.79319  -0.77800  -0.68715
 Alpha  occ. eigenvalues --   -0.62456  -0.60182  -0.56189  -0.55617  -0.54482
 Alpha  occ. eigenvalues --   -0.52801  -0.51697  -0.49961  -0.49091  -0.47990
 Alpha  occ. eigenvalues --   -0.47473  -0.45662  -0.43988  -0.43331  -0.40774
 Alpha  occ. eigenvalues --   -0.38559  -0.37178  -0.32550  -0.27316
 Alpha virt. eigenvalues --    0.04159   0.08637   0.10311   0.13173   0.14124
 Alpha virt. eigenvalues --    0.14424   0.14645   0.16635   0.17762   0.19088
 Alpha virt. eigenvalues --    0.19514   0.19831   0.20459   0.20553   0.22033

 Mulliken charges:
               1
     1  C   -0.180105
     2  C    0.261961
     3  O   -0.526581
     4  C   -0.020538
     5  C   -0.286835
     6  H    0.148135
     7  H    0.149515
     8  H    0.154677
     9  N   -0.377962
    10  H    0.278123
    11  H    0.275424
    12  C   -0.342508
    13  H    0.151972
    14  H    0.140585
    15  H    0.146656
    16  H    0.154803
    17  Br  -0.164450
    18  C   -0.370672
    19  H    0.141173
    20  H    0.140300
    21  H    0.126328
 Sum of Mulliken charges =  -0.00000

 Dipole moment (field-independent basis, Debye):
    X=              5.5412    Y=             -3.2471    Z=             -2.2505  Tot=              6.8054
 Quadrupole moment (field-independent basis, Debye-Ang):
   XX=            -53.5889   YY=            -80.0680   ZZ=            -65.2040
   XY=             -5.2299   XZ=             -3.4440   YZ=             -3.6962

  Exact polarizability: 181.001  -5.237 156.396  -0.283   2.413 116.372
 Approx polarizability: 134.030   2.577 126.948   0.929   3.313 101.765

 ******    1 imaginary frequencies (negative Signs) ******

                      1                      2                      3
                      A                      A                      A
 Frequencies --   -333.6655                46.4664                79.1711
 Red. masses --      5.8973                 4.0889                 3.1885
 Frc consts  --      0.3868                 0.0052                 0.0118
 IR Inten    --    731.3208                 2.5883                 5.4195

                      4                      5                      6
                      A                      A                      A
 Frequencies --     87.0391               107.2256               144.6782
 Red. masses --      1.9408                 4.7594                 1.0352
 Frc consts  --      0.0087                 0.0322                 0.0128
 IR Inten    --      6.0865                27.0348                 0.5239

                      7                      8                      9
                      A                      A                      A
 Frequencies --    166.6257               178.5210               194.0697
 Red. masses --      1.1986                 3.6568                 4.2939
 Frc consts  --      0.0196                 0.0687                 0.0953
 IR Inten    --      0.9385                 8.8616                 8.8547

                     10                     11                     12
                      A                      A                      A
 Frequencies --    223.9370               245.6166               301.3523
 Red. masses --      2.4783                 1.1687                 2.7979
 Frc consts  --      0.0732                 0.0415                 0.1497
 IR Inten    --      2.2274                 1.0162                10.1227

                     13                     14                     15
                      A                      A                      A
 Frequencies --    390.7096               417.7102               428.7644
 Red. masses --      7.1138                 3.1642                 3.8388
 Frc consts  --      0.6398                 0.3253                 0.4158
 IR Inten    --      7.0950                31.7186               102.8610

                     16                     17                     18
                      A                      A                      A
 Frequencies --    539.6024               614.4671               623.6502
 Red. masses --      2.5405                 3.0254                 1.5218
 Frc consts  --      0.4358                 0.6730                 0.3487
 IR Inten    --     10.1372                46.6069                12.5871

                     19                     20                     21
                      A                      A                      A
 Frequencies --    650.9535               941.4558               947.0598
 Red. masses --      3.0337                 3.3060                 1.6245
 Frc consts  --      0.7574                 1.7264                 0.8585
 IR Inten    --     49.9831                48.5440                45.5854

                     22                     23                     24
                      A                      A                      A
 Frequencies --    989.0464              1005.4535              1017.7605
 Red. masses --      1.2474                 1.2363                 1.2082
 Frc consts  --      0.7189                 0.7364                 0.7374
 IR Inten    --    103.5265               105.5800                22.9058

                     25                     26                     27
                      A                      A                      A
 Frequencies --   1043.4010              1051.7263              1076.1039
 Red. masses --      1.7838                 1.5931                 3.3558
 Frc consts  --      1.1442                 1.0383                 2.2896
 IR Inten    --     15.0335                22.6111               145.4953

                     28                     29                     30
                      A                      A                      A
 Frequencies --   1134.9551              1166.2839              1201.0937
 Red. masses --      2.1415                 1.3710                 1.4160
 Frc consts  --      1.6253                 1.0988                 1.2036
 IR Inten    --     66.0090                78.3224                26.0342

                     31                     32                     33
                      A                      A                      A
 Frequencies --   1261.5549              1331.4607              1347.0540
 Red. masses --      1.4393                 2.7804                 1.3272
 Frc consts  --      1.3496                 2.9041                 1.4190
 IR Inten    --     92.7211               240.1586                11.2800

                     34                     35                     36
                      A                      A                      A
 Frequencies --   1394.3249              1411.3686              1451.4291
 Red. masses --      1.5072                 1.3056                 1.3668
 Frc consts  --      1.7264                 1.5323                 1.6965
 IR Inten    --     59.3591                77.7838               252.0339

                     37                     38                     39
                      A                      A                      A
 Frequencies --   1458.7818              1468.5709              1475.6497
 Red. masses --      1.1264                 1.0564                 1.3127
 Frc consts  --      1.4123                 1.3424                 1.6841
 IR Inten    --     48.8170                17.2468               187.3639

                     40                     41                     42
                      A                      A                      A
 Frequencies --   1481.6466              1493.4718              1498.6853
 Red. masses --      1.0677                 1.1506                 1.3011
 Frc consts  --      1.3810                 1.5120                 1.7217
 IR Inten    --     18.0583                98.1730               267.8086

                     43                     44                     45
                      A                      A                      A
 Frequencies --   1511.0604              1640.7419              1650.8394
 Red. masses --      1.0888                 3.6959                 1.3042
 Frc consts  --      1.4648                 5.8620                 2.0941
 IR Inten    --     21.3801               274.6233               121.8795

                     46                     47                     48
                      A                      A                      A
 Frequencies --   3056.8040              3060.7512              3064.9202
 Red. masses --      1.0355                 1.0371                 1.0387
 Frc consts  --      5.7010                 5.7245                 5.7489
 IR Inten    --     68.2233                 6.4837                10.9808

                     49                     50                     51
                      A                      A                      A
 Frequencies --   3128.6582              3130.5724              3135.1605
 Red. masses --      1.1033                 1.0991                 1.0980
 Frc consts  --      6.3628                 6.3463                 6.3587
 IR Inten    --     24.8706                12.9566                15.4770

                     52                     53                     54
                      A                      A                      A
 Frequencies --   3157.9016              3161.0547              3165.2771
 Red. masses --      1.1042                 1.1018                 1.1039
 Frc consts  --      6.4880                 6.4865                 6.5165
 IR Inten    --     22.7194                12.6542                27.7473

                     55                     56                     57
                      A                      A                      A
 Frequencies --   3183.2447              3533.5773              3617.8007
 Red. masses --      1.0906                 1.0505                 1.0965
 Frc consts  --      6.5109                 7.7279                 8.4554
 IR Inten    --     12.2655                14.9678                42.4235

 - Thermochemistry -
 -------------------
 Temperature   298.150 Kelvin.  Pressure   1.00000 Atm.
 Atom     1 has atomic number  6 and mass  12.00000

 Molecular mass:   193.01023 amu.
 Principal axes and moments of inertia in atomic units:
                           1         2         3
     Eigenvalues --  1402.912812289.331383248.74877
           X            0.99120  -0.13209  -0.00870
           Y            0.13171   0.99066  -0.03521
           Z            0.01327   0.03375   0.99934
 This molecule is an asymmetric top.
 Rotational symmetry number  1.
 Warning -- assumption of classical behavior for rotation
           may cause significant error
 Rotational temperatures (Kelvin)      0.06174     0.03783     0.02666
 Rotational constants (GHZ):           1.28642     0.78833     0.55552
    1 imaginary frequencies ignored.
 Zero-point vibrational energy     462280.5 (Joules/Mol)
                                  110.48769 (Kcal/Mol)
 Warning -- explicit consideration of  16 degrees of freedom as
           vibrations may cause significant error
 Vibrational temperatures:     66.85   113.91   125.23   154.27   208.16
          (Kelvin)            239.74   256.85   279.22   322.20   353.39
                              433.58   562.14   600.99   616.90   776.37
                              884.08   897.29   936.58  1354.54  1362.61
                             1423.02  1446.62  1464.33  1501.22  1513.20
                             1548.27  1632.95  1678.02  1728.11  1815.10
                             1915.67  1938.11  2006.12  2030.64  2088.28
                             2098.86  2112.95  2123.13  2131.76  2148.77
                             2156.27  2174.08  2360.66  2375.19  4398.06
                             4403.74  4409.74  4501.44  4504.20  4510.80
                             4543.52  4548.05  4554.13  4579.98  5084.03
                             5205.21

 Zero-point correction=                           0.176073 (Hartree/Particle)
 Thermal correction to Energy=                    0.187837
 Thermal correction to Enthalpy=                  0.188781
 Thermal correction to Gibbs Free Energy=         0.137086
 Sum of electronic and zero-point Energies=          -2939.871225
 Sum of electronic and thermal Energies=             -2939.859462
 Sum of electronic and thermal Enthalpies=           -2939.858517
 Sum of electronic and thermal Free Energies=        -2939.910213

                     E (Thermal)             CV                S
                      KCal/Mol        Cal/Mol-Kelvin    Cal/Mol-Kelvin
 Total                  117.870             39.977            108.802
 Electronic               0.000              0.000              0.000
 Translational            0.889              2.981             41.678
 Rotational               0.889              2.981             30.724
 Vibrational            116.092             34.016             36.400
 Vibration     1          0.595              1.979              4.962
 Vibration     2          0.600              1.963              3.911
 Vibration     3          0.601              1.958              3.726
 Vibration     4          0.606              1.943              3.319
 Vibration     5          0.616              1.908              2.741
 Vibration     6          0.624              1.884              2.473
 Vibration     7          0.629              1.869              2.344
 Vibration     8          0.635              1.848              2.189
 Vibration     9          0.649              1.805              1.927
 Vibration    10          0.660              1.770              1.762
 Vibration    11          0.693              1.671              1.409
 Vibration    12          0.758              1.490              0.997
 Vibration    13          0.781              1.432              0.900
 Vibration    14          0.790              1.408              0.863
 Vibration    15          0.895              1.162              0.566
 Vibration    16          0.974              1.001              0.425

 Optimization completed.
    -- Stationary point found.
 Normal termination of Gaussian 16 at Sat Feb 13 08:33:59 2021.
