 Gaussian 16, Revision A.03,
 Gaussian 16:  ES64L-G16RevA.03 25-Dec-2016

 ----------------------------------------------------------------------
 # wB97XD def2tzvp, opt=(ts, noeigen, calcfc, maxcycles=70, maxstep=8),
  freq=noraman, scrf=(iefpcm, solvent=water)
 ----------------------------------------------------------------------

 ------------------------
 1_iteration/TS-479-1.out
 ------------------------
 Symbolic Z-matrix:
 Charge =  0 Multiplicity = 1

 SCF Done:  E(RwB97XD) =  -1073.15516940     A.U. after   14 cycles
 Optimization completed.
    -- Stationary point found.
 Normal termination of Gaussian 16 at Sun Feb 14 06:23:27 2021.

 ---------------------------------------------------------------------
 #N Geom=AllCheck Guess=TCheck SCRF=Check GenChk RwB97XD/def2TZVP Freq
 ---------------------------------------------------------------------

 Structure from the checkpoint file:  "/beegfs/scratch/user/q/tla25/Gau-7904.chk"
 ------------------------
 1_iteration/TS-479-1.out
 ------------------------
 Charge =  0 Multiplicity = 1

                         Standard orientation:
 ---------------------------------------------------------------------
 Center     Atomic      Atomic             Coordinates (Angstroms)
 Number     Number       Type             X           Y           Z
 ---------------------------------------------------------------------
      1          6           0        1.596801    0.380799   -0.383250
      2          6           0        0.310581   -0.255741   -0.453020
      3          8           0        0.175440   -1.416071   -0.864520
      4          6           0        2.764991   -0.304751   -0.712910
      5          6           0        2.463240   -1.743851    1.660030
      6          1           0        2.875830   -2.085201    2.608860
      7          1           0        1.708220   -0.980821    1.848130
      8          1           0        1.993550   -2.575451    1.140640
      9          7           0        3.495840   -1.169101    0.803850
     10          1           0        4.030041   -0.465271    1.301040
     11          1           0        4.147590   -1.874091    0.479190
     12          6           0        4.000921    0.403049   -1.196550
     13          1           0        3.789511    0.849149   -2.169820
     14          1           0        4.302421    1.203409   -0.521230
     15          1           0        4.833411   -0.289401   -1.317500
     16          1           0        2.538790   -1.224331   -1.241880
     17         17           0        1.738851    2.006689    0.300280
     18          7           0       -0.774059    0.500770   -0.055420
     19          6           0       -2.129789    0.175050   -0.038320
     20          6           0       -2.653470   -1.048150   -0.463250
     21          6           0       -4.022670   -1.270120   -0.405650
     22          6           0       -4.892729   -0.300230    0.066680
     23          6           0       -4.372569    0.916430    0.489130
     24          6           0       -3.011329    1.152560    0.438520
     25          1           0       -0.555149    1.427780    0.269420
     26          1           0       -1.986520   -1.809120   -0.832760
     27          1           0       -4.409830   -2.225130   -0.739970
     28          1           0       -5.958049   -0.486480    0.105750
     29          1           0       -5.031029    1.691020    0.862370
     30          1           0       -2.619099    2.106830    0.771690
 ---------------------------------------------------------------------

 SCF Done:  E(RwB97XD) =  -1073.15516940     A.U. after    1 cycles

 The electronic state is 1-A.
 Alpha  occ. eigenvalues -- -101.68907 -19.19864 -14.48567 -14.45838 -10.38273
 Alpha  occ. eigenvalues --  -10.33885 -10.33656 -10.31420 -10.29891 -10.28909
 Alpha  occ. eigenvalues --  -10.28745 -10.28633 -10.28252 -10.28058 -10.27930
 Alpha  occ. eigenvalues --   -9.57440  -7.32035  -7.31266  -7.31218  -1.12854
 Alpha  occ. eigenvalues --   -1.04025  -1.03605  -0.96424  -0.94763  -0.87831
 Alpha  occ. eigenvalues --   -0.84957  -0.84795  -0.79877  -0.78146  -0.73656
 Alpha  occ. eigenvalues --   -0.71182  -0.67649  -0.64202  -0.63539  -0.62052
 Alpha  occ. eigenvalues --   -0.58975  -0.57495  -0.56963  -0.55377  -0.53668
 Alpha  occ. eigenvalues --   -0.52515  -0.51898  -0.51744  -0.50647  -0.49501
 Alpha  occ. eigenvalues --   -0.49138  -0.48086  -0.47328  -0.46434  -0.44588
 Alpha  occ. eigenvalues --   -0.44370  -0.42878  -0.42627  -0.40950  -0.40127
 Alpha  occ. eigenvalues --   -0.39256  -0.33616  -0.33456  -0.29992  -0.26153
 Alpha virt. eigenvalues --    0.04673   0.05540   0.09133   0.09967   0.11912
 Alpha virt. eigenvalues --    0.12920   0.13984   0.14223   0.15212   0.15880
 Alpha virt. eigenvalues --    0.16948   0.17542   0.18176   0.18356   0.19010

 Mulliken charges:
               1
     1  C   -0.211622
     2  C    0.395786
     3  O   -0.560027
     4  C   -0.042215
     5  C   -0.283895
     6  H    0.157693
     7  H    0.153522
     8  H    0.152545
     9  N   -0.325327
    10  H    0.282034
    11  H    0.288693
    12  C   -0.336407
    13  H    0.144223
    14  H    0.136950
    15  H    0.140713
    16  H    0.154287
    17  Cl  -0.200345
    18  N   -0.274701
    19  C    0.305783
    20  C   -0.299779
    21  C   -0.110792
    22  C   -0.202404
    23  C   -0.098474
    24  C   -0.314557
    25  H    0.228089
    26  H    0.159620
    27  H    0.139720
    28  H    0.139251
    29  H    0.142059
    30  H    0.139574
 Sum of Mulliken charges =  -0.00000

 Dipole moment (field-independent basis, Debye):
    X=              8.2080    Y=             -1.1542    Z=              3.7427  Tot=              9.0946
 Quadrupole moment (field-independent basis, Debye-Ang):
   XX=            -60.4528   YY=            -94.4324   ZZ=            -97.1727
   XY=            -15.0869   XZ=              4.6397   YZ=             -2.4877

  Exact polarizability: 318.468  -4.312 223.651  -3.068  17.578 162.326
 Approx polarizability: 224.667  -1.737 193.263  -2.181  18.470 142.471

 ******    1 imaginary frequencies (negative Signs) ******

                      1                      2                      3
                      A                      A                      A
 Frequencies --   -359.5375                16.7235                33.7427
 Red. masses --      5.7138                 3.9417                 4.7634
 Frc consts  --      0.4352                 0.0006                 0.0032
 IR Inten    --   1070.0291                 1.4330                 6.8798

                      4                      5                      6
                      A                      A                      A
 Frequencies --     70.8699                79.3761                93.2693
 Red. masses --      3.8794                 5.2815                 4.3521
 Frc consts  --      0.0115                 0.0196                 0.0223
 IR Inten    --      3.1413                 4.1673                 9.6041

                      7                      8                      9
                      A                      A                      A
 Frequencies --    116.4081               142.2892               197.8254
 Red. masses --      2.6280                 4.5088                 3.5929
 Frc consts  --      0.0210                 0.0538                 0.0828
 IR Inten    --      6.3530                24.1596                 0.4605

                     10                     11                     12
                      A                      A                      A
 Frequencies --    209.1828               224.3553               231.9286
 Red. masses --      1.2461                 5.8437                 1.3360
 Frc consts  --      0.0321                 0.1733                 0.0423
 IR Inten    --      3.7728                20.2154                 1.6211

                     13                     14                     15
                      A                      A                      A
 Frequencies --    240.0012               262.8837               296.4622
 Red. masses --      2.7848                 3.1971                 2.8315
 Frc consts  --      0.0945                 0.1302                 0.1466
 IR Inten    --      0.7677                 2.3544                 1.4883

                     16                     17                     18
                      A                      A                      A
 Frequencies --    352.3591               400.9443               423.6066
 Red. masses --      5.5630                 4.2912                 2.9992
 Frc consts  --      0.4069                 0.4064                 0.3171
 IR Inten    --      2.5654                72.7612                 0.0382

                     19                     20                     21
                      A                      A                      A
 Frequencies --    459.8562               480.0369               528.0140
 Red. masses --      7.9650                 3.7830                 2.8118
 Frc consts  --      0.9924                 0.5136                 0.4619
 IR Inten    --     28.6479                28.3079                28.2734

                     22                     23                     24
                      A                      A                      A
 Frequencies --    534.7131               555.3206               608.9178
 Red. masses --      2.7346                 1.1283                 4.4593
 Frc consts  --      0.4607                 0.2050                 0.9742
 IR Inten    --      1.8248               101.0549                13.2935

                     25                     26                     27
                      A                      A                      A
 Frequencies --    636.0859               713.3982               718.8865
 Red. masses --      6.3676                 1.7849                 1.9000
 Frc consts  --      1.5180                 0.5352                 0.5785
 IR Inten    --      2.2557                22.8925                63.7242

                     28                     29                     30
                      A                      A                      A
 Frequencies --    766.5210               782.7133               801.7927
 Red. masses --      7.2975                 1.8123                 6.9524
 Frc consts  --      2.5262                 0.6542                 2.6334
 IR Inten    --     29.4538                95.9531                19.7796

                     31                     32                     33
                      A                      A                      A
 Frequencies --    861.3633               867.1753               929.4078
 Red. masses --      1.2614                 5.0484                 1.4654
 Frc consts  --      0.5514                 2.2368                 0.7458
 IR Inten    --      0.0258                 4.0449                13.2265

                     34                     35                     36
                      A                      A                      A
 Frequencies --    953.7806               999.9391              1012.3386
 Red. masses --      1.6020                 1.3442                 1.3530
 Frc consts  --      0.8587                 0.7919                 0.8170
 IR Inten    --     39.7412                 0.0325                54.2244

                     37                     38                     39
                      A                      A                      A
 Frequencies --   1015.0396              1018.9738              1021.3810
 Red. masses --      1.2784                 5.1351                 1.1212
 Frc consts  --      0.7760                 3.1414                 0.6892
 IR Inten    --      0.6011                 7.9716                79.1915

                     40                     41                     42
                      A                      A                      A
 Frequencies --   1037.7075              1060.1676              1070.0507
 Red. masses --      2.2155                 1.9339                 2.3873
 Frc consts  --      1.4056                 1.2807                 1.6105
 IR Inten    --     11.8341                 1.5122                82.4847

                     43                     44                     45
                      A                      A                      A
 Frequencies --   1096.0004              1120.6876              1147.4169
 Red. masses --      2.6178                 1.5828                 2.4544
 Frc consts  --      1.8527                 1.1712                 1.9039
 IR Inten    --     41.7285                16.3246               176.6690

                     46                     47                     48
                      A                      A                      A
 Frequencies --   1181.5531              1193.9639              1207.1150
 Red. masses --      1.1189                 1.2323                 1.1417
 Frc consts  --      0.9204                 1.0350                 0.9802
 IR Inten    --      4.0835               156.8642                26.4448

                     49                     50                     51
                      A                      A                      A
 Frequencies --   1234.3008              1253.2161              1270.4511
 Red. masses --      1.3995                 1.5717                 2.2311
 Frc consts  --      1.2562                 1.4544                 2.1217
 IR Inten    --     37.0738               345.2151               247.8502

                     52                     53                     54
                      A                      A                      A
 Frequencies --   1301.1094              1348.5953              1352.0904
 Red. masses --      3.5096                 3.2145                 1.3397
 Frc consts  --      3.5005                 3.4445                 1.4430
 IR Inten    --    113.0409               482.5416                14.3558

                     55                     56                     57
                      A                      A                      A
 Frequencies --   1360.4949              1413.7879              1455.9992
 Red. masses --      1.6508                 1.2724                 1.5962
 Frc consts  --      1.8003                 1.4984                 1.9937
 IR Inten    --      5.2881                23.3961               232.2903

                     58                     59                     60
                      A                      A                      A
 Frequencies --   1473.1987              1478.4528              1486.6810
 Red. masses --      1.3534                 1.8981                 1.0863
 Frc consts  --      1.7306                 2.4445                 1.4146
 IR Inten    --     13.5328               451.2860                68.6456

                     61                     62                     63
                      A                      A                      A
 Frequencies --   1494.2570              1501.6548              1509.7316
 Red. masses --      1.0413                 1.3811                 1.0966
 Frc consts  --      1.3699                 1.8350                 1.4726
 IR Inten    --     16.4287               296.3624               133.2671

                     64                     65                     66
                      A                      A                      A
 Frequencies --   1546.6032              1562.9235              1651.0877
 Red. masses --      2.5080                 2.1725                 3.9454
 Frc consts  --      3.5345                 3.1266                 6.3369
 IR Inten    --    192.6120               760.7809               306.5246

                     67                     68                     69
                      A                      A                      A
 Frequencies --   1652.1349              1661.0743              1677.7739
 Red. masses --      1.2475                 3.8413                 6.2836
 Frc consts  --      2.0062                 6.2446                10.4215
 IR Inten    --     64.7535               138.2434               262.4422

                     70                     71                     72
                      A                      A                      A
 Frequencies --   3064.4023              3075.0445              3137.2836
 Red. masses --      1.0362                 1.0334                 1.1014
 Frc consts  --      5.7333                 5.7576                 6.3872
 IR Inten    --     22.7517                30.4178                24.2957

                     73                     74                     75
                      A                      A                      A
 Frequencies --   3148.0850              3151.5025              3178.4675
 Red. masses --      1.1030                 1.1048                 1.1048
 Frc consts  --      6.4407                 6.4650                 6.5759
 IR Inten    --     20.5281                11.9782                11.2805

                     76                     77                     78
                      A                      A                      A
 Frequencies --   3185.4938              3186.0566              3195.1941
 Red. masses --      1.0878                 1.0887                 1.0883
 Frc consts  --      6.5039                 6.5113                 6.5462
 IR Inten    --     14.5227                 6.2441                 3.2071

                     79                     80                     81
                      A                      A                      A
 Frequencies --   3204.7709              3220.7303              3273.1026
 Red. masses --      1.0932                 1.0978                 1.0921
 Frc consts  --      6.6150                 6.7097                 6.8933
 IR Inten    --     32.0925                24.0783                 6.5797

                     82                     83                     84
                      A                      A                      A
 Frequencies --   3524.7069              3605.9237              3633.8308
 Red. masses --      1.0507                 1.0960                 1.0762
 Frc consts  --      7.6909                 8.3965                 8.3727
 IR Inten    --     47.9788                44.7416                91.6164

 - Thermochemistry -
 -------------------
 Temperature   298.150 Kelvin.  Pressure   1.00000 Atm.
 Atom     1 has atomic number  6 and mass  12.00000

 Molecular mass:   226.08729 amu.
 Principal axes and moments of inertia in atomic units:
                           1         2         3
     Eigenvalues --  1619.948676984.767367755.36807
           X            0.99990  -0.01377  -0.00109
           Y            0.01373   0.99948  -0.02910
           Z            0.00149   0.02908   0.99958
 This molecule is an asymmetric top.
 Rotational symmetry number  1.
 Warning -- assumption of classical behavior for rotation
           may cause significant error
 Rotational temperatures (Kelvin)      0.05347     0.01240     0.01117
 Rotational constants (GHZ):           1.11407     0.25838     0.23271
    1 imaginary frequencies ignored.
 Zero-point vibrational energy     653416.8 (Joules/Mol)
                                  156.17037 (Kcal/Mol)
 Warning -- explicit consideration of  23 degrees of freedom as
           vibrations may cause significant error
 Vibrational temperatures:     24.06    48.55   101.97   114.20   134.19
          (Kelvin)            167.49   204.72   284.63   300.97   322.80
                              333.69   345.31   378.23   426.54   506.97
                              576.87   609.48   661.63   690.67   759.69
                              769.33   798.98   876.10   915.19  1026.42
                             1034.32  1102.85  1126.15  1153.60  1239.31
                             1247.67  1337.21  1372.28  1438.69  1456.53
                             1460.42  1466.08  1469.54  1493.03  1525.34
                             1539.56  1576.90  1612.42  1650.88  1699.99
                             1717.85  1736.77  1775.88  1803.10  1827.90
                             1872.01  1940.33  1945.36  1957.45  2034.13
                             2094.86  2119.60  2127.16  2139.00  2149.90
                             2160.55  2172.17  2225.22  2248.70  2375.55
                             2377.05  2389.92  2413.94  4408.99  4424.30
                             4513.85  4529.39  4534.31  4573.11  4583.22
                             4584.02  4597.17  4610.95  4633.91  4709.26
                             5071.27  5188.12  5228.27

 Zero-point correction=                           0.248873 (Hartree/Particle)
 Thermal correction to Energy=                    0.264236
 Thermal correction to Enthalpy=                  0.265180
 Thermal correction to Gibbs Free Energy=         0.204311
 Sum of electronic and zero-point Energies=          -1072.906296
 Sum of electronic and thermal Energies=             -1072.890933
 Sum of electronic and thermal Enthalpies=           -1072.889989
 Sum of electronic and thermal Free Energies=        -1072.950858

                     E (Thermal)             CV                S
                      KCal/Mol        Cal/Mol-Kelvin    Cal/Mol-Kelvin
 Total                  165.811             56.476            128.109
 Electronic               0.000              0.000              0.000
 Translational            0.889              2.981             42.150
 Rotational               0.889              2.981             32.839
 Vibrational            164.033             50.515             53.120
 Vibration     1          0.593              1.986              6.990
 Vibration     2          0.594              1.983              5.596
 Vibration     3          0.598              1.968              4.129
 Vibration     4          0.600              1.963              3.906
 Vibration     5          0.602              1.954              3.590
 Vibration     6          0.608              1.936              3.159
 Vibration     7          0.616              1.911              2.773
 Vibration     8          0.637              1.843              2.153
 Vibration     9          0.642              1.827              2.051
 Vibration    10          0.649              1.804              1.924
 Vibration    11          0.653              1.792              1.864
 Vibration    12          0.657              1.779              1.803
 Vibration    13          0.670              1.741              1.643
 Vibration    14          0.690              1.680              1.437
 Vibration    15          0.729              1.570              1.156
 Vibration    16          0.767              1.468              0.959
 Vibration    17          0.786              1.419              0.880
 Vibration    18          0.818              1.339              0.767
 Vibration    19          0.836              1.294              0.710
 Vibration    20          0.883              1.188              0.592
 Vibration    21          0.890              1.173              0.577
 Vibration    22          0.911              1.128              0.533
 Vibration    23          0.968              1.013              0.435

 Optimization completed.
    -- Stationary point found.
 Normal termination of Gaussian 16 at Sun Feb 14 07:13:11 2021.
