 Gaussian 16, Revision A.03,
 Gaussian 16:  ES64L-G16RevA.03 25-Dec-2016

 ----------------------------------------------------------------------
 # wB97XD def2tzvp, opt=(ts, noeigen, calcfc, maxcycles=70, maxstep=3),
  freq=noraman, scrf=(iefpcm, solvent=water)
 ----------------------------------------------------------------------

 ------------------------
 3_iteration/TS-407-3.out
 ------------------------
 Symbolic Z-matrix:
 Charge =  0 Multiplicity = 1

 SCF Done:  E(RwB97XD) =  -1075.63620926     A.U. after   15 cycles
 SCF Done:  E(RwB97XD) =  -1075.63620939     A.U. after    7 cycles
 Optimization completed.
    -- Stationary point found.
 Normal termination of Gaussian 16 at Mon Jun 14 08:32:44 2021.

 ---------------------------------------------------------------------
 #N Geom=AllCheck Guess=TCheck SCRF=Check GenChk RwB97XD/def2TZVP Freq
 ---------------------------------------------------------------------

 Structure from the checkpoint file:  "/beegfs/scratch/user/q/tla25/Gau-152080.chk"
 ------------------------
 3_iteration/TS-407-3.out
 ------------------------
 Charge =  0 Multiplicity = 1

                         Standard orientation:
 ---------------------------------------------------------------------
 Center     Atomic      Atomic             Coordinates (Angstroms)
 Number     Number       Type             X           Y           Z
 ---------------------------------------------------------------------
      1          6           0       -1.129811   -0.121534   -0.000210
      2          6           0       -0.057763   -1.043305   -0.190523
      3          8           0       -0.198047   -2.187001   -0.649917
      4          6           0       -0.978213    1.182995    0.579800
      5          6           0       -1.108877   -0.185295    2.965791
      6          1           0       -0.802148   -1.075073    2.423438
      7          1           0       -0.800460   -0.266073    4.006702
      8          1           0       -2.190754   -0.088484    2.911873
      9          7           0       -0.485626    0.981718    2.342958
     10          1           0       -0.726804    1.821642    2.857249
     11          1           0        0.524312    0.886520    2.370310
     12          6           0       -2.256004    1.986386    0.775617
     13          1           0       -2.642313    2.287911   -0.197056
     14          1           0       -3.028025    1.404584    1.277411
     15          1           0       -2.057665    2.894752    1.344496
     16          6           0        0.112893    2.106573    0.046725
     17          6           0        0.406924    2.049731   -1.315674
     18          6           0        1.334678    2.906472   -1.885710
     19          6           0        1.988198    3.847186   -1.104418
     20          6           0        1.692323    3.930062    0.246952
     21          6           0        0.758279    3.075634    0.813818
     22          1           0       -0.095872    1.309631   -1.924102
     23          1           0        1.548076    2.834453   -2.944551
     24          1           0        2.718422    4.513481   -1.545193
     25          1           0        2.186855    4.665133    0.868805
     26          1           0        0.548100    3.190905    1.868312
     27          6           0       -2.492071   -0.643735   -0.315773
     28          6           0       -3.219538   -0.123616   -1.387589
     29          6           0       -4.490770   -0.585837   -1.699894
     30          6           0       -5.064835   -1.601182   -0.949492
     31          6           0       -4.352012   -2.147419    0.109702
     32          6           0       -3.086415   -1.672231    0.418577
     33          1           0       -2.774565    0.659793   -1.990662
     34          1           0       -5.029535   -0.156583   -2.536122
     35          1           0       -6.055261   -1.967452   -1.189762
     36          1           0       -4.785744   -2.945506    0.700406
     37          1           0       -2.542440   -2.112859    1.244326
     38          7           0        1.225352   -0.629962    0.220554
     39          6           0        2.423671   -1.320812    0.025396
     40          6           0        2.532132   -2.709372    0.121896
     41          6           0        3.767837   -3.319672   -0.032091
     42          6           0        4.913506   -2.573164   -0.269597
     43          6           0        4.809777   -1.191520   -0.353376
     44          6           0        3.579780   -0.571855   -0.212933
     45          1           0        1.357703    0.366945    0.244771
     46          1           0        1.648210   -3.297697    0.310562
     47          1           0        3.833323   -4.398458    0.043278
     48          1           0        5.873194   -3.060101   -0.384795
     49          1           0        5.690674   -0.588626   -0.536621
     50          1           0        3.506884    0.507942   -0.290275
 ---------------------------------------------------------------------

 SCF Done:  E(RwB97XD) =  -1075.63620939     A.U. after    1 cycles

 The electronic state is 1-A.
 Alpha  occ. eigenvalues --  -19.18707 -14.50358 -14.44730 -10.36662 -10.36272
 Alpha  occ. eigenvalues --  -10.33036 -10.32106 -10.31158 -10.30107 -10.29697
 Alpha  occ. eigenvalues --  -10.29583 -10.29525 -10.29482 -10.28924 -10.28763
 Alpha  occ. eigenvalues --  -10.28627 -10.28498 -10.28446 -10.28267 -10.28238
 Alpha  occ. eigenvalues --  -10.28160 -10.27987 -10.27912 -10.27796 -10.27775
 Alpha  occ. eigenvalues --  -10.24677  -1.11508  -1.05900  -1.02482  -0.97903
 Alpha  occ. eigenvalues --   -0.95832  -0.94898  -0.91847  -0.86583  -0.85818
 Alpha  occ. eigenvalues --   -0.84762  -0.84370  -0.84112  -0.83478  -0.79827
 Alpha  occ. eigenvalues --   -0.79226  -0.73072  -0.71703  -0.71090  -0.70745
 Alpha  occ. eigenvalues --   -0.69382  -0.68398  -0.66793  -0.64715  -0.63904
 Alpha  occ. eigenvalues --   -0.62587  -0.61774  -0.59977  -0.58701  -0.57631
 Alpha  occ. eigenvalues --   -0.57261  -0.56260  -0.54611  -0.54066  -0.53390
 Alpha  occ. eigenvalues --   -0.53179  -0.52947  -0.52179  -0.51455  -0.50945
 Alpha  occ. eigenvalues --   -0.50677  -0.50066  -0.49992  -0.49759  -0.49626
 Alpha  occ. eigenvalues --   -0.48216  -0.47953  -0.46998  -0.46422  -0.45684
 Alpha  occ. eigenvalues --   -0.45160  -0.44377  -0.44222  -0.43494  -0.42496
 Alpha  occ. eigenvalues --   -0.42433  -0.41506  -0.41002  -0.38341  -0.34523
 Alpha  occ. eigenvalues --   -0.33992  -0.33865  -0.33081  -0.32708  -0.31956
 Alpha  occ. eigenvalues --   -0.29716  -0.25350
 Alpha virt. eigenvalues --    0.03268   0.04336   0.05476   0.05685   0.05949
 Alpha virt. eigenvalues --    0.06251   0.08728   0.10097   0.12030   0.12516
 Alpha virt. eigenvalues --    0.13013   0.13881   0.14034   0.14694   0.15318

 Mulliken charges:
               1
     1  C   -0.151808
     2  C    0.244571
     3  O   -0.546911
     4  C    0.050956
     5  C   -0.321240
     6  H    0.158207
     7  H    0.170656
     8  H    0.164519
     9  N   -0.257128
    10  H    0.289940
    11  H    0.290192
    12  C   -0.371438
    13  H    0.153166
    14  H    0.152614
    15  H    0.153666
    16  C    0.095194
    17  C   -0.220146
    18  C   -0.141064
    19  C   -0.122460
    20  C   -0.175801
    21  C   -0.203820
    22  H    0.170921
    23  H    0.145037
    24  H    0.147422
    25  H    0.145942
    26  H    0.141357
    27  C    0.239020
    28  C   -0.278933
    29  C   -0.150989
    30  C   -0.151930
    31  C   -0.143806
    32  C   -0.295377
    33  H    0.151850
    34  H    0.133781
    35  H    0.137810
    36  H    0.133806
    37  H    0.139162
    38  N   -0.255527
    39  C    0.257757
    40  C   -0.306147
    41  C   -0.095527
    42  C   -0.191316
    43  C   -0.128631
    44  C   -0.279766
    45  H    0.211727
    46  H    0.138215
    47  H    0.138906
    48  H    0.138155
    49  H    0.138562
    50  H    0.156653
 Sum of Mulliken charges =  -0.00000

 Dipole moment (field-independent basis, Debye):
    X=              0.3871    Y=             10.3181    Z=              8.3205  Tot=             13.2606
 Quadrupole moment (field-independent basis, Debye-Ang):
   XX=           -150.1867   YY=           -151.6201   ZZ=           -133.6362
   XY=              4.9167   XZ=             -6.3017   YZ=             -1.5041

  Exact polarizability: 453.529  27.631 410.315  -3.597  -3.533 341.829
 Approx polarizability: 341.980  23.502 332.097  -1.042  -3.028 294.712

 ******    1 imaginary frequencies (negative Signs) ******

                      1                      2                      3
                      A                      A                      A
 Frequencies --   -355.2099                15.2602                28.8646
 Red. masses --      4.9825                 4.6674                 4.2104
 Frc consts  --      0.3704                 0.0006                 0.0021
 IR Inten    --    625.5017                 1.6336                 0.9561

                      4                      5                      6
                      A                      A                      A
 Frequencies --     38.5590                46.6311                52.3148
 Red. masses --      3.9536                 4.2891                 4.1448
 Frc consts  --      0.0035                 0.0055                 0.0067
 IR Inten    --      0.2233                 2.2928                 1.7671

                      7                      8                      9
                      A                      A                      A
 Frequencies --     59.9837                73.4646                93.5488
 Red. masses --      4.4238                 4.3627                 7.3738
 Frc consts  --      0.0094                 0.0139                 0.0380
 IR Inten    --      0.8498                 2.9242                12.4592

                     10                     11                     12
                      A                      A                      A
 Frequencies --    102.5845               124.9229               140.7963
 Red. masses --      3.6633                 3.8592                 2.3041
 Frc consts  --      0.0227                 0.0355                 0.0269
 IR Inten    --      0.8387                 4.0459                13.1176

                     13                     14                     15
                      A                      A                      A
 Frequencies --    164.9457               199.8678               201.7959
 Red. masses --      2.8063                 1.4633                 3.3344
 Frc consts  --      0.0450                 0.0344                 0.0800
 IR Inten    --      4.3207                 4.0286                 8.7099

                     16                     17                     18
                      A                      A                      A
 Frequencies --    226.0594               236.8712               263.8631
 Red. masses --      4.5263                 4.7873                 5.2087
 Frc consts  --      0.1363                 0.1583                 0.2137
 IR Inten    --      5.0563                 0.5782                 1.2924

                     19                     20                     21
                      A                      A                      A
 Frequencies --    275.4456               287.9976               302.8705
 Red. masses --      3.4912                 2.0949                 3.4244
 Frc consts  --      0.1561                 0.1024                 0.1851
 IR Inten    --      4.7795                 6.0960                 6.7830

                     22                     23                     24
                      A                      A                      A
 Frequencies --    328.7262               346.3452               348.2658
 Red. masses --      2.0744                 2.7997                 2.0167
 Frc consts  --      0.1321                 0.1979                 0.1441
 IR Inten    --     13.7702                 9.5509                30.7480

                     25                     26                     27
                      A                      A                      A
 Frequencies --    372.2563               422.5866               425.5264
 Red. masses --      5.6298                 2.9121                 3.0336
 Frc consts  --      0.4597                 0.3064                 0.3236
 IR Inten    --      6.5591                 1.9144                 2.9698

                     28                     29                     30
                      A                      A                      A
 Frequencies --    427.9710               433.1509               475.6811
 Red. masses --      2.9668                 3.8833                 5.1325
 Frc consts  --      0.3202                 0.4293                 0.6842
 IR Inten    --      2.4944                 9.6387                 8.4525

                     31                     32                     33
                      A                      A                      A
 Frequencies --    522.4927               531.4729               553.8315
 Red. masses --      2.4879                 3.6743                 3.9113
 Frc consts  --      0.4002                 0.6115                 0.7068
 IR Inten    --     56.3835                24.0051                50.0629

                     34                     35                     36
                      A                      A                      A
 Frequencies --    569.3652               585.0915               614.6432
 Red. masses --      2.4137                 1.8814                 5.0917
 Frc consts  --      0.4610                 0.3795                 1.1333
 IR Inten    --      7.1063                70.0162                62.5323

                     37                     38                     39
                      A                      A                      A
 Frequencies --    632.6238               638.0344               642.1153
 Red. masses --      5.4931                 6.1072                 5.4591
 Frc consts  --      1.2953                 1.4648                 1.3262
 IR Inten    --     16.7432                 4.1297                26.0751

                     40                     41                     42
                      A                      A                      A
 Frequencies --    643.0942               685.7401               709.9774
 Red. masses --      5.7453                 5.6658                 1.4456
 Frc consts  --      1.3999                 1.5697                 0.4293
 IR Inten    --     34.9472                20.9941                54.7548

                     43                     44                     45
                      A                      A                      A
 Frequencies --    719.2651               728.2429               729.0886
 Red. masses --      1.8659                 1.5489                 1.5386
 Frc consts  --      0.5688                 0.4840                 0.4819
 IR Inten    --     55.8990               114.8637                88.3235

                     46                     47                     48
                      A                      A                      A
 Frequencies --    769.2262               781.3459               793.6802
 Red. masses --      2.4543                 2.2539                 5.1063
 Frc consts  --      0.8556                 0.8107                 1.8952
 IR Inten    --     21.9117                38.9592               111.0156

                     49                     50                     51
                      A                      A                      A
 Frequencies --    798.7764               823.4858               842.5091
 Red. masses --      2.1774                 4.6082                 2.9481
 Frc consts  --      0.8185                 1.8412                 1.2330
 IR Inten    --     42.1622                 5.5741                12.9773

                     52                     53                     54
                      A                      A                      A
 Frequencies --    860.2477               877.6359               877.9953
 Red. masses --      1.2587                 1.2515                 1.2622
 Frc consts  --      0.5488                 0.5679                 0.5733
 IR Inten    --      2.3924                 2.7007                 0.3031

                     55                     56                     57
                      A                      A                      A
 Frequencies --    893.3000               933.8304               955.0323
 Red. masses --      3.6505                 1.5829                 1.4988
 Frc consts  --      1.7163                 0.8133                 0.8054
 IR Inten    --     34.5450                 7.1807                 0.6779

                     58                     59                     60
                      A                      A                      A
 Frequencies --    962.1280               991.4657               999.5780
 Red. masses --      1.4079                 3.6534                 1.3490
 Frc consts  --      0.7678                 2.1160                 0.7942
 IR Inten    --      4.9796                75.1097                 0.2581

                     61                     62                     63
                      A                      A                      A
 Frequencies --   1010.6077              1015.1936              1020.0292
 Red. masses --      1.3795                 1.2903                 1.4254
 Frc consts  --      0.8301                 0.7835                 0.8738
 IR Inten    --      3.8027                 0.7306                 0.6521

                     64                     65                     66
                      A                      A                      A
 Frequencies --   1020.5855              1021.7220              1025.4444
 Red. masses --      5.0198                 1.3260                 5.1246
 Frc consts  --      3.0806                 0.8156                 3.1750
 IR Inten    --     12.3603                 0.4962                 3.0455

                     67                     68                     69
                      A                      A                      A
 Frequencies --   1025.9753              1029.6237              1038.1259
 Red. masses --      4.3000                 1.3427                 1.3211
 Frc consts  --      2.6668                 0.8386                 0.8389
 IR Inten    --      2.6431                10.0488                 8.7277

                     70                     71                     72
                      A                      A                      A
 Frequencies --   1049.5536              1060.9752              1063.4868
 Red. masses --      1.8744                 2.1219                 2.1849
 Frc consts  --      1.2165                 1.4073                 1.4559
 IR Inten    --     73.3930                 9.8971                30.3734

                     73                     74                     75
                      A                      A                      A
 Frequencies --   1064.2796              1068.0813              1085.8265
 Red. masses --      1.6253                 1.5062                 3.0685
 Frc consts  --      1.0847                 1.0124                 2.1315
 IR Inten    --     32.0047                56.8565                14.1038

                     76                     77                     78
                      A                      A                      A
 Frequencies --   1091.3979              1108.7712              1115.3820
 Red. masses --      2.1017                 1.5837                 2.1598
 Frc consts  --      1.4750                 1.1471                 1.5831
 IR Inten    --     55.7614                12.0645                13.7722

                     79                     80                     81
                      A                      A                      A
 Frequencies --   1121.0589              1125.7995              1178.6354
 Red. masses --      1.5804                 1.6084                 1.1259
 Frc consts  --      1.1702                 1.2010                 0.9215
 IR Inten    --     15.9979                33.0502                 0.2146

                     82                     83                     84
                      A                      A                      A
 Frequencies --   1181.2517              1184.9370              1205.2232
 Red. masses --      1.1227                 1.1288                 1.5905
 Frc consts  --      0.9230                 0.9338                 1.3612
 IR Inten    --      3.0033                 1.7287                96.1853

                     85                     86                     87
                      A                      A                      A
 Frequencies --   1207.1285              1212.3265              1222.7198
 Red. masses --      1.2843                 1.5129                 1.1573
 Frc consts  --      1.1026                 1.3101                 1.0194
 IR Inten    --     35.2232                22.9419                 8.8021

                     88                     89                     90
                      A                      A                      A
 Frequencies --   1250.7225              1266.0433              1277.5240
 Red. masses --      3.8407                 1.3553                 2.7851
 Frc consts  --      3.5399                 1.2800                 2.6781
 IR Inten    --     29.1733                75.4486               378.9410

                     91                     92                     93
                      A                      A                      A
 Frequencies --   1304.3883              1317.6626              1337.6243
 Red. masses --      4.4668                 4.7334                 4.4818
 Frc consts  --      4.4778                 4.8421                 4.7247
 IR Inten    --      8.7767                 6.3604               548.7040

                     94                     95                     96
                      A                      A                      A
 Frequencies --   1343.7807              1356.3021              1361.6237
 Red. masses --      3.4615                 1.5376                 1.4489
 Frc consts  --      3.6828                 1.6665                 1.5827
 IR Inten    --    213.2712                31.1565                16.3050

                     97                     98                     99
                      A                      A                      A
 Frequencies --   1365.8249              1375.2871              1401.6153
 Red. masses --      1.7565                 1.3342                 4.3097
 Frc consts  --      1.9306                 1.4868                 4.9884
 IR Inten    --    113.8722                 4.2836               250.1913

                    100                    101                    102
                      A                      A                      A
 Frequencies --   1422.6619              1457.3475              1468.1236
 Red. masses --      1.2299                 1.1735                 1.9757
 Frc consts  --      1.4666                 1.4685                 2.5089
 IR Inten    --     24.6843                 5.9485               222.7224

                    103                    104                    105
                      A                      A                      A
 Frequencies --   1483.7417              1488.7461              1489.7724
 Red. masses --      2.1148                 1.0666                 2.0518
 Frc consts  --      2.7431                 1.3928                 2.6831
 IR Inten    --      2.6778                 5.8906                35.8389

                    106                    107                    108
                      A                      A                      A
 Frequencies --   1497.7321              1499.8603              1506.9827
 Red. masses --      1.1146                 1.0463                 1.0814
 Frc consts  --      1.4731                 1.3868                 1.4469
 IR Inten    --     31.9358                46.0206                13.9998

                    109                    110                    111
                      A                      A                      A
 Frequencies --   1541.4851              1543.3286              1544.2743
 Red. masses --      2.3434                 2.1935                 2.4700
 Frc consts  --      3.2808                 3.0783                 3.4705
 IR Inten    --    223.9125                36.6632               187.4578

                    112                    113                    114
                      A                      A                      A
 Frequencies --   1554.1630              1636.9912              1640.7488
 Red. masses --      2.0686                 5.6204                 1.4185
 Frc consts  --      2.9439                 8.8739                 2.2499
 IR Inten    --     64.7863               802.1294               130.2140

                    115                    116                    117
                      A                      A                      A
 Frequencies --   1641.4487              1653.9713              1661.8071
 Red. masses --      4.8070                 2.9498                 4.3328
 Frc consts  --      7.6309                 4.7544                 7.0499
 IR Inten    --     29.6450                 6.0161               146.4634

                    118                    119                    120
                      A                      A                      A
 Frequencies --   1670.6909              1674.3432              1676.1895
 Red. masses --      5.2705                 5.2714                 6.0261
 Frc consts  --      8.6676                 8.7070                 9.9754
 IR Inten    --     72.7551                 2.4758               265.2239

                    121                    122                    123
                      A                      A                      A
 Frequencies --   3070.8315              3088.4293              3148.8864
 Red. masses --      1.0362                 1.0336                 1.1021
 Frc consts  --      5.7572                 5.8089                 6.4385
 IR Inten    --     20.5921                26.9311                33.7568

                    124                    125                    126
                      A                      A                      A
 Frequencies --   3159.4041              3171.7970              3177.5274
 Red. masses --      1.1029                 1.1050                 1.0889
 Frc consts  --      6.4861                 6.5499                 6.4776
 IR Inten    --     19.0734                11.7337                15.0209

                    127                    128                    129
                      A                      A                      A
 Frequencies --   3181.7133              3188.7021              3192.2104
 Red. masses --      1.0864                 1.0873                 1.1052
 Frc consts  --      6.4800                 6.5139                 6.6353
 IR Inten    --     12.6863                 0.0563                 6.5261

                    130                    131                    132
                      A                      A                      A
 Frequencies --   3193.7853              3198.7679              3199.3153
 Red. masses --      1.0875                 1.0921                 1.0861
 Frc consts  --      6.5354                 6.5837                 6.5499
 IR Inten    --      2.1053                32.2971                 0.6395

                    133                    134                    135
                      A                      A                      A
 Frequencies --   3202.6598              3207.0295              3208.5476
 Red. masses --      1.0927                 1.0888                 1.0938
 Frc consts  --      6.6034                 6.5979                 6.6347
 IR Inten    --     31.7987                 3.4716                52.1276

                    136                    137                    138
                      A                      A                      A
 Frequencies --   3216.1433              3216.8226              3218.7635
 Red. masses --      1.0918                 1.0981                 1.0976
 Frc consts  --      6.6534                 6.6952                 6.7003
 IR Inten    --     14.4166                19.9348                27.0221

                    139                    140                    141
                      A                      A                      A
 Frequencies --   3222.2639              3228.6335              3260.0380
 Red. masses --      1.0944                 1.0975                 1.0923
 Frc consts  --      6.6947                 6.7407                 6.8397
 IR Inten    --     35.3097                11.7315                 2.3086

                    142                    143                    144
                      A                      A                      A
 Frequencies --   3514.7539              3595.5568              3627.4527
 Red. masses --      1.0511                 1.0954                 1.0748
 Frc consts  --      7.6507                 8.3437                 8.3330
 IR Inten    --     37.7904                56.2802               169.0735

 - Thermochemistry -
 -------------------
 Temperature   298.150 Kelvin.  Pressure   1.00000 Atm.
 Atom     1 has atomic number  6 and mass  12.00000

 Molecular mass:   344.18886 amu.
 Principal axes and moments of inertia in atomic units:
                           1         2         3
     Eigenvalues --  6828.75519********************
           X            0.99999   0.00133  -0.00486
           Y           -0.00134   1.00000  -0.00197
           Z            0.00485   0.00198   0.99999
 This molecule is an asymmetric top.
 Rotational symmetry number  1.
 Warning -- assumption of classical behavior for rotation
           may cause significant error
 Rotational temperatures (Kelvin)      0.01268     0.00794     0.00595
 Rotational constants (GHZ):           0.26429     0.16539     0.12394
    1 imaginary frequencies ignored.
 Zero-point vibrational energy    1107379.9 (Joules/Mol)
                                  264.67014 (Kcal/Mol)
 Warning -- explicit consideration of  35 degrees of freedom as
           vibrations may cause significant error
 Vibrational temperatures:     21.96    41.53    55.48    67.09    75.27
          (Kelvin)             86.30   105.70   134.60   147.60   179.74
                              202.57   237.32   287.57   290.34   325.25
                              340.80   379.64   396.30   414.36   435.76
                              472.96   498.31   501.08   535.59   608.01
                              612.24   615.75   623.21   684.40   751.75
                              764.67   796.84   819.19   841.82   884.33
                              910.20   917.99   923.86   925.27   986.63
                             1021.50  1034.86  1047.78  1049.00  1106.74
                             1124.18  1141.93  1149.26  1184.81  1212.18
                             1237.70  1262.72  1263.24  1285.26  1343.57
                             1374.08  1384.29  1426.50  1438.17  1454.04
                             1460.64  1467.59  1468.39  1470.03  1475.39
                             1476.15  1481.40  1493.63  1510.07  1526.51
                             1530.12  1531.26  1536.73  1562.26  1570.28
                             1595.27  1604.79  1612.95  1619.77  1695.79
                             1699.56  1704.86  1734.05  1736.79  1744.27
                             1759.22  1799.51  1821.55  1838.07  1876.72
                             1895.82  1924.54  1933.40  1951.42  1959.07
                             1965.12  1978.73  2016.61  2046.89  2096.80
                             2112.30  2134.77  2141.97  2143.45  2154.90
                             2157.96  2168.21  2217.85  2220.51  2221.87
                             2236.09  2355.27  2360.67  2361.68  2379.70
                             2390.97  2403.75  2409.01  2411.66  4418.24
                             4443.56  4530.55  4545.68  4563.51  4571.75
                             4577.78  4587.83  4592.88  4595.14  4602.31
                             4603.10  4607.91  4614.20  4616.38  4627.31
                             4628.29  4631.08  4636.12  4645.28  4690.47
                             5056.95  5173.20  5219.10

 Zero-point correction=                           0.421779 (Hartree/Particle)
 Thermal correction to Energy=                    0.444742
 Thermal correction to Enthalpy=                  0.445686
 Thermal correction to Gibbs Free Energy=         0.367571
 Sum of electronic and zero-point Energies=          -1075.214431
 Sum of electronic and thermal Energies=             -1075.191468
 Sum of electronic and thermal Enthalpies=           -1075.190524
 Sum of electronic and thermal Free Energies=        -1075.268638

                     E (Thermal)             CV                S
                      KCal/Mol        Cal/Mol-Kelvin    Cal/Mol-Kelvin
 Total                  279.080             90.138            164.406
 Electronic               0.000              0.000              0.000
 Translational            0.889              2.981             43.402
 Rotational               0.889              2.981             35.338
 Vibrational            277.302             84.176             85.665
 Vibration     1          0.593              1.986              7.171
 Vibration     2          0.593              1.984              5.906
 Vibration     3          0.594              1.981              5.332
 Vibration     4          0.595              1.979              4.955
 Vibration     5          0.596              1.977              4.728
 Vibration     6          0.597              1.973              4.458
 Vibration     7          0.599              1.967              4.058
 Vibration     8          0.603              1.954              3.584
 Vibration     9          0.605              1.947              3.405
 Vibration    10          0.610              1.928              3.023
 Vibration    11          0.615              1.912              2.793
 Vibration    12          0.623              1.886              2.492
 Vibration    13          0.638              1.840              2.134
 Vibration    14          0.639              1.837              2.117
 Vibration    15          0.650              1.801              1.910
 Vibration    16          0.656              1.784              1.826
 Vibration    17          0.670              1.739              1.636
 Vibration    18          0.677              1.719              1.562
 Vibration    19          0.685              1.696              1.486
 Vibration    20          0.694              1.668              1.401
 Vibration    21          0.712              1.618              1.266
 Vibration    22          0.724              1.583              1.183
 Vibration    23          0.726              1.579              1.174
 Vibration    24          0.744              1.529              1.070
 Vibration    25          0.785              1.421              0.883
 Vibration    26          0.787              1.415              0.873
 Vibration    27          0.789              1.409              0.865
 Vibration    28          0.794              1.398              0.848
 Vibration    29          0.832              1.304              0.722
 Vibration    30          0.877              1.200              0.604
 Vibration    31          0.886              1.180              0.584
 Vibration    32          0.909              1.131              0.536
 Vibration    33          0.925              1.098              0.505
 Vibration    34          0.942              1.064              0.476
 Vibration    35          0.974              1.001              0.425

 Optimization completed.
    -- Stationary point found.
 Normal termination of Gaussian 16 at Mon Jun 14 11:11:43 2021.
