 Gaussian 16, Revision A.03,
 Gaussian 16:  ES64L-G16RevA.03 25-Dec-2016

 ----------------------------------------------------------------------
 # wB97XD def2tzvp, opt=(ts, noeigen, calcfc, maxcycles=70, maxstep=8),
  freq=noraman, scrf=(iefpcm, solvent=water)
 ----------------------------------------------------------------------

 -----------------------
 1_iteration/TS-47-1.out
 -----------------------
 Symbolic Z-matrix:
 Charge =  0 Multiplicity = 1

 SCF Done:  E(RwB97XD) =  -1036.33324081     A.U. after   15 cycles
 SCF Done:  E(RwB97XD) =  -1036.33324081     A.U. after    6 cycles
 Optimization completed.
    -- Stationary point found.
 Normal termination of Gaussian 16 at Sat Apr 17 04:35:40 2021.

 ---------------------------------------------------------------------
 #N Geom=AllCheck Guess=TCheck SCRF=Check GenChk RwB97XD/def2TZVP Freq
 ---------------------------------------------------------------------

 Structure from the checkpoint file:  "/beegfs/scratch/user/q/tla25/Gau-303490.chk"
 -----------------------
 1_iteration/TS-47-1.out
 -----------------------
 Charge =  0 Multiplicity = 1

                         Standard orientation:
 ---------------------------------------------------------------------
 Center     Atomic      Atomic             Coordinates (Angstroms)
 Number     Number       Type             X           Y           Z
 ---------------------------------------------------------------------
      1          6           0        0.280172   -0.332590   -0.202630
      2          6           0       -1.046056   -0.868719   -0.285128
      3          8           0       -1.283672   -2.092285   -0.250227
      4          6           0        1.308332   -1.300627   -0.292644
      5          6           0        1.193564   -1.731291    2.504129
      6          1           0        0.753101   -2.350167    3.285856
      7          1           0        2.207076   -1.460120    2.790445
      8          1           0        0.595625   -0.824962    2.392900
      9          7           0        1.210790   -2.417889    1.221577
     10          1           0        1.917911   -3.141282    1.171346
     11          1           0        0.298885   -2.812251    0.999982
     12          6           0        2.750377   -0.939726   -0.362684
     13          6           0        3.351646   -0.065417    0.542089
     14          6           0        4.700287    0.232973    0.444688
     15          6           0        5.470820   -0.329982   -0.564428
     16          6           0        4.884625   -1.202790   -1.468147
     17          6           0        3.536317   -1.511151   -1.359559
     18          1           0        2.759827    0.394683    1.321738
     19          1           0        5.151669    0.912129    1.156873
     20          1           0        6.523845   -0.090911   -0.642471
     21          1           0        5.477155   -1.650068   -2.256171
     22          1           0        3.085042   -2.201464   -2.062609
     23          1           0        1.069813   -2.146101   -0.930746
     24          6           0        0.524589    1.118453   -0.004964
     25          6           0        0.032681    1.802003    1.111363
     26          6           0        0.254590    3.160273    1.285704
     27          6           0        0.988768    3.872503    0.348420
     28          6           0        1.482736    3.215154   -0.770104
     29          6           0        1.242485    1.861655   -0.946745
     30          1           0       -0.531824    1.255108    1.857933
     31          1           0       -0.138148    3.660337    2.162554
     32          1           0        1.170320    4.931044    0.485592
     33          1           0        2.049380    3.761619   -1.514151
     34          1           0        1.622784    1.359968   -1.828303
     35          7           0       -2.077730    0.047084   -0.417916
     36          6           0       -3.455739   -0.134202   -0.347487
     37          6           0       -4.082583   -1.374294   -0.199210
     38          6           0       -5.467273   -1.444578   -0.131552
     39          6           0       -6.254001   -0.306160   -0.212593
     40          6           0       -5.631977    0.926672   -0.363932
     41          6           0       -4.253877    1.013876   -0.429741
     42          1           0       -1.784448    1.006912   -0.491327
     43          1           0       -3.480882   -2.266255   -0.141384
     44          1           0       -5.934235   -2.415274   -0.015037
     45          1           0       -7.332696   -0.375794   -0.160750
     46          1           0       -6.223653    1.831421   -0.430008
     47          1           0       -3.781472    1.983138   -0.545136
 ---------------------------------------------------------------------

 SCF Done:  E(RwB97XD) =  -1036.33324081     A.U. after    1 cycles

 The electronic state is 1-A.
 Alpha  occ. eigenvalues --  -19.19966 -14.47766 -14.45581 -10.37441 -10.33679
 Alpha  occ. eigenvalues --  -10.33530 -10.31368 -10.30339 -10.29704 -10.29299
 Alpha  occ. eigenvalues --  -10.29218 -10.29191 -10.29146 -10.29116 -10.28851
 Alpha  occ. eigenvalues --  -10.28734 -10.28692 -10.28657 -10.28566 -10.28530
 Alpha  occ. eigenvalues --  -10.28456 -10.28292 -10.27961 -10.27832 -10.25523
 Alpha  occ. eigenvalues --   -1.12485  -1.03648  -1.03123  -0.97321  -0.96307
 Alpha  occ. eigenvalues --   -0.95039  -0.90457  -0.86642  -0.85376  -0.84831
 Alpha  occ. eigenvalues --   -0.84639  -0.84129  -0.82072  -0.78720  -0.75266
 Alpha  occ. eigenvalues --   -0.71862  -0.71075  -0.70427  -0.69857  -0.69494
 Alpha  occ. eigenvalues --   -0.66986  -0.64541  -0.62942  -0.62326  -0.61593
 Alpha  occ. eigenvalues --   -0.59732  -0.58376  -0.57468  -0.56791  -0.54966
 Alpha  occ. eigenvalues --   -0.54835  -0.54707  -0.53407  -0.52975  -0.52440
 Alpha  occ. eigenvalues --   -0.52097  -0.51315  -0.51156  -0.50647  -0.50385
 Alpha  occ. eigenvalues --   -0.49603  -0.49509  -0.47800  -0.47543  -0.47254
 Alpha  occ. eigenvalues --   -0.46163  -0.46007  -0.44482  -0.43796  -0.43276
 Alpha  occ. eigenvalues --   -0.42537  -0.42330  -0.42016  -0.41674  -0.39083
 Alpha  occ. eigenvalues --   -0.35156  -0.34247  -0.33716  -0.33545  -0.32790
 Alpha  occ. eigenvalues --   -0.32379  -0.29961  -0.25316
 Alpha virt. eigenvalues --    0.02436   0.04497   0.04962   0.05554   0.06132
 Alpha virt. eigenvalues --    0.06427   0.10470   0.10714   0.12322   0.13067
 Alpha virt. eigenvalues --    0.13370   0.13820   0.14398   0.14681   0.16078

 Mulliken charges:
               1
     1  C   -0.263353
     2  C    0.420524
     3  O   -0.602829
     4  C    0.073056
     5  C   -0.297207
     6  H    0.155808
     7  H    0.157224
     8  H    0.134085
     9  N   -0.287337
    10  H    0.277648
    11  H    0.275317
    12  C    0.161126
    13  C   -0.259526
    14  C   -0.156334
    15  C   -0.145204
    16  C   -0.138033
    17  C   -0.247355
    18  H    0.191747
    19  H    0.141960
    20  H    0.144788
    21  H    0.143042
    22  H    0.140528
    23  H    0.144248
    24  C    0.092108
    25  C   -0.295944
    26  C   -0.126048
    27  C   -0.141918
    28  C   -0.167202
    29  C   -0.196014
    30  H    0.152902
    31  H    0.139059
    32  H    0.141055
    33  H    0.136958
    34  H    0.141435
    35  N   -0.261655
    36  C    0.299857
    37  C   -0.301869
    38  C   -0.114181
    39  C   -0.203300
    40  C   -0.097420
    41  C   -0.326106
    42  H    0.248737
    43  H    0.157446
    44  H    0.138913
    45  H    0.138608
    46  H    0.141279
    47  H    0.139374
 Sum of Mulliken charges =  -0.00000

 Dipole moment (field-independent basis, Debye):
    X=              6.2434    Y=             -0.5184    Z=              3.5441  Tot=              7.1978
 Quadrupole moment (field-independent basis, Debye-Ang):
   XX=           -140.2756   YY=           -132.3740   ZZ=           -140.8127
   XY=            -13.1979   XZ=             -2.1113   YZ=             -4.9811

  Exact polarizability: 495.512   5.632 402.150 -21.556  11.658 301.537
 Approx polarizability: 352.391   9.102 329.087 -20.098  12.269 262.438

 ******    1 imaginary frequencies (negative Signs) ******

                      1                      2                      3
                      A                      A                      A
 Frequencies --   -388.3304                12.8942                22.9112
 Red. masses --      6.1116                 3.7359                 5.3094
 Frc consts  --      0.5430                 0.0004                 0.0016
 IR Inten    --   1041.8962                 0.3040                 0.3686

                      4                      5                      6
                      A                      A                      A
 Frequencies --     39.5300                43.9165                47.3305
 Red. masses --      4.6190                 5.1604                 3.9151
 Frc consts  --      0.0043                 0.0059                 0.0052
 IR Inten    --      0.3812                 0.4566                 1.2135

                      7                      8                      9
                      A                      A                      A
 Frequencies --     60.6823                82.8913                92.8515
 Red. masses --      4.4538                 3.3512                 3.3568
 Frc consts  --      0.0097                 0.0136                 0.0171
 IR Inten    --      4.3443                 5.6580                 0.9101

                     10                     11                     12
                      A                      A                      A
 Frequencies --    103.6289               114.5053               131.2495
 Red. masses --      4.9465                 5.2051                 3.0807
 Frc consts  --      0.0313                 0.0402                 0.0313
 IR Inten    --      3.0418                18.3875                17.9644

                     13                     14                     15
                      A                      A                      A
 Frequencies --    177.3973               192.9288               207.1624
 Red. masses --      3.8969                 2.2705                 4.9626
 Frc consts  --      0.0723                 0.0498                 0.1255
 IR Inten    --     24.6035                29.0964                 2.7908

                     16                     17                     18
                      A                      A                      A
 Frequencies --    222.6515               246.2023               257.3053
 Red. masses --      4.5322                 3.8266                 2.8166
 Frc consts  --      0.1324                 0.1367                 0.1099
 IR Inten    --      5.7992                 1.8195                 9.3155

                     19                     20                     21
                      A                      A                      A
 Frequencies --    277.2139               289.1683               356.5073
 Red. masses --      2.6650                 2.3071                 4.8311
 Frc consts  --      0.1207                 0.1137                 0.3618
 IR Inten    --      0.6762                29.9005                 2.8039

                     22                     23                     24
                      A                      A                      A
 Frequencies --    359.6523               392.1308               423.8820
 Red. masses --      6.4306                 6.8757                 2.9974
 Frc consts  --      0.4901                 0.6229                 0.3173
 IR Inten    --     40.9815                12.2053                 0.0266

                     25                     26                     27
                      A                      A                      A
 Frequencies --    426.5493               430.3815               483.2117
 Red. masses --      2.8943                 2.9123                 5.0933
 Frc consts  --      0.3103                 0.3178                 0.7007
 IR Inten    --      1.6707                 2.4403                 1.3321

                     28                     29                     30
                      A                      A                      A
 Frequencies --    512.3379               528.3357               558.2311
 Red. masses --      3.8767                 2.7963                 4.1095
 Frc consts  --      0.5995                 0.4599                 0.7545
 IR Inten    --      7.2521                23.2364                48.3890

                     31                     32                     33
                      A                      A                      A
 Frequencies --    578.5584               581.7496               620.6043
 Red. masses --      1.3143                 2.6039                 4.4587
 Frc consts  --      0.2592                 0.5192                 1.0118
 IR Inten    --     50.1029               159.8098                 8.0660

                     34                     35                     36
                      A                      A                      A
 Frequencies --    631.7283               635.6917               637.9308
 Red. masses --      6.1983                 6.3266                 6.3779
 Frc consts  --      1.4574                 1.5063                 1.5292
 IR Inten    --      1.0771                 2.1948                 1.5478

                     37                     38                     39
                      A                      A                      A
 Frequencies --    662.0207               703.9965               718.4029
 Red. masses --      4.6799                 1.9099                 1.8890
 Frc consts  --      1.2085                 0.5577                 0.5744
 IR Inten    --     27.8572                94.4638                63.7673

                     40                     41                     42
                      A                      A                      A
 Frequencies --    730.0109               730.8599               739.0692
 Red. masses --      1.7788                 1.7077                 2.3553
 Frc consts  --      0.5585                 0.5374                 0.7580
 IR Inten    --     24.8514                90.4686               173.0343

                     43                     44                     45
                      A                      A                      A
 Frequencies --    780.5973               782.4699               801.7534
 Red. masses --      4.3132                 1.9461                 2.1837
 Frc consts  --      1.5485                 0.7020                 0.8270
 IR Inten    --     11.3751               106.7939                 8.5821

                     46                     47                     48
                      A                      A                      A
 Frequencies --    806.3588               817.4348               860.2019
 Red. masses --      5.6316                 3.0427                 1.2649
 Frc consts  --      2.1574                 1.1979                 0.5514
 IR Inten    --      0.9155                22.1665                 0.1936

                     49                     50                     51
                      A                      A                      A
 Frequencies --    875.2501               881.2955               883.9775
 Red. masses --      4.7249                 1.2853                 1.2495
 Frc consts  --      2.1326                 0.5882                 0.5753
 IR Inten    --      9.4798                 0.9574                 0.5848

                     52                     53                     54
                      A                      A                      A
 Frequencies --    903.5733               927.7590               958.9096
 Red. masses --      3.7912                 1.4800                 1.4685
 Frc consts  --      1.8237                 0.7505                 0.7956
 IR Inten    --     28.3047                14.8552                 4.6153

                     55                     56                     57
                      A                      A                      A
 Frequencies --    966.3209               999.3601              1010.6913
 Red. masses --      1.4284                 1.3417                 1.1504
 Frc consts  --      0.7859                 0.7895                 0.6923
 IR Inten    --      3.8107                 0.0206               106.8266

                     58                     59                     60
                      A                      A                      A
 Frequencies --   1013.8263              1016.4730              1017.5040
 Red. masses --      1.2795                 1.3861                 5.5522
 Frc consts  --      0.7748                 0.8438                 3.3868
 IR Inten    --      1.0073                 3.4833                11.0455

                     61                     62                     63
                      A                      A                      A
 Frequencies --   1018.4306              1024.9888              1026.9192
 Red. masses --      1.3929                 5.2121                 3.5481
 Frc consts  --      0.8512                 3.2263                 2.2045
 IR Inten    --      0.1650                 1.8063                 2.0558

                     64                     65                     66
                      A                      A                      A
 Frequencies --   1027.5240              1034.8398              1039.6668
 Red. masses --      1.4909                 1.3655                 2.8452
 Frc consts  --      0.9274                 0.8615                 1.8120
 IR Inten    --      0.7271                 6.9142               217.0853

                     67                     68                     69
                      A                      A                      A
 Frequencies --   1052.1046              1060.5768              1063.8968
 Red. masses --      3.1304                 2.1374                 2.1564
 Frc consts  --      2.0416                 1.4165                 1.4380
 IR Inten    --    102.7928                22.6162                 1.3942

                     70                     71                     72
                      A                      A                      A
 Frequencies --   1070.7663              1079.4617              1109.9012
 Red. masses --      1.7871                 1.4240                 1.5701
 Frc consts  --      1.2072                 0.9776                 1.1396
 IR Inten    --     16.4527                44.1692                 8.5224

                     73                     74                     75
                      A                      A                      A
 Frequencies --   1115.5115              1121.0881              1167.9063
 Red. masses --      1.5505                 1.6027                 2.6777
 Frc consts  --      1.1368                 1.1868                 2.1519
 IR Inten    --     23.0998                 7.1234                 6.1371

                     76                     77                     78
                      A                      A                      A
 Frequencies --   1180.4239              1181.2468              1183.7694
 Red. masses --      1.1253                 1.1360                 1.1381
 Frc consts  --      0.9238                 0.9339                 0.9397
 IR Inten    --      4.8805                 1.0191                 0.5333

                     79                     80                     81
                      A                      A                      A
 Frequencies --   1205.0599              1208.0005              1209.1963
 Red. masses --      1.1475                 1.3655                 1.1790
 Frc consts  --      0.9818                 1.1741                 1.0157
 IR Inten    --     58.6978                35.8702                20.5180

                     82                     83                     84
                      A                      A                      A
 Frequencies --   1213.4822              1224.1375              1249.0097
 Red. masses --      1.1404                 1.5662                 1.9745
 Frc consts  --      0.9894                 1.3828                 1.8148
 IR Inten    --     31.5972               133.4510               669.2775

                     85                     86                     87
                      A                      A                      A
 Frequencies --   1280.5129              1301.9882              1307.6281
 Red. masses --      1.9182                 3.2166                 4.0135
 Frc consts  --      1.8531                 3.2126                 4.0434
 IR Inten    --    116.0633                66.2297                29.0193

                     88                     89                     90
                      A                      A                      A
 Frequencies --   1331.7221              1345.8862              1355.9160
 Red. masses --      4.4824                 2.5405                 1.4607
 Frc consts  --      4.6837                 2.7114                 1.5823
 IR Inten    --     97.3087               592.9917                34.7640

                     91                     92                     93
                      A                      A                      A
 Frequencies --   1358.3920              1359.7383              1367.8777
 Red. masses --      1.7286                 1.4992                 1.4513
 Frc consts  --      1.8792                 1.6332                 1.5999
 IR Inten    --     19.8393                 2.6050                61.6791

                     94                     95                     96
                      A                      A                      A
 Frequencies --   1387.7477              1442.1241              1456.8798
 Red. masses --      2.6968                 1.9498                 1.4832
 Frc consts  --      3.0600                 2.3892                 1.8548
 IR Inten    --     81.2662               316.0319               109.5557

                     97                     98                     99
                      A                      A                      A
 Frequencies --   1473.7633              1487.6586              1498.7769
 Red. masses --      2.1423                 2.2493                 1.0413
 Frc consts  --      2.7415                 2.9330                 1.3782
 IR Inten    --    355.2533                51.0729                17.7135

                    100                    101                    102
                      A                      A                      A
 Frequencies --   1504.6739              1512.0953              1542.0632
 Red. masses --      2.2786                 1.0544                 2.4274
 Frc consts  --      3.0395                 1.4204                 3.4009
 IR Inten    --    113.1932                 1.2312                51.0456

                    103                    104                    105
                      A                      A                      A
 Frequencies --   1544.2786              1550.7838              1557.0485
 Red. masses --      2.4968                 2.4873                 2.2877
 Frc consts  --      3.5082                 3.5244                 3.2678
 IR Inten    --    312.9799                10.4899               487.1170

                    106                    107                    108
                      A                      A                      A
 Frequencies --   1629.1526              1640.3674              1653.1142
 Red. masses --      2.9932                 4.8809                 1.6290
 Frc consts  --      4.6807                 7.7380                 2.6229
 IR Inten    --    807.0515                37.1706                 3.0639

                    109                    110                    111
                      A                      A                      A
 Frequencies --   1655.5524              1661.1305              1669.3974
 Red. masses --      4.6867                 2.9193                 5.6767
 Frc consts  --      7.5684                 4.7462                 9.3211
 IR Inten    --     25.5356               152.8495                17.3820

                    112                    113                    114
                      A                      A                      A
 Frequencies --   1675.3587              1678.8168              3064.2229
 Red. masses --      5.9951                 5.8569                 1.0339
 Frc consts  --      9.9143                 9.7257                 5.7198
 IR Inten    --    251.4921                 0.9627                47.1138

                    115                    116                    117
                      A                      A                      A
 Frequencies --   3134.8762              3143.5943              3169.5751
 Red. masses --      1.1040                 1.0891                 1.1038
 Frc consts  --      6.3922                 6.3410                 6.5337
 IR Inten    --     10.9830                26.4973                18.9743

                    118                    119                    120
                      A                      A                      A
 Frequencies --   3183.8021              3184.9281              3190.2818
 Red. masses --      1.0879                 1.0870                 1.0871
 Frc consts  --      6.4973                 6.4966                 6.5190
 IR Inten    --     16.2665                12.3626                 1.2853

                    121                    122                    123
                      A                      A                      A
 Frequencies --   3190.8684              3194.1745              3198.4722
 Red. masses --      1.0875                 1.0882                 1.0882
 Frc consts  --      6.5240                 6.5414                 6.5591
 IR Inten    --      6.9183                 4.0925                 1.1441

                    124                    125                    126
                      A                      A                      A
 Frequencies --   3200.7288              3203.7698              3207.1760
 Red. masses --      1.0911                 1.0930                 1.0949
 Frc consts  --      6.5857                 6.6100                 6.6353
 IR Inten    --     13.8220                31.5199                48.7212

                    127                    128                    129
                      A                      A                      A
 Frequencies --   3208.5825              3218.7689              3219.6010
 Red. masses --      1.0924                 1.0987                 1.0965
 Frc consts  --      6.6261                 6.7067                 6.6967
 IR Inten    --     24.8392                21.4296                32.5825

                    130                    131                    132
                      A                      A                      A
 Frequencies --   3220.3464              3229.1805              3261.0080
 Red. masses --      1.0977                 1.0951                 1.0932
 Frc consts  --      6.7071                 6.7278                 6.8494
 IR Inten    --     24.3494                 7.4837                 6.9961

                    133                    134                    135
                      A                      A                      A
 Frequencies --   3465.6636              3592.8532              3637.5957
 Red. masses --      1.0582                 1.0905                 1.0761
 Frc consts  --      7.4886                 8.2935                 8.3896
 IR Inten    --     76.7809                86.4209                91.3589

 - Thermochemistry -
 -------------------
 Temperature   298.150 Kelvin.  Pressure   1.00000 Atm.
 Atom     1 has atomic number  6 and mass  12.00000

 Molecular mass:   330.17321 amu.
 Principal axes and moments of inertia in atomic units:
                           1         2         3
     Eigenvalues --  4496.90434********************
           X            1.00000  -0.00248  -0.00029
           Y            0.00248   0.99996  -0.00830
           Z            0.00031   0.00830   0.99997
 This molecule is an asymmetric top.
 Rotational symmetry number  1.
 Warning -- assumption of classical behavior for rotation
           may cause significant error
 Rotational temperatures (Kelvin)      0.01926     0.00630     0.00533
 Rotational constants (GHZ):           0.40133     0.13135     0.11102
    1 imaginary frequencies ignored.
 Zero-point vibrational energy    1033492.4 (Joules/Mol)
                                  247.01062 (Kcal/Mol)
 Warning -- explicit consideration of  32 degrees of freedom as
           vibrations may cause significant error
 Vibrational temperatures:     18.55    32.96    56.87    63.19    68.10
          (Kelvin)             87.31   119.26   133.59   149.10   164.75
                              188.84   255.24   277.58   298.06   320.35
                              354.23   370.20   398.85   416.05   512.93
                              517.46   564.19   609.87   613.71   619.22
                              695.23   737.14   760.16   803.17   832.42
                              837.01   892.91   908.92   914.62   917.84
                              952.50  1012.89  1033.62  1050.32  1051.54
                             1063.36  1123.11  1125.80  1153.54  1160.17
                             1176.11  1237.64  1259.29  1267.99  1271.85
                             1300.04  1334.84  1379.66  1390.32  1437.86
                             1454.16  1458.67  1462.48  1463.96  1465.29
                             1474.73  1477.51  1478.38  1488.90  1495.85
                             1513.74  1525.93  1530.71  1540.59  1553.10
                             1596.90  1604.97  1613.00  1680.36  1698.37
                             1699.55  1703.18  1733.81  1738.04  1739.76
                             1745.93  1761.26  1797.05  1842.37  1873.27
                             1881.39  1916.05  1936.43  1950.86  1954.42
                             1956.36  1968.07  1996.66  2074.89  2096.13
                             2120.42  2140.41  2156.41  2164.89  2175.57
                             2218.68  2221.87  2231.23  2240.25  2343.99
                             2360.12  2378.46  2381.97  2390.00  2401.89
                             2410.47  2415.44  4408.73  4510.39  4522.93
                             4560.31  4580.78  4582.40  4590.10  4590.95
                             4595.70  4601.89  4605.13  4609.51  4614.41
                             4616.43  4631.09  4632.29  4633.36  4646.07
                             4691.86  4986.32  5169.31  5233.69

 Zero-point correction=                           0.393636 (Hartree/Particle)
 Thermal correction to Energy=                    0.415379
 Thermal correction to Enthalpy=                  0.416323
 Thermal correction to Gibbs Free Energy=         0.339757
 Sum of electronic and zero-point Energies=          -1035.939604
 Sum of electronic and thermal Energies=             -1035.917862
 Sum of electronic and thermal Enthalpies=           -1035.916918
 Sum of electronic and thermal Free Energies=        -1035.993484

                     E (Thermal)             CV                S
                      KCal/Mol        Cal/Mol-Kelvin    Cal/Mol-Kelvin
 Total                  260.654             84.314            161.146
 Electronic               0.000              0.000              0.000
 Translational            0.889              2.981             43.278
 Rotational               0.889              2.981             35.261
 Vibrational            258.877             78.353             82.606
 Vibration     1          0.593              1.987              7.506
 Vibration     2          0.593              1.985              6.364
 Vibration     3          0.594              1.981              5.282
 Vibration     4          0.595              1.980              5.074
 Vibration     5          0.595              1.979              4.926
 Vibration     6          0.597              1.973              4.435
 Vibration     7          0.600              1.961              3.821
 Vibration     8          0.602              1.954              3.599
 Vibration     9          0.605              1.946              3.385
 Vibration    10          0.607              1.937              3.191
 Vibration    11          0.612              1.922              2.928
 Vibration    12          0.628              1.870              2.356
 Vibration    13          0.635              1.850              2.200
 Vibration    14          0.641              1.830              2.069
 Vibration    15          0.648              1.807              1.937
 Vibration    16          0.661              1.769              1.758
 Vibration    17          0.667              1.750              1.680
 Vibration    18          0.678              1.716              1.551
 Vibration    19          0.686              1.694              1.479
 Vibration    20          0.732              1.562              1.137
 Vibration    21          0.734              1.555              1.124
 Vibration    22          0.760              1.487              0.992
 Vibration    23          0.786              1.418              0.879
 Vibration    24          0.788              1.412              0.870
 Vibration    25          0.792              1.404              0.857
 Vibration    26          0.839              1.287              0.701
 Vibration    27          0.867              1.223              0.628
 Vibration    28          0.883              1.187              0.591
 Vibration    29          0.914              1.122              0.527
 Vibration    30          0.935              1.078              0.488
 Vibration    31          0.939              1.071              0.482
 Vibration    32          0.981              0.988              0.416

 Optimization completed.
    -- Stationary point found.
 Normal termination of Gaussian 16 at Sat Apr 17 06:37:58 2021.
