 Gaussian 16, Revision A.03,
 Gaussian 16:  ES64L-G16RevA.03 25-Dec-2016

 ----------------------------------------------------------------------
 # wB97XD def2tzvp, opt=(ts, noeigen, calcfc, maxcycles=70, maxstep=5),
  freq=noraman, scrf=(iefpcm, solvent=water)
 ----------------------------------------------------------------------

 ------------------------
 2_iteration/TS-470-2.out
 ------------------------
 Symbolic Z-matrix:
 Charge =  0 Multiplicity = 1

 SCF Done:  E(RwB97XD) =  -3034.71406180     A.U. after   14 cycles
 SCF Done:  E(RwB97XD) =  -3034.71406189     A.U. after    7 cycles
 Optimization completed.
    -- Stationary point found.
 Normal termination of Gaussian 16 at Sun Feb 14 07:13:31 2021.

 ---------------------------------------------------------------------
 #N Geom=AllCheck Guess=TCheck SCRF=Check GenChk RwB97XD/def2TZVP Freq
 ---------------------------------------------------------------------

 Structure from the checkpoint file:  "/beegfs/scratch/user/q/tla25/Gau-1667.chk"
 ------------------------
 2_iteration/TS-470-2.out
 ------------------------
 Charge =  0 Multiplicity = 1

                         Standard orientation:
 ---------------------------------------------------------------------
 Center     Atomic      Atomic             Coordinates (Angstroms)
 Number     Number       Type             X           Y           Z
 ---------------------------------------------------------------------
      1          6           0        0.094575   -0.293814    0.300511
      2          6           0       -1.189612   -0.681072   -0.235114
      3          8           0       -1.350438   -1.607404   -1.040123
      4          6           0        0.472316    1.026500    0.584770
      5          6           0        1.035383    3.371878   -0.954482
      6          1           0        1.016450    3.811452   -1.951605
      7          1           0        0.248196    3.822311   -0.350898
      8          1           0        1.998590    3.578466   -0.494856
      9          7           0        0.822230    1.923721   -1.006484
     10          1           0        0.003141    1.694646   -1.557907
     11          1           0        1.610926    1.443941   -1.426850
     12          6           0        1.703748    1.353931    1.386826
     13          1           0        1.598130    0.912119    2.378702
     14          1           0        2.604804    0.943957    0.932261
     15          1           0        1.824763    2.428842    1.509137
     16          1           0       -0.368036    1.663008    0.840918
     17         35           0        1.509011   -1.556082   -0.032885
     18          7           0       -2.286860    0.066946    0.162504
     19          6           0       -2.458342    0.583654    1.506465
     20          6           0       -3.524755   -0.121323   -0.562246
     21          1           0       -1.606766    0.317295    2.127555
     22          1           0       -2.577982    1.671539    1.514623
     23          1           0       -3.355269    0.145252    1.955203
     24          1           0       -3.321129   -0.280048   -1.618058
     25          1           0       -4.097736   -0.978724   -0.188711
     26          1           0       -4.137447    0.774872   -0.450058
 ---------------------------------------------------------------------

 SCF Done:  E(RwB97XD) =  -3034.71406189     A.U. after    1 cycles

 The electronic state is 1-A.
 Alpha  occ. eigenvalues -- -483.11016 -62.65860 -56.44948 -56.44636 -56.44627
 Alpha  occ. eigenvalues --  -19.19348 -14.49032 -14.44464 -10.37064 -10.34406
 Alpha  occ. eigenvalues --  -10.32138 -10.30534 -10.29930 -10.28958 -10.28151
 Alpha  occ. eigenvalues --   -8.79980  -6.62046  -6.61046  -6.61019  -2.72450
 Alpha  occ. eigenvalues --   -2.72160  -2.72137  -2.71328  -2.71327  -1.12108
 Alpha  occ. eigenvalues --   -1.04512  -1.01951  -0.92158  -0.85501  -0.81782
 Alpha  occ. eigenvalues --   -0.80307  -0.79330  -0.75274  -0.67980  -0.63777
 Alpha  occ. eigenvalues --   -0.61833  -0.59646  -0.56507  -0.55999  -0.55233
 Alpha  occ. eigenvalues --   -0.54260  -0.51292  -0.49834  -0.49475  -0.48451
 Alpha  occ. eigenvalues --   -0.48165  -0.47648  -0.46757  -0.46255  -0.45004
 Alpha  occ. eigenvalues --   -0.42975  -0.42016  -0.38171  -0.35997  -0.33557
 Alpha  occ. eigenvalues --   -0.31036  -0.25891
 Alpha virt. eigenvalues --    0.06908   0.09172   0.10049   0.12330   0.13210
 Alpha virt. eigenvalues --    0.13844   0.14857   0.15778   0.17103   0.17661
 Alpha virt. eigenvalues --    0.18728   0.19064   0.19448   0.19859   0.20360

 Mulliken charges:
               1
     1  C   -0.167503
     2  C    0.221338
     3  O   -0.534050
     4  C   -0.105453
     5  C   -0.298745
     6  H    0.158949
     7  H    0.154665
     8  H    0.163095
     9  N   -0.291154
    10  H    0.286562
    11  H    0.283960
    12  C   -0.353538
    13  H    0.145674
    14  H    0.141752
    15  H    0.145999
    16  H    0.169896
    17  Br  -0.202624
    18  N   -0.135808
    19  C   -0.320584
    20  C   -0.292884
    21  H    0.159366
    22  H    0.142648
    23  H    0.135585
    24  H    0.134550
    25  H    0.122858
    26  H    0.135445
 Sum of Mulliken charges =  -0.00000

 Dipole moment (field-independent basis, Debye):
    X=              1.0232    Y=             12.1726    Z=              0.4522  Tot=             12.2239
 Quadrupole moment (field-independent basis, Debye-Ang):
   XX=            -75.3255   YY=            -76.8071   ZZ=            -78.0501
   XY=              2.1227   XZ=             -6.3794   YZ=             -8.9662

  Exact polarizability: 188.866   4.384 193.514  -1.827   4.785 148.710
 Approx polarizability: 144.320  -0.399 152.510  -1.329   5.864 127.667

 ******    1 imaginary frequencies (negative Signs) ******

                      1                      2                      3
                      A                      A                      A
 Frequencies --   -343.5170                39.2525                61.5757
 Red. masses --      6.0694                 3.3649                 3.6545
 Frc consts  --      0.4220                 0.0031                 0.0082
 IR Inten    --    850.9689                 2.1235                 1.7773

                      4                      5                      6
                      A                      A                      A
 Frequencies --     71.1285                88.5008                97.2889
 Red. masses --      2.1852                 3.7809                 3.6233
 Frc consts  --      0.0065                 0.0174                 0.0202
 IR Inten    --      6.2424                 5.8961                 8.8467

                      7                      8                      9
                      A                      A                      A
 Frequencies --    132.2601               169.2708               174.6926
 Red. masses --      2.1050                 1.4634                 1.5399
 Frc consts  --      0.0217                 0.0247                 0.0277
 IR Inten    --      4.5455                 2.5858                 5.3124

                     10                     11                     12
                      A                      A                      A
 Frequencies --    185.5641               200.8509               222.8754
 Red. masses --      2.2770                 1.8199                 1.8993
 Frc consts  --      0.0462                 0.0433                 0.0556
 IR Inten    --      4.1221                20.8650                 2.7067

                     13                     14                     15
                      A                      A                      A
 Frequencies --    245.8856               261.6177               267.6223
 Red. masses --      1.5596                 1.5584                 2.6949
 Frc consts  --      0.0556                 0.0628                 0.1137
 IR Inten    --     23.0512                15.6066                 6.8093

                     16                     17                     18
                      A                      A                      A
 Frequencies --    337.0267               377.7953               421.6478
 Red. masses --      2.7430                 3.1460                 3.2679
 Frc consts  --      0.1836                 0.2646                 0.3423
 IR Inten    --      3.8336                18.6414                 6.9259

                     19                     20                     21
                      A                      A                      A
 Frequencies --    448.9011               510.3526               583.6210
 Red. masses --      3.2769                 4.6759                 3.7960
 Frc consts  --      0.3891                 0.7176                 0.7618
 IR Inten    --     38.1604               122.8449                10.0236

                     22                     23                     24
                      A                      A                      A
 Frequencies --    671.9082               698.2831               787.9690
 Red. masses --      5.6811                 1.3200                 8.9534
 Frc consts  --      1.5111                 0.3792                 3.2753
 IR Inten    --     38.2082                26.1473                44.6220

                     25                     26                     27
                      A                      A                      A
 Frequencies --    835.7018               959.8687              1006.4539
 Red. masses --      4.0752                 1.6917                 1.2044
 Frc consts  --      1.6769                 0.9183                 0.7188
 IR Inten    --     43.0239                63.1895                 5.2967

                     28                     29                     30
                      A                      A                      A
 Frequencies --   1026.7348              1051.3701              1070.7805
 Red. masses --      1.8257                 1.6601                 1.5772
 Frc consts  --      1.1339                 1.0812                 1.0655
 IR Inten    --     68.2052                26.5118               117.8397

                     31                     32                     33
                      A                      A                      A
 Frequencies --   1083.6607              1086.4857              1134.6947
 Red. masses --      1.6955                 1.5403                 1.4714
 Frc consts  --      1.1731                 1.0713                 1.1162
 IR Inten    --    188.4161                52.9970                22.1324

                     34                     35                     36
                      A                      A                      A
 Frequencies --   1137.4676              1166.3910              1209.3480
 Red. masses --      1.8241                 1.3914                 1.2054
 Frc consts  --      1.3905                 1.1153                 1.0387
 IR Inten    --     37.9076                15.4441               136.4341

                     37                     38                     39
                      A                      A                      A
 Frequencies --   1239.0904              1248.3245              1262.3122
 Red. masses --      2.4900                 1.7190                 1.3714
 Frc consts  --      2.2525                 1.5783                 1.2875
 IR Inten    --     96.9737                54.7652                58.3893

                     40                     41                     42
                      A                      A                      A
 Frequencies --   1307.1861              1347.9477              1395.9110
 Red. masses --      4.0843                 1.2937                 2.7460
 Frc consts  --      4.1119                 1.3849                 3.1526
 IR Inten    --     61.2627                 3.1108               446.3194

                     43                     44                     45
                      A                      A                      A
 Frequencies --   1414.0251              1441.7710              1449.9480
 Red. masses --      1.3159                 1.1553                 1.8160
 Frc consts  --      1.5502                 1.4150                 2.2494
 IR Inten    --     39.4188                11.7785               222.2909

                     46                     47                     48
                      A                      A                      A
 Frequencies --   1467.9677              1471.7465              1483.7708
 Red. masses --      1.2761                 1.2503                 1.1137
 Frc consts  --      1.6202                 1.5956                 1.4447
 IR Inten    --     17.2834               109.1175                33.1654

                     49                     50                     51
                      A                      A                      A
 Frequencies --   1488.2996              1490.7603              1493.2151
 Red. masses --      1.0632                 1.1192                 1.0502
 Frc consts  --      1.3876                 1.4654                 1.3797
 IR Inten    --     17.6440                72.7368                 8.1008

                     52                     53                     54
                      A                      A                      A
 Frequencies --   1497.6133              1505.2296              1509.1571
 Red. masses --      1.0684                 1.0666                 1.0634
 Frc consts  --      1.4118                 1.4238                 1.4270
 IR Inten    --     31.0412                14.8671                13.4973

                     55                     56                     57
                      A                      A                      A
 Frequencies --   1528.7495              1626.2623              1645.2540
 Red. masses --      1.1886                 9.8143                 1.0849
 Frc consts  --      1.6366                15.2930                 1.7303
 IR Inten    --    141.9326               789.2479                49.0523

                     58                     59                     60
                      A                      A                      A
 Frequencies --   3012.1536              3022.0995              3070.5827
 Red. masses --      1.0493                 1.0396                 1.1005
 Frc consts  --      5.6090                 5.5941                 6.1133
 IR Inten    --    112.1749               124.5837                80.9548

                     61                     62                     63
                      A                      A                      A
 Frequencies --   3071.1703              3071.8559              3095.2734
 Red. masses --      1.0361                 1.0368                 1.0892
 Frc consts  --      5.7576                 5.7642                 6.1484
 IR Inten    --     23.2483                26.2174                42.2432

                     64                     65                     66
                      A                      A                      A
 Frequencies --   3144.3281              3147.8715              3155.6360
 Red. masses --      1.1009                 1.1058                 1.1000
 Frc consts  --      6.4131                 6.4559                 6.4540
 IR Inten    --     20.0970                14.6251                12.0049

                     67                     68                     69
                      A                      A                      A
 Frequencies --   3159.5015              3163.3489              3174.3427
 Red. masses --      1.0983                 1.1000                 1.0982
 Frc consts  --      6.4598                 6.4853                 6.5199
 IR Inten    --     19.5054                18.0652                17.0083

                     70                     71                     72
                      A                      A                      A
 Frequencies --   3177.4642              3520.6511              3599.1585
 Red. masses --      1.0973                 1.0513                 1.0962
 Frc consts  --      6.5271                 7.6776                 8.3664
 IR Inten    --     13.9609                21.4029                48.3766

 - Thermochemistry -
 -------------------
 Temperature   298.150 Kelvin.  Pressure   1.00000 Atm.
 Atom     1 has atomic number  6 and mass  12.00000

 Molecular mass:   222.03677 amu.
 Principal axes and moments of inertia in atomic units:
                           1         2         3
     Eigenvalues --  2317.768202886.085694242.25335
           X            0.97300   0.23073  -0.00505
           Y           -0.23077   0.97297  -0.00877
           Z            0.00289   0.00970   0.99995
 This molecule is an asymmetric top.
 Rotational symmetry number  1.
 Warning -- assumption of classical behavior for rotation
           may cause significant error
 Rotational temperatures (Kelvin)      0.03737     0.03001     0.02042
 Rotational constants (GHZ):           0.77865     0.62532     0.42542
    1 imaginary frequencies ignored.
 Zero-point vibrational energy     584524.3 (Joules/Mol)
                                  139.70466 (Kcal/Mol)
 Warning -- explicit consideration of  20 degrees of freedom as
           vibrations may cause significant error
 Vibrational temperatures:     56.48    88.59   102.34   127.33   139.98
          (Kelvin)            190.29   243.54   251.34   266.99   288.98
                              320.67   353.77   376.41   385.05   484.91
                              543.56   606.66   645.87   734.28   839.70
                              966.73  1004.67  1133.71  1202.39  1381.04
                             1448.06  1477.24  1512.69  1540.61  1559.15
                             1563.21  1632.57  1636.56  1678.18  1739.98
                             1782.77  1796.06  1816.19  1880.75  1939.40
                             2008.40  2034.47  2074.39  2086.15  2112.08
                             2117.51  2134.82  2141.33  2144.87  2148.40
                             2154.73  2165.69  2171.34  2199.53  2339.83
                             2367.15  4333.82  4348.13  4417.88  4418.73
                             4419.72  4453.41  4523.99  4529.09  4540.26
                             4545.82  4551.35  4567.17  4571.66  5065.43
                             5178.39

 Zero-point correction=                           0.222634 (Hartree/Particle)
 Thermal correction to Energy=                    0.236884
 Thermal correction to Enthalpy=                  0.237829
 Thermal correction to Gibbs Free Energy=         0.180261
 Sum of electronic and zero-point Energies=          -3034.491428
 Sum of electronic and thermal Energies=             -3034.477178
 Sum of electronic and thermal Enthalpies=           -3034.476233
 Sum of electronic and thermal Free Energies=        -3034.533800

                     E (Thermal)             CV                S
                      KCal/Mol        Cal/Mol-Kelvin    Cal/Mol-Kelvin
 Total                  148.647             48.728            121.160
 Electronic               0.000              0.000              0.000
 Translational            0.889              2.981             42.096
 Rotational               0.889              2.981             31.718
 Vibrational            146.870             42.766             47.347
 Vibration     1          0.594              1.981              5.296
 Vibration     2          0.597              1.973              4.406
 Vibration     3          0.598              1.968              4.122
 Vibration     4          0.601              1.957              3.693
 Vibration     5          0.603              1.951              3.508
 Vibration     6          0.612              1.921              2.913
 Vibration     7          0.625              1.880              2.444
 Vibration     8          0.627              1.874              2.384
 Vibration     9          0.632              1.860              2.272
 Vibration    10          0.638              1.839              2.125
 Vibration    11          0.649              1.806              1.936
 Vibration    12          0.660              1.770              1.760
 Vibration    13          0.669              1.743              1.651
 Vibration    14          0.673              1.733              1.612
 Vibration    15          0.718              1.602              1.226
 Vibration    16          0.748              1.517              1.048
 Vibration    17          0.784              1.423              0.886
 Vibration    18          0.808              1.363              0.799
 Vibration    19          0.865              1.227              0.633
 Vibration    20          0.941              1.067              0.479

 Optimization completed.
    -- Stationary point found.
 Normal termination of Gaussian 16 at Sun Feb 14 07:42:22 2021.
