 Gaussian 16, Revision A.03,
 Gaussian 16:  ES64L-G16RevA.03 25-Dec-2016

 ----------------------------------------------------------------------
 # wB97XD def2tzvp, opt=(ts, noeigen, calcfc, maxcycles=70, maxstep=3),
  freq=noraman, scrf=(iefpcm, solvent=water)
 ----------------------------------------------------------------------

 ------------------------
 0_iteration/TS-431-0.out
 ------------------------
 Symbolic Z-matrix:
 Charge =  0 Multiplicity = 1

 SCF Done:  E(RwB97XD) =  -3418.20446733     A.U. after   15 cycles
 Optimization completed.
    -- Stationary point found.
 Normal termination of Gaussian 16 at Sun Mar 28 07:58:29 2021.

 ---------------------------------------------------------------------
 #N Geom=AllCheck Guess=TCheck SCRF=Check GenChk RwB97XD/def2TZVP Freq
 ---------------------------------------------------------------------

 Structure from the checkpoint file:  "/beegfs/scratch/user/q/tla25/Gau-31590.chk"
 ------------------------
 0_iteration/TS-431-0.out
 ------------------------
 Charge =  0 Multiplicity = 1

                         Standard orientation:
 ---------------------------------------------------------------------
 Center     Atomic      Atomic             Coordinates (Angstroms)
 Number     Number       Type             X           Y           Z
 ---------------------------------------------------------------------
      1          6           0       -0.548387   -0.854902   -0.183102
      2          6           0        0.513201    0.051600    0.160198
      3          8           0        0.303999    1.028199    0.898398
      4          6           0       -1.887688   -0.572805    0.155598
      5          6           0       -1.301996   -1.607604    2.746298
      6          1           0       -0.961386   -1.389803    3.759098
      7          1           0       -2.044884   -2.402005    2.783598
      8          1           0       -0.448385   -1.942502    2.155998
      9          7           0       -1.871488   -0.430505    2.106798
     10          1           0       -2.748989   -0.162806    2.532698
     11          1           0       -1.224500    0.355197    2.138698
     12          6           0       -2.928996   -1.648307   -0.040902
     13          1           0       -3.074195   -1.812107   -1.110502
     14          1           0       -2.626484   -2.592306    0.407698
     15          1           0       -3.882386   -1.340308    0.383198
     16          6           0       -2.429400    0.802494   -0.183302
     17          6           0       -1.882002    1.515795   -1.246802
     18          6           0       -2.411904    2.734194   -1.640302
     19          6           0       -3.512105    3.263792   -0.983302
     20          6           0       -4.084204    2.552891    0.060498
     21          6           0       -3.553201    1.332392    0.447798
     22          1           0       -1.031901    1.104997   -1.774302
     23          1           0       -1.962705    3.268995   -2.467802
     24          1           0       -3.926807    4.216091   -1.288402
     25          1           0       -4.953004    2.943790    0.574698
     26          1           0       -4.044000    0.794491    1.248198
     27         35           0       -0.081084   -2.606801   -0.823602
     28          7           0        1.765302   -0.202798   -0.349702
     29          6           0        2.981300    0.430804   -0.086402
     30          6           0        4.116601   -0.097593   -0.711102
     31          6           0        5.363200    0.464409   -0.507602
     32          6           0        5.511198    1.566109    0.325098
     33          6           0        4.388297    2.091907    0.943898
     34          6           0        3.129098    1.541205    0.746998
     35          1           0        1.827003   -0.993898   -0.968702
     36          1           0        4.015203   -0.958994   -1.361702
     37          1           0        6.225101    0.035611   -1.003602
     38          1           0        6.486397    2.006711    0.485898
     39          1           0        4.484196    2.952507    1.594898
     40          1           0        2.262897    1.963603    1.228198
 ---------------------------------------------------------------------

 SCF Done:  E(RwB97XD) =  -3418.20446733     A.U. after    1 cycles

 The electronic state is 1-A.
 Alpha  occ. eigenvalues -- -483.12532 -62.67352 -56.46454 -56.46128 -56.46114
 Alpha  occ. eigenvalues --  -19.20906 -14.47248 -14.46306 -10.38889 -10.36215
 Alpha  occ. eigenvalues --  -10.33823 -10.31259 -10.30714 -10.30208 -10.29464
 Alpha  occ. eigenvalues --  -10.29202 -10.29106 -10.29047 -10.29005 -10.28988
 Alpha  occ. eigenvalues --  -10.28845 -10.28781 -10.28525 -10.28183 -10.28107
 Alpha  occ. eigenvalues --   -8.81455  -6.63551  -6.62514  -6.62468  -2.73949
 Alpha  occ. eigenvalues --   -2.73655  -2.73616  -2.72778  -2.72777  -1.13727
 Alpha  occ. eigenvalues --   -1.04129  -1.03085  -0.97421  -0.95573  -0.93290
 Alpha  occ. eigenvalues --   -0.88445  -0.85398  -0.85067  -0.84789  -0.83446
 Alpha  occ. eigenvalues --   -0.79616  -0.78363  -0.74128  -0.71535  -0.70817
 Alpha  occ. eigenvalues --   -0.70198  -0.67078  -0.64373  -0.63070  -0.62499
 Alpha  occ. eigenvalues --   -0.61186  -0.58224  -0.57600  -0.56888  -0.55569
 Alpha  occ. eigenvalues --   -0.54068  -0.53876  -0.53375  -0.52687  -0.52358
 Alpha  occ. eigenvalues --   -0.51754  -0.50902  -0.50398  -0.49644  -0.49501
 Alpha  occ. eigenvalues --   -0.47817  -0.47193  -0.46788  -0.46641  -0.46192
 Alpha  occ. eigenvalues --   -0.44674  -0.42972  -0.42765  -0.42583  -0.40939
 Alpha  occ. eigenvalues --   -0.39758  -0.39555  -0.37823  -0.34684  -0.33898
 Alpha  occ. eigenvalues --   -0.33709  -0.32636  -0.30247  -0.26421
 Alpha virt. eigenvalues --    0.02039   0.05194   0.05353   0.05428   0.07818
 Alpha virt. eigenvalues --    0.09730   0.10235   0.12456   0.13556   0.13611
 Alpha virt. eigenvalues --    0.14726   0.14932   0.15610   0.16050   0.16792

 Mulliken charges:
               1
     1  C   -0.423953
     2  C    0.469369
     3  O   -0.579428
     4  C    0.286713
     5  C   -0.307205
     6  H    0.153717
     7  H    0.157067
     8  H    0.152533
     9  N   -0.326754
    10  H    0.265420
    11  H    0.277824
    12  C   -0.376032
    13  H    0.157717
    14  H    0.148547
    15  H    0.148441
    16  C    0.201820
    17  C   -0.228136
    18  C   -0.150732
    19  C   -0.138516
    20  C   -0.174720
    21  C   -0.268549
    22  H    0.160963
    23  H    0.141953
    24  H    0.144405
    25  H    0.142827
    26  H    0.149778
    27  Br  -0.164088
    28  N   -0.269355
    29  C    0.305332
    30  C   -0.314762
    31  C   -0.097957
    32  C   -0.198642
    33  C   -0.111572
    34  C   -0.297387
    35  H    0.238379
    36  H    0.140561
    37  H    0.142833
    38  H    0.139998
    39  H    0.140629
    40  H    0.160959
 Sum of Mulliken charges =  -0.00000

 Dipole moment (field-independent basis, Debye):
    X=             -5.0285    Y=             -1.7115    Z=              3.0047  Tot=              6.1027
 Quadrupole moment (field-independent basis, Debye-Ang):
   XX=           -117.8253   YY=           -136.3697   ZZ=           -125.4578
   XY=             -2.6208   XZ=            -15.2548   YZ=             -4.3638

  Exact polarizability: 406.658  -2.431 336.532 -36.749  15.406 283.006
 Approx polarizability: 300.231  -4.493 274.033 -29.604  17.066 243.982

 ******    1 imaginary frequencies (negative Signs) ******

                      1                      2                      3
                      A                      A                      A
 Frequencies --   -377.1770                17.0679                23.5566
 Red. masses --      5.1656                 3.7565                 5.1267
 Frc consts  --      0.4330                 0.0006                 0.0017
 IR Inten    --    753.3484                 0.4001                 0.8663

                      4                      5                      6
                      A                      A                      A
 Frequencies --     46.1245                60.2451                64.3762
 Red. masses --      4.1247                 6.9135                 4.0933
 Frc consts  --      0.0052                 0.0148                 0.0100
 IR Inten    --      1.2797                 1.5379                 1.7261

                      7                      8                      9
                      A                      A                      A
 Frequencies --     77.3474                84.1498               112.9020
 Red. masses --      4.1521                 2.5389                 5.0913
 Frc consts  --      0.0146                 0.0106                 0.0382
 IR Inten    --      5.2846                 4.2699                 0.6260

                     10                     11                     12
                      A                      A                      A
 Frequencies --    142.4297               156.0133               177.5643
 Red. masses --      5.6331                 2.8299                 4.3649
 Frc consts  --      0.0673                 0.0406                 0.0811
 IR Inten    --     29.1091                15.9399                 6.5543

                     13                     14                     15
                      A                      A                      A
 Frequencies --    205.5869               211.3243               237.1533
 Red. masses --      1.8227                 3.1489                 3.6884
 Frc consts  --      0.0454                 0.0829                 0.1222
 IR Inten    --      2.9945                15.8186                 5.8136

                     16                     17                     18
                      A                      A                      A
 Frequencies --    245.3901               273.1431               280.4501
 Red. masses --      4.3268                 2.1404                 2.2357
 Frc consts  --      0.1535                 0.0941                 0.1036
 IR Inten    --      1.1907                 1.9559                 1.9009

                     19                     20                     21
                      A                      A                      A
 Frequencies --    309.3239               322.1781               346.3176
 Red. masses --      2.9911                 4.6549                 2.1297
 Frc consts  --      0.1686                 0.2847                 0.1505
 IR Inten    --     10.9409                29.2644                 1.6257

                     22                     23                     24
                      A                      A                      A
 Frequencies --    364.9078               407.2231               420.3415
 Red. masses --      4.6835                 5.7389                 4.9427
 Frc consts  --      0.3674                 0.5607                 0.5145
 IR Inten    --     14.5929                 0.8703                11.9100

                     25                     26                     27
                      A                      A                      A
 Frequencies --    422.8507               428.4536               525.9603
 Red. masses --      2.9918                 3.0547                 2.8907
 Frc consts  --      0.3152                 0.3304                 0.4711
 IR Inten    --      0.1035                 0.5125                27.3039

                     28                     29                     30
                      A                      A                      A
 Frequencies --    536.5907               559.1215               568.5368
 Red. masses --      4.3191                 2.9931                 1.1462
 Frc consts  --      0.7327                 0.5513                 0.2183
 IR Inten    --    103.0368                64.4162               105.3254

                     31                     32                     33
                      A                      A                      A
 Frequencies --    590.5410               630.1386               636.5057
 Red. masses --      4.7711                 3.8239                 5.9207
 Frc consts  --      0.9803                 0.8946                 1.4133
 IR Inten    --     22.4494                16.4810                 4.9734

                     34                     35                     36
                      A                      A                      A
 Frequencies --    638.9303               685.2195               718.3657
 Red. masses --      5.8518                 1.7757                 1.8873
 Frc consts  --      1.4075                 0.4912                 0.5738
 IR Inten    --      4.6456               115.0128                64.5251

                     37                     38                     39
                      A                      A                      A
 Frequencies --    727.5837               771.6568               778.9142
 Red. masses --      1.6560                 8.0832                 4.0297
 Frc consts  --      0.5165                 2.8358                 1.4405
 IR Inten    --     81.8655                35.2468                 0.8776

                     40                     41                     42
                      A                      A                      A
 Frequencies --    783.6366               794.9819               830.9176
 Red. masses --      1.8714                 2.1901                 5.2877
 Frc consts  --      0.6771                 0.8155                 2.1510
 IR Inten    --    101.0793                52.3017                26.9958

                     43                     44                     45
                      A                      A                      A
 Frequencies --    861.1195               875.3240               878.3732
 Red. masses --      1.2619                 5.0580                 1.2438
 Frc consts  --      0.5513                 2.2833                 0.5654
 IR Inten    --      0.1071                 8.8366                 0.6215

                     46                     47                     48
                      A                      A                      A
 Frequencies --    931.6944               960.4877               998.1170
 Red. masses --      1.4686                 1.3872                 1.1544
 Frc consts  --      0.7511                 0.7540                 0.6776
 IR Inten    --     13.3010                20.1972                50.1809

                     49                     50                     51
                      A                      A                      A
 Frequencies --   1000.8204              1016.7157              1018.4148
 Red. masses --      1.3456                 1.3111                 3.6277
 Frc consts  --      0.7941                 0.7985                 2.2168
 IR Inten    --      0.0584                 0.7990                 5.6088

                     52                     53                     54
                      A                      A                      A
 Frequencies --   1019.3596              1025.4950              1026.8303
 Red. masses --      1.6526                 3.2457                 2.6402
 Frc consts  --      1.0117                 2.0111                 1.6401
 IR Inten    --     17.6644                11.8408                31.6131

                     55                     56                     57
                      A                      A                      A
 Frequencies --   1030.5433              1035.8139              1056.4844
 Red. masses --      1.5169                 1.7656                 1.6166
 Frc consts  --      0.9492                 1.1161                 1.0631
 IR Inten    --     46.0093               105.2093                38.7310

                     58                     59                     60
                      A                      A                      A
 Frequencies --   1061.0836              1063.6720              1079.4998
 Red. masses --      1.8355                 2.1037                 1.8943
 Frc consts  --      1.2176                 1.4023                 1.3006
 IR Inten    --     26.5076                 9.6346                50.6190

                     61                     62                     63
                      A                      A                      A
 Frequencies --   1091.3330              1119.9556              1122.1089
 Red. masses --      3.4652                 1.6910                 1.6607
 Frc consts  --      2.4316                 1.2497                 1.2320
 IR Inten    --     18.5045                24.3356                 7.9266

                     64                     65                     66
                      A                      A                      A
 Frequencies --   1131.6054              1181.9698              1184.4681
 Red. masses --      2.0737                 1.1209                 1.1247
 Frc consts  --      1.5645                 0.9226                 0.9297
 IR Inten    --     19.9190                 3.5088                 0.1302

                     67                     68                     69
                      A                      A                      A
 Frequencies --   1208.1320              1210.4117              1222.0458
 Red. masses --      1.1431                 1.3008                 1.2037
 Frc consts  --      0.9831                 1.1229                 1.0591
 IR Inten    --     32.5359                32.8303                18.0462

                     70                     71                     72
                      A                      A                      A
 Frequencies --   1254.4440              1270.9383              1296.7104
 Red. masses --      4.0824                 2.5351                 4.5627
 Frc consts  --      3.7850                 2.4126                 4.5202
 IR Inten    --     91.6939               549.1044                85.9474

                     73                     74                     75
                      A                      A                      A
 Frequencies --   1320.8534              1345.9388              1351.5263
 Red. masses --      4.3986                 4.3303                 1.4681
 Frc consts  --      4.5214                 4.6219                 1.5800
 IR Inten    --     19.3628               838.7383                39.0200

                     76                     77                     78
                      A                      A                      A
 Frequencies --   1361.0007              1367.5822              1398.3919
 Red. masses --      1.5487                 1.3630                 3.1113
 Frc consts  --      1.6902                 1.5020                 3.5847
 IR Inten    --     28.8966                 6.6245               344.8981

                     79                     80                     81
                      A                      A                      A
 Frequencies --   1420.5335              1462.1400              1480.2956
 Red. masses --      1.2986                 1.1871                 2.2067
 Frc consts  --      1.5439                 1.4952                 2.8490
 IR Inten    --     71.8329                 5.9802               339.0788

                     82                     83                     84
                      A                      A                      A
 Frequencies --   1483.8110              1491.5662              1495.9092
 Red. masses --      1.2490                 1.3512                 1.3467
 Frc consts  --      1.6202                 1.7711                 1.7755
 IR Inten    --     14.4735                24.1623                66.8550

                     85                     86                     87
                      A                      A                      A
 Frequencies --   1502.1971              1511.3152              1542.8348
 Red. masses --      1.0580                 1.0341                 2.2253
 Frc consts  --      1.4067                 1.3917                 3.1208
 IR Inten    --     15.0741                 3.2307                24.4941

                     88                     89                     90
                      A                      A                      A
 Frequencies --   1545.8727              1569.7220              1625.9928
 Red. masses --      2.4552                 2.3042                 1.7780
 Frc consts  --      3.4569                 3.3452                 2.7697
 IR Inten    --    288.1463               747.5692               373.1825

                     91                     92                     93
                      A                      A                      A
 Frequencies --   1650.2436              1654.6306              1663.5300
 Red. masses --      3.0470                 2.9318                 3.3244
 Frc consts  --      4.8890                 4.7292                 5.4203
 IR Inten    --     11.7163                49.2020               118.3695

                     94                     95                     96
                      A                      A                      A
 Frequencies --   1673.9886              1676.5552              3064.0522
 Red. masses --      5.9222                 6.0302                 1.0333
 Frc consts  --      9.7778                 9.9866                 5.7160
 IR Inten    --      4.2923               172.7612                49.3303

                     97                     98                     99
                      A                      A                      A
 Frequencies --   3071.2614              3136.7655              3146.2671
 Red. masses --      1.0385                 1.1039                 1.0980
 Frc consts  --      5.7713                 6.3994                 6.4037
 IR Inten    --     11.1978                14.1260                14.8965

                    100                    101                    102
                      A                      A                      A
 Frequencies --   3160.8612              3171.1854              3187.0266
 Red. masses --      1.1053                 1.1039                 1.0878
 Frc consts  --      6.5062                 6.5407                 6.5101
 IR Inten    --     20.1714                24.9452                13.5454

                    103                    104                    105
                      A                      A                      A
 Frequencies --   3195.9598              3196.6518              3202.9666
 Red. masses --      1.0857                 1.0883                 1.0885
 Frc consts  --      6.5338                 6.5522                 6.5794
 IR Inten    --      1.9555                 2.5638                 3.5287

                    106                    107                    108
                      A                      A                      A
 Frequencies --   3206.1144              3212.3104              3220.7770
 Red. masses --      1.0932                 1.0922                 1.0945
 Frc consts  --      6.6209                 6.6406                 6.6894
 IR Inten    --     31.2353                29.5859                30.4794

                    109                    110                    111
                      A                      A                      A
 Frequencies --   3221.5758              3226.1872              3271.5186
 Red. masses --      1.0979                 1.0974                 1.0925
 Frc consts  --      6.7136                 6.7298                 6.8892
 IR Inten    --     23.1684                 9.9990                 6.8870

                    112                    113                    114
                      A                      A                      A
 Frequencies --   3457.7205              3603.0183              3636.0470
 Red. masses --      1.0606                 1.0875                 1.0762
 Frc consts  --      7.4708                 8.3180                 8.3829
 IR Inten    --     78.4396                75.7342                88.5761

 - Thermochemistry -
 -------------------
 Temperature   298.150 Kelvin.  Pressure   1.00000 Atm.
 Atom     1 has atomic number  6 and mass  12.00000

 Molecular mass:   346.06807 amu.
 Principal axes and moments of inertia in atomic units:
                           1         2         3
     Eigenvalues --  5549.88492********************
           X            0.99996   0.00351  -0.00761
           Y           -0.00384   0.99903  -0.04385
           Z            0.00744   0.04388   0.99901
 This molecule is an asymmetric top.
 Rotational symmetry number  1.
 Warning -- assumption of classical behavior for rotation
           may cause significant error
 Rotational temperatures (Kelvin)      0.01561     0.00829     0.00650
 Rotational constants (GHZ):           0.32519     0.17272     0.13535
    1 imaginary frequencies ignored.
 Zero-point vibrational energy     865095.6 (Joules/Mol)
                                  206.76281 (Kcal/Mol)
 Warning -- explicit consideration of  30 degrees of freedom as
           vibrations may cause significant error
 Vibrational temperatures:     24.56    33.89    66.36    86.68    92.62
          (Kelvin)            111.29   121.07   162.44   204.92   224.47
                              255.48   295.79   304.05   341.21   353.06
                              392.99   403.51   445.05   463.54   498.27
                              525.02   585.90   604.78   608.39   616.45
                              756.74   772.03   804.45   818.00   849.66
                              906.63   915.79   919.28   985.88  1033.57
                             1046.83  1110.24  1120.68  1127.48  1143.80
                             1195.51  1238.96  1259.40  1263.78  1340.50
                             1381.93  1436.07  1439.96  1462.83  1465.27
                             1466.63  1475.46  1477.38  1482.72  1490.31
                             1520.05  1526.66  1530.39  1553.16  1570.18
                             1611.37  1614.46  1628.13  1700.59  1704.19
                             1738.23  1741.51  1758.25  1804.87  1828.60
                             1865.68  1900.41  1936.51  1944.54  1958.18
                             1967.65  2011.97  2043.83  2103.69  2129.82
                             2134.87  2146.03  2152.28  2161.33  2174.45
                             2219.80  2224.17  2258.48  2339.44  2374.33
                             2380.64  2393.45  2408.50  2412.19  4408.49
                             4418.86  4513.11  4526.78  4547.77  4562.63
                             4585.42  4598.27  4599.27  4608.35  4612.88
                             4621.80  4633.98  4635.13  4641.76  4706.99
                             4974.89  5183.94  5231.46

 Zero-point correction=                           0.329498 (Hartree/Particle)
 Thermal correction to Energy=                    0.349517
 Thermal correction to Enthalpy=                  0.350461
 Thermal correction to Gibbs Free Energy=         0.278314
 Sum of electronic and zero-point Energies=          -3417.874970
 Sum of electronic and thermal Energies=             -3417.854950
 Sum of electronic and thermal Enthalpies=           -3417.854006
 Sum of electronic and thermal Free Energies=        -3417.926153

                     E (Thermal)             CV                S
                      KCal/Mol        Cal/Mol-Kelvin    Cal/Mol-Kelvin
 Total                  219.325             75.775            151.846
 Electronic               0.000              0.000              0.000
 Translational            0.889              2.981             43.419
 Rotational               0.889              2.981             35.002
 Vibrational            217.548             69.814             73.425
 Vibration     1          0.593              1.986              6.949
 Vibration     2          0.593              1.985              6.309
 Vibration     3          0.595              1.979              4.977
 Vibration     4          0.597              1.973              4.449
 Vibration     5          0.597              1.971              4.318
 Vibration     6          0.599              1.964              3.957
 Vibration     7          0.601              1.960              3.792
 Vibration     8          0.607              1.939              3.218
 Vibration     9          0.616              1.911              2.771
 Vibration    10          0.620              1.896              2.598
 Vibration    11          0.628              1.870              2.354
 Vibration    12          0.640              1.832              2.083
 Vibration    13          0.643              1.824              2.032
 Vibration    14          0.656              1.784              1.824
 Vibration    15          0.660              1.770              1.763
 Vibration    16          0.676              1.723              1.576
 Vibration    17          0.680              1.710              1.531
 Vibration    18          0.699              1.656              1.366
 Vibration    19          0.707              1.631              1.299
 Vibration    20          0.724              1.583              1.183
 Vibration    21          0.738              1.544              1.101
 Vibration    22          0.772              1.455              0.936
 Vibration    23          0.783              1.426              0.891
 Vibration    24          0.785              1.421              0.882
 Vibration    25          0.790              1.408              0.864
 Vibration    26          0.881              1.193              0.596
 Vibration    27          0.892              1.169              0.573
 Vibration    28          0.915              1.120              0.526
 Vibration    29          0.925              1.099              0.507
 Vibration    30          0.948              1.052              0.466

 Optimization completed.
    -- Stationary point found.
 Normal termination of Gaussian 16 at Sun Mar 28 10:41:34 2021.
