 Gaussian 16, Revision A.03,
 Gaussian 16:  ES64L-G16RevA.03 25-Dec-2016

 ----------------------------------------------------------------------
 # wB97XD def2tzvp, opt=(ts, noeigen, calcfc, maxcycles=70, maxstep=3),
  freq=noraman, scrf=(iefpcm, solvent=water)
 ----------------------------------------------------------------------

 ------------------------
 0_iteration/TS-433-0.out
 ------------------------
 Symbolic Z-matrix:
 Charge =  0 Multiplicity = 1

 SCF Done:  E(RwB97XD) =  -1017.76841530     A.U. after   15 cycles
 SCF Done:  E(RwB97XD) =  -1017.76834657     A.U. after   12 cycles
 SCF Done:  E(RwB97XD) =  -1017.76837730     A.U. after   12 cycles
 SCF Done:  E(RwB97XD) =  -1017.76834350     A.U. after   12 cycles
 SCF Done:  E(RwB97XD) =  -1017.76836012     A.U. after   12 cycles
 SCF Done:  E(RwB97XD) =  -1017.76833781     A.U. after   12 cycles
 SCF Done:  E(RwB97XD) =  -1017.76833884     A.U. after   10 cycles
 SCF Done:  E(RwB97XD) =  -1017.76833857     A.U. after    9 cycles
 SCF Done:  E(RwB97XD) =  -1017.76833927     A.U. after   10 cycles
 SCF Done:  E(RwB97XD) =  -1017.76833895     A.U. after    8 cycles
 SCF Done:  E(RwB97XD) =  -1017.76833863     A.U. after    9 cycles
 SCF Done:  E(RwB97XD) =  -1017.76833884     A.U. after    9 cycles
 Optimization completed.
    -- Stationary point found.
 Normal termination of Gaussian 16 at Fri Mar 26 11:15:43 2021.

 ---------------------------------------------------------------------
 #N Geom=AllCheck Guess=TCheck SCRF=Check GenChk RwB97XD/def2TZVP Freq
 ---------------------------------------------------------------------

 Structure from the checkpoint file:  "/beegfs/scratch/user/q/tla25/Gau-68601.chk"
 ------------------------
 0_iteration/TS-433-0.out
 ------------------------
 Charge =  0 Multiplicity = 1

                         Standard orientation:
 ---------------------------------------------------------------------
 Center     Atomic      Atomic             Coordinates (Angstroms)
 Number     Number       Type             X           Y           Z
 ---------------------------------------------------------------------
      1          6           0        1.263616   -0.541933    0.147547
      2          6           0        0.997142   -1.642502   -0.685647
      3          8           0        1.794207   -2.511129   -1.058906
      4          6           0        0.341979    0.463145    0.537452
      5          6           0        1.411544    1.731683   -1.766151
      6          1           0        2.438426    1.512005   -1.486312
      7          1           0        1.005816    0.859702   -2.275719
      8          1           0        1.390783    2.587775   -2.439012
      9          7           0        0.635277    2.002199   -0.556932
     10          1           0        1.120747    2.670715    0.029415
     11          1           0       -0.269777    2.403629   -0.775978
     12          6           0        0.570618    1.156206    1.867351
     13          1           0        1.572310    1.574533    1.928719
     14          1           0       -0.162986    1.945771    2.026895
     15          1           0        0.478494    0.429454    2.674763
     16          6           0       -1.115723    0.162925    0.258354
     17          6           0       -1.670798    0.240724   -1.016440
     18          6           0       -3.006419   -0.060135   -1.234081
     19          6           0       -3.814157   -0.453573   -0.178955
     20          6           0       -3.272598   -0.541108    1.094349
     21          6           0       -1.938901   -0.231972    1.310991
     22          1           0       -1.062953    0.524014   -1.864727
     23          1           0       -3.411878    0.010715   -2.235123
     24          1           0       -4.856798   -0.690141   -0.347358
     25          1           0       -3.889556   -0.849958    1.928487
     26          1           0       -1.541130   -0.312086    2.313169
     27         17           0        2.932198   -0.386910    0.698911
     28          1           0       -0.057274   -1.715778   -0.997549
 ---------------------------------------------------------------------

 SCF Done:  E(RwB97XD) =  -1017.76833884     A.U. after    1 cycles

 The electronic state is 1-A.
 Alpha  occ. eigenvalues -- -101.68432 -19.20222 -14.49507 -10.37176 -10.34203
 Alpha  occ. eigenvalues --  -10.32100 -10.31526 -10.30800 -10.29917 -10.29754
 Alpha  occ. eigenvalues --  -10.29597 -10.29548 -10.29437 -10.28824  -9.56967
 Alpha  occ. eigenvalues --   -7.31572  -7.30773  -7.30754  -1.10473  -1.05083
 Alpha  occ. eigenvalues --   -0.98247  -0.95859  -0.90522  -0.86000  -0.84209
 Alpha  occ. eigenvalues --   -0.81340  -0.79085  -0.73010  -0.71210  -0.68930
 Alpha  occ. eigenvalues --   -0.65055  -0.62651  -0.60052  -0.58260  -0.58219
 Alpha  occ. eigenvalues --   -0.56309  -0.55292  -0.53472  -0.52495  -0.51490
 Alpha  occ. eigenvalues --   -0.50096  -0.49472  -0.48620  -0.48355  -0.47240
 Alpha  occ. eigenvalues --   -0.46988  -0.46503  -0.44264  -0.42957  -0.41741
 Alpha  occ. eigenvalues --   -0.40733  -0.38908  -0.34765  -0.34377  -0.31728
 Alpha  occ. eigenvalues --   -0.27609
 Alpha virt. eigenvalues --    0.02952   0.04545   0.05972   0.10204   0.11696
 Alpha virt. eigenvalues --    0.12460   0.13629   0.13951   0.14634   0.15956
 Alpha virt. eigenvalues --    0.16977   0.17415   0.17924   0.18426   0.19389

 Mulliken charges:
               1
     1  C   -0.054642
     2  C    0.035081
     3  O   -0.519440
     4  C    0.204650
     5  C   -0.294214
     6  H    0.155907
     7  H    0.153430
     8  H    0.167785
     9  N   -0.321067
    10  H    0.286804
    11  H    0.295871
    12  C   -0.424700
    13  H    0.158768
    14  H    0.169485
    15  H    0.156358
    16  C    0.139375
    17  C   -0.278395
    18  C   -0.155486
    19  C   -0.142705
    20  C   -0.146824
    21  C   -0.241469
    22  H    0.160411
    23  H    0.146099
    24  H    0.147339
    25  H    0.146388
    26  H    0.147704
    27  Cl  -0.189827
    28  H    0.097314
 Sum of Mulliken charges =  -0.00000

 Dipole moment (field-independent basis, Debye):
    X=             -6.5098    Y=             11.6510    Z=              0.4182  Tot=             13.3528
 Quadrupole moment (field-independent basis, Debye-Ang):
   XX=            -97.2548   YY=            -94.7803   ZZ=            -83.0689
   XY=             19.7255   XZ=              2.0883   YZ=             -9.9418

  Exact polarizability: 246.485  -1.068 200.103   3.354   2.732 201.712
 Approx polarizability: 192.492  -0.125 166.284   2.653   1.970 174.220

 ******    1 imaginary frequencies (negative Signs) ******

                      1                      2                      3
                      A                      A                      A
 Frequencies --   -323.4427                26.3816                56.5381
 Red. masses --      5.4848                 3.9206                 6.5532
 Frc consts  --      0.3381                 0.0016                 0.0123
 IR Inten    --    753.6099                 4.1238                 1.8259

                      4                      5                      6
                      A                      A                      A
 Frequencies --     81.0724               107.4968               130.9067
 Red. masses --      5.0142                 3.8627                 2.3993
 Frc consts  --      0.0194                 0.0263                 0.0242
 IR Inten    --      3.9174                 9.4984                 0.6346

                      7                      8                      9
                      A                      A                      A
 Frequencies --    144.5916               194.2505               223.1386
 Red. masses --      1.2300                 3.2254                 7.7102
 Frc consts  --      0.0152                 0.0717                 0.2262
 IR Inten    --      1.0594                 2.5566                12.6710

                     10                     11                     12
                      A                      A                      A
 Frequencies --    242.4482               264.3232               282.6318
 Red. masses --      2.5007                 4.8877                 5.1806
 Frc consts  --      0.0866                 0.2012                 0.2438
 IR Inten    --      6.0798                 1.9071                 2.8004

                     13                     14                     15
                      A                      A                      A
 Frequencies --    309.4582               334.7673               342.7232
 Red. masses --      2.6033                 2.1391                 3.0021
 Frc consts  --      0.1469                 0.1412                 0.2078
 IR Inten    --     21.4325                21.3275                 2.7984

                     16                     17                     18
                      A                      A                      A
 Frequencies --    363.2238               411.1618               421.6084
 Red. masses --      1.5916                 3.4576                 2.9113
 Frc consts  --      0.1237                 0.3444                 0.3049
 IR Inten    --      0.8836                16.2598                 0.2646

                     19                     20                     21
                      A                      A                      A
 Frequencies --    492.7607               546.0144               593.2762
 Red. masses --      3.9960                 3.8204                 3.9454
 Frc consts  --      0.5717                 0.6711                 0.8182
 IR Inten    --     17.3824                 8.2622               131.5242

                     22                     23                     24
                      A                      A                      A
 Frequencies --    632.0510               639.0938               657.9947
 Red. masses --      2.3836                 6.1510                 4.4274
 Frc consts  --      0.5610                 1.4802                 1.1294
 IR Inten    --     71.1626                 0.8489                85.6189

                     25                     26                     27
                      A                      A                      A
 Frequencies --    678.2257               729.1102               796.1606
 Red. masses --      2.3324                 1.5509                 2.3557
 Frc consts  --      0.6321                 0.4858                 0.8798
 IR Inten    --     37.6891                88.6768                33.0060

                     28                     29                     30
                      A                      A                      A
 Frequencies --    824.5195               877.2579               960.6945
 Red. masses --      3.0803                 1.2493                 1.4102
 Frc consts  --      1.2338                 0.5665                 0.7668
 IR Inten    --      8.7636                 0.4726                 3.4981

                     31                     32                     33
                      A                      A                      A
 Frequencies --   1013.3455              1013.8296              1016.5456
 Red. masses --      1.1617                 1.4716                 1.4946
 Frc consts  --      0.7029                 0.8912                 0.9100
 IR Inten    --      1.3991                 1.6402                 1.0951

                     34                     35                     36
                      A                      A                      A
 Frequencies --   1027.5399              1033.3482              1036.1805
 Red. masses --      4.4821                 1.3269                 1.6838
 Frc consts  --      2.7882                 0.8348                 1.0651
 IR Inten    --      3.3786                 5.2911                 5.2570

                     37                     38                     39
                      A                      A                      A
 Frequencies --   1039.7379              1056.1341              1066.2018
 Red. masses --      1.5730                 1.7773                 2.0607
 Frc consts  --      1.0019                 1.1680                 1.3802
 IR Inten    --    204.6146                37.4501                12.6345

                     40                     41                     42
                      A                      A                      A
 Frequencies --   1081.4126              1111.3332              1132.6398
 Red. masses --      3.3400                 2.0845                 1.6388
 Frc consts  --      2.3013                 1.5169                 1.2387
 IR Inten    --      3.8681                 8.5723                14.4399

                     43                     44                     45
                      A                      A                      A
 Frequencies --   1188.6245              1224.7304              1228.4404
 Red. masses --      1.1324                 2.1144                 1.3920
 Frc consts  --      0.9427                 1.8686                 1.2377
 IR Inten    --      0.3320                11.2366                 8.3844

                     46                     47                     48
                      A                      A                      A
 Frequencies --   1240.2944              1301.6506              1326.0468
 Red. masses --      1.5143                 3.2686                 4.3870
 Frc consts  --      1.3725                 3.2629                 4.5450
 IR Inten    --     45.9546               188.8237                 0.9807

                     49                     50                     51
                      A                      A                      A
 Frequencies --   1346.0707              1365.8810              1374.2218
 Red. masses --      1.3657                 2.1300                 1.4717
 Frc consts  --      1.4580                 2.3413                 1.6375
 IR Inten    --      6.3519               340.1372               160.1597

                     52                     53                     54
                      A                      A                      A
 Frequencies --   1422.0920              1456.5141              1470.8421
 Red. masses --      1.2369                 1.4970                 1.4958
 Frc consts  --      1.4738                 1.8711                 1.9065
 IR Inten    --     17.7595                51.9697                49.1605

                     55                     56                     57
                      A                      A                      A
 Frequencies --   1487.0495              1494.7171              1495.6013
 Red. masses --      1.2504                 1.0477                 1.6985
 Frc consts  --      1.6291                 1.3792                 2.2384
 IR Inten    --     14.5283                19.7813                29.4568

                     58                     59                     60
                      A                      A                      A
 Frequencies --   1503.0597              1512.7392              1549.9584
 Red. masses --      1.0530                 1.1068                 2.2126
 Frc consts  --      1.4016                 1.4923                 3.1318
 IR Inten    --     16.6110                33.3346                23.7709

                     61                     62                     63
                      A                      A                      A
 Frequencies --   1648.7279              1650.8283              1653.1808
 Red. masses --      1.8641                 1.9362                 5.3081
 Frc consts  --      2.9855                 3.1089                 8.5474
 IR Inten    --    326.6964               912.4611                24.6863

                     64                     65                     66
                      A                      A                      A
 Frequencies --   1677.4945              2988.7679              3074.0620
 Red. masses --      5.7615                 1.0819                 1.0371
 Frc consts  --      9.5524                 5.6941                 5.7742
 IR Inten    --      6.8727                94.5018                12.2005

                     67                     68                     69
                      A                      A                      A
 Frequencies --   3082.5009              3149.1332              3162.7000
 Red. masses --      1.0340                 1.1026                 1.1049
 Frc consts  --      5.7887                 6.4422                 6.5119
 IR Inten    --     23.1683                17.4507                13.0547

                     70                     71                     72
                      A                      A                      A
 Frequencies --   3170.6415              3182.2967              3200.4596
 Red. masses --      1.1024                 1.1051                 1.0862
 Frc consts  --      6.5294                 6.5936                 6.5554
 IR Inten    --     16.3653                 8.9604                 0.1451

                     73                     74                     75
                      A                      A                      A
 Frequencies --   3209.3500              3219.7315              3228.9792
 Red. masses --      1.0896                 1.0934                 1.0935
 Frc consts  --      6.6124                 6.6785                 6.7172
 IR Inten    --      6.9730                23.5240                23.1850

                     76                     77                     78
                      A                      A                      A
 Frequencies --   3232.6614              3524.6335              3601.4014
 Red. masses --      1.0959                 1.0519                 1.0951
 Frc consts  --      6.7476                 7.6993                 8.3682
 IR Inten    --      2.8903                62.5273                51.1567

 - Thermochemistry -
 -------------------
 Temperature   298.150 Kelvin.  Pressure   1.00000 Atm.
 Atom     1 has atomic number  6 and mass  12.00000

 Molecular mass:   211.07639 amu.
 Principal axes and moments of inertia in atomic units:
                           1         2         3
     Eigenvalues --  1913.526374402.492274586.73007
           X            0.99956   0.02735  -0.01171
           Y           -0.02846   0.99372  -0.10820
           Z            0.00868   0.10849   0.99406
 This molecule is an asymmetric top.
 Rotational symmetry number  1.
 Warning -- assumption of classical behavior for rotation
           may cause significant error
 Rotational temperatures (Kelvin)      0.04526     0.01967     0.01888
 Rotational constants (GHZ):           0.94315     0.40994     0.39347
    1 imaginary frequencies ignored.
 Zero-point vibrational energy     607931.5 (Joules/Mol)
                                  145.29912 (Kcal/Mol)
 Warning -- explicit consideration of  20 degrees of freedom as
           vibrations may cause significant error
 Vibrational temperatures:     37.96    81.35   116.65   154.66   188.35
          (Kelvin)            208.04   279.48   321.05   348.83   380.30
                              406.64   445.24   481.66   493.10   522.60
                              591.57   606.60   708.97   785.59   853.59
                              909.38   919.51   946.71   975.82  1049.03
                             1145.50  1186.30  1262.18  1382.23  1457.98
                             1458.67  1462.58  1478.40  1486.76  1490.83
                             1495.95  1519.54  1534.03  1555.91  1598.96
                             1629.62  1710.17  1762.11  1767.45  1784.51
                             1872.78  1907.89  1936.70  1965.20  1977.20
                             2046.07  2095.60  2116.21  2139.53  2150.56
                             2151.84  2162.57  2176.49  2230.04  2372.15
                             2375.17  2378.56  2413.54  4300.17  4422.89
                             4435.03  4530.90  4550.42  4561.85  4578.62
                             4604.75  4617.54  4632.48  4645.78  4651.08
                             5071.16  5181.61

 Zero-point correction=                           0.231549 (Hartree/Particle)
 Thermal correction to Energy=                    0.245508
 Thermal correction to Enthalpy=                  0.246452
 Thermal correction to Gibbs Free Energy=         0.190063
 Sum of electronic and zero-point Energies=          -1017.536790
 Sum of electronic and thermal Energies=             -1017.522831
 Sum of electronic and thermal Enthalpies=           -1017.521887
 Sum of electronic and thermal Free Energies=        -1017.578276

                     E (Thermal)             CV                S
                      KCal/Mol        Cal/Mol-Kelvin    Cal/Mol-Kelvin
 Total                  154.058             52.147            118.681
 Electronic               0.000              0.000              0.000
 Translational            0.889              2.981             41.945
 Rotational               0.889              2.981             32.024
 Vibrational            152.281             46.186             44.712
 Vibration     1          0.593              1.985              6.084
 Vibration     2          0.596              1.975              4.575
 Vibration     3          0.600              1.962              3.865
 Vibration     4          0.606              1.943              3.314
 Vibration     5          0.612              1.922              2.933
 Vibration     6          0.616              1.909              2.742
 Vibration     7          0.635              1.848              2.187
 Vibration     8          0.649              1.806              1.933
 Vibration     9          0.659              1.775              1.785
 Vibration    10          0.671              1.738              1.633
 Vibration    11          0.682              1.706              1.518
 Vibration    12          0.699              1.656              1.365
 Vibration    13          0.716              1.606              1.237
 Vibration    14          0.722              1.590              1.199
 Vibration    15          0.737              1.548              1.108
 Vibration    16          0.775              1.446              0.923
 Vibration    17          0.784              1.423              0.887
 Vibration    18          0.848              1.266              0.676
 Vibration    19          0.901              1.148              0.552
 Vibration    20          0.951              1.046              0.461

 Optimization completed.
    -- Stationary point found.
 Normal termination of Gaussian 16 at Fri Mar 26 12:08:12 2021.
