 Gaussian 16, Revision A.03,
 Gaussian 16:  ES64L-G16RevA.03 25-Dec-2016

 ----------------------------------------------------------------------
 # wB97XD def2tzvp, opt=(ts, noeigen, calcfc, maxcycles=70, maxstep=5),
  freq=noraman, scrf=(iefpcm, solvent=water)
 ----------------------------------------------------------------------

 ------------------------
 2_iteration/TS-428-2.out
 ------------------------
 Symbolic Z-matrix:
 Charge =  0 Multiplicity = 1

 SCF Done:  E(RwB97XD) =  -3246.32918541     A.U. after   15 cycles
 SCF Done:  E(RwB97XD) =  -3246.32940293     A.U. after   12 cycles
 SCF Done:  E(RwB97XD) =  -3246.32971812     A.U. after   12 cycles
 SCF Done:  E(RwB97XD) =  -3246.32975702     A.U. after   12 cycles
 SCF Done:  E(RwB97XD) =  -3246.32976374     A.U. after   10 cycles
 SCF Done:  E(RwB97XD) =  -3246.32976517     A.U. after   10 cycles
 SCF Done:  E(RwB97XD) =  -3246.32976523     A.U. after    7 cycles
 Optimization completed.
    -- Stationary point found.
 Normal termination of Gaussian 16 at Sun Feb 14 16:04:42 2021.

 ---------------------------------------------------------------------
 #N Geom=AllCheck Guess=TCheck SCRF=Check GenChk RwB97XD/def2TZVP Freq
 ---------------------------------------------------------------------

 Structure from the checkpoint file:  "/beegfs/scratch/user/q/tla25/Gau-75340.chk"
 ------------------------
 2_iteration/TS-428-2.out
 ------------------------
 Charge =  0 Multiplicity = 1

                         Standard orientation:
 ---------------------------------------------------------------------
 Center     Atomic      Atomic             Coordinates (Angstroms)
 Number     Number       Type             X           Y           Z
 ---------------------------------------------------------------------
      1          6           0        0.767054   -0.032430   -0.195515
      2          6           0        0.861283    1.215787    0.487542
      3          8           0        0.045740    1.599853    1.325387
      4          6           0       -0.360791   -0.864246   -0.041614
      5          6           0        0.864650   -1.785436    2.373398
      6          1           0        1.673097   -1.229562    1.897670
      7          1           0        0.955539   -1.678225    3.454787
      8          1           0        0.953206   -2.837824    2.111009
      9          7           0       -0.404843   -1.264587    1.886530
     10          1           0       -1.180953   -1.839704    2.186164
     11          1           0       -0.556586   -0.310495    2.203352
     12          6           0       -0.314874   -2.261068   -0.610871
     13          1           0       -0.326821   -2.199626   -1.700854
     14          1           0        0.588133   -2.789726   -0.313186
     15          1           0       -1.186830   -2.831458   -0.297626
     16          6           0       -1.733679   -0.239882   -0.187078
     17          6           0       -2.877599   -0.831971    0.345401
     18          6           0       -4.134381   -0.292249    0.121222
     19          6           0       -4.277167    0.844682   -0.659512
     20          6           0       -3.150901    1.427039   -1.220427
     21          6           0       -1.895772    0.886855   -0.989546
     22          1           0       -2.810224   -1.735286    0.937147
     23          1           0       -5.004439   -0.768868    0.554552
     24          1           0       -5.258368    1.265882   -0.837491
     25          1           0       -3.246601    2.305790   -1.845720
     26          1           0       -1.025278    1.340043   -1.443725
     27         35           0        2.339775   -0.693130   -1.066226
     28          8           0        1.938733    1.963360    0.177000
     29          6           0        2.093596    3.176012    0.902747
     30          1           0        1.260972    3.854101    0.714515
     31          1           0        3.019852    3.617859    0.544183
     32          1           0        2.162759    2.984490    1.973842
 ---------------------------------------------------------------------

 SCF Done:  E(RwB97XD) =  -3246.32976523     A.U. after    1 cycles

 The electronic state is 1-A.
 Alpha  occ. eigenvalues -- -483.11904 -62.66729 -56.45838 -56.45495 -56.45491
 Alpha  occ. eigenvalues --  -19.28457 -19.21675 -14.47422 -10.40138 -10.36337
 Alpha  occ. eigenvalues --  -10.32730 -10.31318 -10.30787 -10.30217 -10.29539
 Alpha  occ. eigenvalues --  -10.29249 -10.29161 -10.29113 -10.29056 -10.28536
 Alpha  occ. eigenvalues --   -8.80836  -6.62959  -6.61865  -6.61852  -2.73353
 Alpha  occ. eigenvalues --   -2.73032  -2.73022  -2.72136  -2.72136  -1.19937
 Alpha  occ. eigenvalues --   -1.10217  -1.03262  -0.97505  -0.93540  -0.88338
 Alpha  occ. eigenvalues --   -0.85454  -0.83668  -0.82785  -0.78747  -0.78286
 Alpha  occ. eigenvalues --   -0.71784  -0.70576  -0.67811  -0.63916  -0.62408
 Alpha  occ. eigenvalues --   -0.61934  -0.58206  -0.57166  -0.56721  -0.56205
 Alpha  occ. eigenvalues --   -0.55365  -0.53904  -0.53472  -0.51709  -0.51322
 Alpha  occ. eigenvalues --   -0.50179  -0.49577  -0.47884  -0.47520  -0.47130
 Alpha  occ. eigenvalues --   -0.46881  -0.46401  -0.43675  -0.42956  -0.42632
 Alpha  occ. eigenvalues --   -0.40863  -0.39323  -0.38350  -0.37551  -0.35108
 Alpha  occ. eigenvalues --   -0.33933  -0.32907  -0.27062
 Alpha virt. eigenvalues --    0.02186   0.05177   0.06866   0.09455   0.10234
 Alpha virt. eigenvalues --    0.12816   0.13611   0.13843   0.15255   0.15727
 Alpha virt. eigenvalues --    0.16144   0.16524   0.17160   0.18372   0.18911

 Mulliken charges:
               1
     1  C   -0.372796
     2  C    0.451128
     3  O   -0.529428
     4  C    0.259062
     5  C   -0.304762
     6  H    0.152912
     7  H    0.154332
     8  H    0.157340
     9  N   -0.335619
    10  H    0.267553
    11  H    0.279738
    12  C   -0.375084
    13  H    0.157605
    14  H    0.147359
    15  H    0.148539
    16  C    0.206603
    17  C   -0.266231
    18  C   -0.174165
    19  C   -0.139272
    20  C   -0.146854
    21  C   -0.229248
    22  H    0.149015
    23  H    0.143334
    24  H    0.144912
    25  H    0.142647
    26  H    0.161355
    27  Br  -0.147680
    28  O   -0.303508
    29  C   -0.193028
    30  H    0.127233
    31  H    0.139794
    32  H    0.127214
 Sum of Mulliken charges =  -0.00000

 Dipole moment (field-independent basis, Debye):
    X=             -3.3008    Y=             -3.8856    Z=              3.7695  Tot=              6.3406
 Quadrupole moment (field-independent basis, Debye-Ang):
   XX=           -103.7588   YY=            -95.8428   ZZ=           -102.3687
   XY=              6.2882   XZ=              3.6111   YZ=            -11.2587

  Exact polarizability: 283.218   2.162 245.216 -14.320 -21.508 212.013
 Approx polarizability: 220.062   0.710 199.844 -15.276 -17.177 181.505

 ******    1 imaginary frequencies (negative Signs) ******

                      1                      2                      3
                      A                      A                      A
 Frequencies --   -361.9026                49.6289                52.2288
 Red. masses --      5.1151                 4.2679                 3.8315
 Frc consts  --      0.3947                 0.0062                 0.0062
 IR Inten    --    560.6231                 0.6099                 1.3500

                      4                      5                      6
                      A                      A                      A
 Frequencies --     66.3009                80.0369               102.1566
 Red. masses --      4.8385                 3.0717                 3.0764
 Frc consts  --      0.0125                 0.0116                 0.0189
 IR Inten    --      3.1364                 0.7433                 2.5091

                      7                      8                      9
                      A                      A                      A
 Frequencies --    119.5230               140.3461               147.8544
 Red. masses --      2.7171                 3.5105                 4.2690
 Frc consts  --      0.0229                 0.0407                 0.0550
 IR Inten    --      0.6590                 7.7076                16.2552

                     10                     11                     12
                      A                      A                      A
 Frequencies --    175.9660               181.4741               196.6083
 Red. masses --      1.5260                 2.0311                 3.8697
 Frc consts  --      0.0278                 0.0394                 0.0881
 IR Inten    --      3.2469                 4.8863                 1.0428

                     13                     14                     15
                      A                      A                      A
 Frequencies --    205.9994               255.7771               279.6410
 Red. masses --      1.6894                 2.7290                 1.3141
 Frc consts  --      0.0422                 0.1052                 0.0605
 IR Inten    --      4.8956                10.6687                 1.2439

                     16                     17                     18
                      A                      A                      A
 Frequencies --    287.1205               307.9165               317.2842
 Red. masses --      3.5543                 3.9724                 4.3511
 Frc consts  --      0.1726                 0.2219                 0.2581
 IR Inten    --      6.0339                11.7113                 7.6758

                     19                     20                     21
                      A                      A                      A
 Frequencies --    334.9000               366.0006               416.1897
 Red. masses --      2.5796                 3.4258                 5.9555
 Frc consts  --      0.1705                 0.2704                 0.6078
 IR Inten    --     23.8544                 9.1063                16.6154

                     22                     23                     24
                      A                      A                      A
 Frequencies --    427.3513               434.8306               559.5409
 Red. masses --      3.1565                 4.8978                 2.9973
 Frc consts  --      0.3396                 0.5456                 0.5529
 IR Inten    --      2.0022                 9.0196                78.7917

                     25                     26                     27
                      A                      A                      A
 Frequencies --    568.6068               616.2059               638.5868
 Red. masses --      4.3069                 2.9893                 6.3465
 Frc consts  --      0.8204                 0.6688                 1.5248
 IR Inten    --     73.0506                13.7597                 1.6583

                     28                     29                     30
                      A                      A                      A
 Frequencies --    676.4794               727.3235               759.9194
 Red. masses --      1.7753                 1.6603                 4.7998
 Frc consts  --      0.4787                 0.5175                 1.6331
 IR Inten    --     84.3284                83.3845                12.2796

                     31                     32                     33
                      A                      A                      A
 Frequencies --    791.4569               796.4005               809.8116
 Red. masses --      8.1106                 2.2135                 4.0782
 Frc consts  --      2.9934                 0.8272                 1.5757
 IR Inten    --     68.9342                40.7707                31.3240

                     34                     35                     36
                      A                      A                      A
 Frequencies --    878.0147               958.5527               967.0306
 Red. masses --      1.2447                 1.7947                 2.8602
 Frc consts  --      0.5654                 0.9716                 1.5759
 IR Inten    --      0.6285                20.7837                 1.5572

                     37                     38                     39
                      A                      A                      A
 Frequencies --    998.2692              1018.9264              1025.3708
 Red. masses --      1.1452                 1.4839                 3.3163
 Frc consts  --      0.6724                 0.9077                 2.0543
 IR Inten    --     52.8034                22.5258                 7.3118

                     40                     41                     42
                      A                      A                      A
 Frequencies --   1027.2251              1032.4542              1050.3481
 Red. masses --      2.1640                 1.3243                 1.3957
 Frc consts  --      1.3454                 0.8317                 0.9072
 IR Inten    --     72.7176                 1.1995               149.1023

                     43                     44                     45
                      A                      A                      A
 Frequencies --   1054.0040              1063.2811              1090.3822
 Red. masses --      1.4659                 2.3904                 3.3044
 Frc consts  --      0.9595                 1.5923                 2.3147
 IR Inten    --     38.6056                 8.1671                 5.9304

                     46                     47                     48
                      A                      A                      A
 Frequencies --   1115.7181              1123.0623              1132.7905
 Red. masses --      2.9481                 2.0852                 2.4306
 Frc consts  --      2.1622                 1.5495                 1.8376
 IR Inten    --     90.2527                12.7158               113.4672

                     49                     50                     51
                      A                      A                      A
 Frequencies --   1181.3768              1185.2404              1212.3346
 Red. masses --      1.2813                 1.1258                 1.2911
 Frc consts  --      1.0536                 0.9318                 1.1180
 IR Inten    --      1.6267                 0.0437                31.7089

                     52                     53                     54
                      A                      A                      A
 Frequencies --   1217.3208              1223.2512              1263.2781
 Red. masses --      1.5526                 1.2238                 4.5930
 Frc consts  --      1.3556                 1.0789                 4.3187
 IR Inten    --    116.5817                16.4412               105.8407

                     55                     56                     57
                      A                      A                      A
 Frequencies --   1318.1535              1331.6363              1352.1179
 Red. masses --      4.4618                 5.5816                 1.4177
 Frc consts  --      4.5676                 5.8315                 1.5270
 IR Inten    --    107.4338               728.2661                33.5339

                     58                     59                     60
                      A                      A                      A
 Frequencies --   1368.4303              1399.5579              1419.3327
 Red. masses --      1.3709                 3.0590                 1.3587
 Frc consts  --      1.5125                 3.5303                 1.6126
 IR Inten    --      4.2925               425.4898               103.4603

                     61                     62                     63
                      A                      A                      A
 Frequencies --   1465.1112              1480.0593              1482.4576
 Red. masses --      1.1765                 1.1920                 1.0766
 Frc consts  --      1.4879                 1.5385                 1.3940
 IR Inten    --      3.5683                95.5583                19.9442

                     64                     65                     66
                      A                      A                      A
 Frequencies --   1482.6884              1490.8337              1493.1210
 Red. masses --      1.2217                 1.0565                 1.5294
 Frc consts  --      1.5823                 1.3835                 2.0089
 IR Inten    --     12.9363                40.6541                44.0218

                     67                     68                     69
                      A                      A                      A
 Frequencies --   1496.5923              1497.5671              1512.4538
 Red. masses --      1.1278                 1.1854                 1.0331
 Frc consts  --      1.4882                 1.5663                 1.3924
 IR Inten    --      5.7616                15.5116                10.1358

                     70                     71                     72
                      A                      A                      A
 Frequencies --   1543.3598              1633.2677              1651.6347
 Red. masses --      2.2261                 1.5103                 4.6294
 Frc consts  --      3.1242                 2.3737                 7.4405
 IR Inten    --     17.9534               325.7933                 2.6139

                     73                     74                     75
                      A                      A                      A
 Frequencies --   1668.0846              1674.1636              3062.0444
 Red. masses --      3.2039                 5.9232                 1.0309
 Frc consts  --      5.2525                 9.7814                 5.6950
 IR Inten    --    228.7472                10.3342                61.1259

                     76                     77                     78
                      A                      A                      A
 Frequencies --   3064.7580              3070.5366              3137.4378
 Red. masses --      1.0333                 1.0380                 1.1066
 Frc consts  --      5.7182                 5.7661                 6.4180
 IR Inten    --     44.4418                 9.5457                32.6542

                     79                     80                     81
                      A                      A                      A
 Frequencies --   3137.6368              3145.3301              3160.8857
 Red. masses --      1.1040                 1.0984                 1.1052
 Frc consts  --      6.4035                 6.4025                 6.5062
 IR Inten    --     19.8039                14.2544                19.6818

                     82                     83                     84
                      A                      A                      A
 Frequencies --   3170.2200              3172.4546              3196.6057
 Red. masses --      1.1041                 1.1052                 1.0857
 Frc consts  --      6.5377                 6.5538                 6.5367
 IR Inten    --     22.9798                26.3907                 1.3466

                     85                     86                     87
                      A                      A                      A
 Frequencies --   3204.1583              3213.7286              3221.6369
 Red. masses --      1.0887                 1.0921                 1.0944
 Frc consts  --      6.5853                 6.6457                 6.6925
 IR Inten    --      4.7344                29.6003                28.9906

                     88                     89                     90
                      A                      A                      A
 Frequencies --   3226.8642              3495.1669              3609.5727
 Red. masses --      1.0973                 1.0560                 1.0908
 Frc consts  --      6.7317                 7.6007                 8.3735
 IR Inten    --      8.3191                44.7165                66.0414

 - Thermochemistry -
 -------------------
 Temperature   298.150 Kelvin.  Pressure   1.00000 Atm.
 Atom     1 has atomic number  6 and mass  12.00000

 Molecular mass:   285.03644 amu.
 Principal axes and moments of inertia in atomic units:
                           1         2         3
     Eigenvalues --  3144.846006156.166356935.43570
           X            0.99874   0.03662   0.03430
           Y           -0.03380   0.99627  -0.07934
           Z           -0.03708   0.07808   0.99626
 This molecule is an asymmetric top.
 Rotational symmetry number  1.
 Warning -- assumption of classical behavior for rotation
           may cause significant error
 Rotational temperatures (Kelvin)      0.02754     0.01407     0.01249
 Rotational constants (GHZ):           0.57387     0.29316     0.26022
    1 imaginary frequencies ignored.
 Zero-point vibrational energy     692382.8 (Joules/Mol)
                                  165.48345 (Kcal/Mol)
 Warning -- explicit consideration of  25 degrees of freedom as
           vibrations may cause significant error
 Vibrational temperatures:     71.40    75.15    95.39   115.16   146.98
          (Kelvin)            171.97   201.93   212.73   253.18   261.10
                              282.88   296.39   368.01   402.34   413.10
                              443.02   456.50   481.85   526.59   598.80
                              614.86   625.62   805.05   818.10   886.58
                              918.78   973.30  1046.46  1093.35  1138.73
                             1145.84  1165.14  1263.27  1379.14  1391.34
                             1436.29  1466.01  1475.28  1477.95  1485.47
                             1511.22  1516.48  1529.82  1568.82  1605.27
                             1615.84  1629.83  1699.74  1705.30  1744.28
                             1751.45  1759.99  1817.58  1896.53  1915.93
                             1945.40  1968.87  2013.65  2042.10  2107.97
                             2129.48  2132.93  2133.26  2144.98  2148.27
                             2153.26  2154.67  2176.08  2220.55  2349.91
                             2376.33  2400.00  2408.75  4405.60  4409.50
                             4417.82  4514.07  4514.36  4525.43  4547.81
                             4561.24  4564.45  4599.20  4610.07  4623.84
                             4635.22  4642.74  5028.77  5193.37

 Zero-point correction=                           0.263715 (Hartree/Particle)
 Thermal correction to Energy=                    0.280488
 Thermal correction to Enthalpy=                  0.281432
 Thermal correction to Gibbs Free Energy=         0.218614
 Sum of electronic and zero-point Energies=          -3246.066051
 Sum of electronic and thermal Energies=             -3246.049277
 Sum of electronic and thermal Enthalpies=           -3246.048333
 Sum of electronic and thermal Free Energies=        -3246.111151

                     E (Thermal)             CV                S
                      KCal/Mol        Cal/Mol-Kelvin    Cal/Mol-Kelvin
 Total                  176.009             61.320            132.212
 Electronic               0.000              0.000              0.000
 Translational            0.889              2.981             42.840
 Rotational               0.889              2.981             33.262
 Vibrational            174.231             55.359             56.109
 Vibration     1          0.595              1.978              4.832
 Vibration     2          0.596              1.977              4.731
 Vibration     3          0.598              1.970              4.260
 Vibration     4          0.600              1.963              3.890
 Vibration     5          0.604              1.947              3.413
 Vibration     6          0.609              1.933              3.108
 Vibration     7          0.615              1.913              2.799
 Vibration     8          0.617              1.905              2.700
 Vibration     9          0.628              1.872              2.371
 Vibration    10          0.630              1.865              2.313
 Vibration    11          0.636              1.845              2.165
 Vibration    12          0.640              1.831              2.079
 Vibration    13          0.666              1.753              1.690
 Vibration    14          0.680              1.711              1.536
 Vibration    15          0.684              1.698              1.491
 Vibration    16          0.698              1.659              1.374
 Vibration    17          0.704              1.641              1.324
 Vibration    18          0.716              1.606              1.236
 Vibration    19          0.739              1.542              1.097
 Vibration    20          0.779              1.435              0.905
 Vibration    21          0.789              1.411              0.867
 Vibration    22          0.795              1.394              0.843
 Vibration    23          0.915              1.119              0.525
 Vibration    24          0.925              1.099              0.507
 Vibration    25          0.976              0.998              0.423

 Optimization completed.
    -- Stationary point found.
 Normal termination of Gaussian 16 at Sun Feb 14 17:26:11 2021.
