 Gaussian 16, Revision A.03,
 Gaussian 16:  ES64L-G16RevA.03 25-Dec-2016

 ----------------------------------------------------------------------
 # wB97XD def2tzvp, opt=(ts, noeigen, calcfc, maxcycles=70, maxstep=8),
  freq=noraman, scrf=(iefpcm, solvent=water)
 ----------------------------------------------------------------------

 ------------------------
 1_iteration/TS-411-1.out
 ------------------------
 Symbolic Z-matrix:
 Charge =  0 Multiplicity = 1

 SCF Done:  E(RwB97XD) =  -613.532917181     A.U. after   14 cycles
 SCF Done:  E(RwB97XD) =  -613.536424510     A.U. after   14 cycles
 SCF Done:  E(RwB97XD) =  -613.538228110     A.U. after   13 cycles
 SCF Done:  E(RwB97XD) =  -613.538507957     A.U. after   13 cycles
 SCF Done:  E(RwB97XD) =  -613.538626018     A.U. after   12 cycles
 SCF Done:  E(RwB97XD) =  -613.538677914     A.U. after   10 cycles
 SCF Done:  E(RwB97XD) =  -613.538679442     A.U. after   10 cycles
 SCF Done:  E(RwB97XD) =  -613.538682476     A.U. after   10 cycles
 SCF Done:  E(RwB97XD) =  -613.538683099     A.U. after    8 cycles
 SCF Done:  E(RwB97XD) =  -613.538683159     A.U. after    7 cycles
 Optimization completed.
    -- Stationary point found.
 Normal termination of Gaussian 16 at Sun Feb 14 07:11:59 2021.

 ---------------------------------------------------------------------
 #N Geom=AllCheck Guess=TCheck SCRF=Check GenChk RwB97XD/def2TZVP Freq
 ---------------------------------------------------------------------

 Structure from the checkpoint file:  "/beegfs/scratch/user/q/tla25/Gau-40871.chk"
 ------------------------
 1_iteration/TS-411-1.out
 ------------------------
 Charge =  0 Multiplicity = 1

                         Standard orientation:
 ---------------------------------------------------------------------
 Center     Atomic      Atomic             Coordinates (Angstroms)
 Number     Number       Type             X           Y           Z
 ---------------------------------------------------------------------
      1          6           0        1.446074    0.099582   -0.965665
      2          6           0        1.906893    1.300058   -0.356013
      3          8           0        1.586802    1.699370    0.783901
      4          6           0        0.416079   -0.739281   -0.483039
      5          6           0        2.202658   -1.910826    1.379035
      6          1           0        2.850006   -1.478234    0.611072
      7          1           0        2.682953   -1.790354    2.350359
      8          1           0        2.064137   -2.970722    1.178087
      9          7           0        0.923081   -1.222325    1.319937
     10          1           0        0.186260   -1.711608    1.812854
     11          1           0        1.011336   -0.279813    1.689963
     12          6           0        0.418567   -2.107838   -1.136226
     13          1           0        0.115384   -2.027464   -2.180553
     14          1           0        1.424795   -2.522323   -1.124409
     15          1           0       -0.255136   -2.801635   -0.634764
     16          6           0       -0.969879   -0.204341   -0.178549
     17          6           0       -1.229933    0.791616    0.765672
     18          6           0       -2.517456    1.260545    0.977925
     19          6           0       -3.583747    0.755747    0.249657
     20          6           0       -3.343545   -0.228369   -0.695326
     21          6           0       -2.056818   -0.704141   -0.900309
     22          1           0       -0.410658    1.225583    1.318143
     23          1           0       -2.684211    2.031164    1.720600
     24          1           0       -4.588003    1.124170    0.416785
     25          1           0       -4.160083   -0.636550   -1.277903
     26          1           0       -1.911608   -1.472777   -1.645762
     27          1           0        2.099290   -0.334121   -1.714220
     28          7           0        2.807685    2.058512   -1.077813
     29          1           0        3.397690    2.668627   -0.537628
     30          1           0        3.234710    1.651277   -1.891676
 ---------------------------------------------------------------------

 SCF Done:  E(RwB97XD) =  -613.538683159     A.U. after    1 cycles

 The electronic state is 1-A.
 Alpha  occ. eigenvalues --  -19.19317 -14.47247 -14.42678 -10.36601 -10.34928
 Alpha  occ. eigenvalues --  -10.31128 -10.30250 -10.28853 -10.28789 -10.28733
 Alpha  occ. eigenvalues --  -10.28676 -10.28210 -10.27840 -10.23855  -1.11292
 Alpha  occ. eigenvalues --   -1.03069  -0.98016  -0.96714  -0.90845  -0.84896
 Alpha  occ. eigenvalues --   -0.83925  -0.79764  -0.78313  -0.72242  -0.70073
 Alpha  occ. eigenvalues --   -0.67847  -0.63385  -0.62395  -0.61623  -0.58507
 Alpha  occ. eigenvalues --   -0.56788  -0.56362  -0.54956  -0.53710  -0.53350
 Alpha  occ. eigenvalues --   -0.51106  -0.51014  -0.49652  -0.48418  -0.47630
 Alpha  occ. eigenvalues --   -0.46712  -0.46046  -0.45922  -0.45743  -0.42504
 Alpha  occ. eigenvalues --   -0.42395  -0.40150  -0.34706  -0.33604  -0.33284
 Alpha  occ. eigenvalues --   -0.32687  -0.26398
 Alpha virt. eigenvalues --    0.03729   0.05521   0.08195   0.10683   0.12896
 Alpha virt. eigenvalues --    0.13392   0.14234   0.14950   0.15988   0.16572
 Alpha virt. eigenvalues --    0.17212   0.17330   0.18704   0.19099   0.19976

 Mulliken charges:
               1
     1  C   -0.560976
     2  C    0.385927
     3  O   -0.596787
     4  C    0.287158
     5  C   -0.315584
     6  H    0.148778
     7  H    0.152690
     8  H    0.160882
     9  N   -0.313382
    10  H    0.277590
    11  H    0.268936
    12  C   -0.438533
    13  H    0.156061
    14  H    0.154289
    15  H    0.161216
    16  C    0.151624
    17  C   -0.261286
    18  C   -0.162734
    19  C   -0.154614
    20  C   -0.151545
    21  C   -0.242188
    22  H    0.166924
    23  H    0.138710
    24  H    0.141264
    25  H    0.140452
    26  H    0.151249
    27  H    0.131013
    28  N   -0.495711
    29  H    0.255740
    30  H    0.262836
 Sum of Mulliken charges =  -0.00000

 Dipole moment (field-independent basis, Debye):
    X=              1.0556    Y=             -6.3976    Z=              0.9067  Tot=              6.5472
 Quadrupole moment (field-independent basis, Debye-Ang):
   XX=            -70.9377   YY=            -83.2231   ZZ=            -79.8481
   XY=             -4.0462   XZ=             -2.4841   YZ=             -2.7235

  Exact polarizability: 239.391  10.217 204.919  -4.327  12.333 192.606
 Approx polarizability: 182.387   5.532 164.199  -2.187  15.142 165.352

 ******    1 imaginary frequencies (negative Signs) ******

                      1                      2                      3
                      A                      A                      A
 Frequencies --   -400.9104                21.7300                71.1546
 Red. masses --      4.6365                 4.0106                 4.4307
 Frc consts  --      0.4391                 0.0011                 0.0132
 IR Inten    --    832.0332                 1.6913                18.4306

                      4                      5                      6
                      A                      A                      A
 Frequencies --     80.4101               100.3627               127.6195
 Red. masses --      3.1174                 3.1653                 2.8809
 Frc consts  --      0.0119                 0.0188                 0.0276
 IR Inten    --      4.7819                51.1495                13.3614

                      7                      8                      9
                      A                      A                      A
 Frequencies --    178.0705               210.9581               226.8141
 Red. masses --      4.7526                 3.2246                 1.1881
 Frc consts  --      0.0888                 0.0846                 0.0360
 IR Inten    --     17.9687                 2.1647                 3.3844

                     10                     11                     12
                      A                      A                      A
 Frequencies --    252.8794               297.2549               300.6037
 Red. masses --      3.1436                 2.4586                 3.0224
 Frc consts  --      0.1184                 0.1280                 0.1609
 IR Inten    --      1.7163                13.9314                56.5746

                     13                     14                     15
                      A                      A                      A
 Frequencies --    326.3561               341.1133               349.0665
 Red. masses --      1.3997                 2.6835                 3.1822
 Frc consts  --      0.0878                 0.1840                 0.2285
 IR Inten    --      3.5241                 6.6245                 6.2572

                     16                     17                     18
                      A                      A                      A
 Frequencies --    403.9416               423.2921               442.1173
 Red. masses --      1.6035                 2.9243                 1.5993
 Frc consts  --      0.1542                 0.3087                 0.1842
 IR Inten    --    290.4027                 0.1086                92.5761

                     19                     20                     21
                      A                      A                      A
 Frequencies --    468.6577               490.7376               576.6606
 Red. masses --      1.6214                 2.5174                 2.9161
 Frc consts  --      0.2098                 0.3572                 0.5713
 IR Inten    --      2.6279                 7.0175                82.7128

                     22                     23                     24
                      A                      A                      A
 Frequencies --    587.7793               639.1601               644.3760
 Red. masses --      2.6193                 6.0952                 1.5744
 Frc consts  --      0.5332                 1.4671                 0.3852
 IR Inten    --     10.4368                 0.9923                70.1953

                     25                     26                     27
                      A                      A                      A
 Frequencies --    664.8548               698.2158               727.1302
 Red. masses --      1.8649                 2.3495                 1.6340
 Frc consts  --      0.4857                 0.6748                 0.5090
 IR Inten    --    140.4718                40.5141                91.9769

                     28                     29                     30
                      A                      A                      A
 Frequencies --    781.3587               791.8639               803.2503
 Red. masses --      4.4116                 4.3904                 2.2398
 Frc consts  --      1.5869                 1.6220                 0.8514
 IR Inten    --     47.7074                59.8580                 5.2307

                     31                     32                     33
                      A                      A                      A
 Frequencies --    880.6738               960.1274               964.9430
 Red. masses --      1.2473                 2.2503                 1.4738
 Frc consts  --      0.5700                 1.2222                 0.8085
 IR Inten    --      2.7320                 2.8074                 6.5948

                     34                     35                     36
                      A                      A                      A
 Frequencies --    999.9288              1016.4418              1025.2042
 Red. masses --      1.0836                 1.4574                 3.4536
 Frc consts  --      0.6384                 0.8872                 2.1387
 IR Inten    --     63.3554                 2.6095                 4.7159

                     37                     38                     39
                      A                      A                      A
 Frequencies --   1030.6783              1034.7127              1056.1720
 Red. masses --      1.9278                 1.5340                 1.4975
 Frc consts  --      1.2066                 0.9677                 0.9842
 IR Inten    --     98.0715                32.1161                 2.2761

                     40                     41                     42
                      A                      A                      A
 Frequencies --   1065.2622              1075.4532              1089.8766
 Red. masses --      2.0848                 2.0673                 1.7165
 Frc consts  --      1.3939                 1.4087                 1.2013
 IR Inten    --     39.3244                56.5550                98.5970

                     43                     44                     45
                      A                      A                      A
 Frequencies --   1095.7279              1122.0056              1134.1137
 Red. masses --      2.4195                 1.9689                 1.7856
 Frc consts  --      1.7115                 1.4604                 1.3532
 IR Inten    --      9.2731                16.4299                30.3813

                     46                     47                     48
                      A                      A                      A
 Frequencies --   1187.9132              1209.1836              1220.2842
 Red. masses --      1.1315                 1.4658                 1.9986
 Frc consts  --      0.9408                 1.2627                 1.7535
 IR Inten    --      0.6865                28.1076               125.7559

                     49                     50                     51
                      A                      A                      A
 Frequencies --   1239.6394              1303.5504              1327.0343
 Red. masses --      1.1732                 2.8761                 4.3318
 Frc consts  --      1.0622                 2.8794                 4.4946
 IR Inten    --      4.8495               152.8866               182.3162

                     52                     53                     54
                      A                      A                      A
 Frequencies --   1355.7485              1377.2190              1388.6545
 Red. masses --      1.4371                 2.2267                 1.3948
 Frc consts  --      1.5563                 2.4884                 1.5847
 IR Inten    --     45.6399                20.6326                19.9306

                     55                     56                     57
                      A                      A                      A
 Frequencies --   1415.5449              1454.0275              1481.0087
 Red. masses --      1.2547                 1.1872                 2.3169
 Frc consts  --      1.4813                 1.4788                 2.9941
 IR Inten    --     14.5823                22.4164               271.0775

                     58                     59                     60
                      A                      A                      A
 Frequencies --   1489.7709              1491.4697              1508.6314
 Red. masses --      1.0542                 1.1076                 1.4062
 Frc consts  --      1.3785                 1.4517                 1.8856
 IR Inten    --     22.3844                63.4541               304.1377

                     61                     62                     63
                      A                      A                      A
 Frequencies --   1510.4965              1515.6721              1550.9248
 Red. masses --      1.0438                 1.6146                 2.1166
 Frc consts  --      1.4031                 2.1854                 2.9997
 IR Inten    --     10.2348               319.3091                39.9640

                     64                     65                     66
                      A                      A                      A
 Frequencies --   1608.5121              1625.3153              1643.6303
 Red. masses --      2.5928                 1.2557                 1.4579
 Frc consts  --      3.9525                 1.9544                 2.3205
 IR Inten    --    370.4581               343.4327                45.7879

                     67                     68                     69
                      A                      A                      A
 Frequencies --   1650.2763              1675.9779              3047.3739
 Red. masses --      4.4656                 5.5736                 1.0378
 Frc consts  --      7.1654                 9.2240                 5.6781
 IR Inten    --     16.7016                 5.8207                50.8110

                     70                     71                     72
                      A                      A                      A
 Frequencies --   3071.7523              3120.5356              3144.7472
 Red. masses --      1.0369                 1.1001                 1.1015
 Frc consts  --      5.7642                 6.3118                 6.4178
 IR Inten    --     13.7295                16.9148                19.1000

                     73                     74                     75
                      A                      A                      A
 Frequencies --   3159.3059              3164.2638              3173.9884
 Red. masses --      1.1035                 1.1035                 1.0876
 Frc consts  --      6.4892                 6.5100                 6.4555
 IR Inten    --     28.8398                13.9069                28.7731

                     76                     77                     78
                      A                      A                      A
 Frequencies --   3192.9235              3201.9249              3216.1450
 Red. masses --      1.0861                 1.0907                 1.0962
 Frc consts  --      6.5237                 6.5886                 6.6808
 IR Inten    --      0.4933                22.8069                28.3327

                     79                     80                     81
                      A                      A                      A
 Frequencies --   3233.9797              3244.0465              3491.2255
 Red. masses --      1.0925                 1.0928                 1.0547
 Frc consts  --      6.7322                 6.7759                 7.5739
 IR Inten    --     13.6877                21.7573                39.2071

                     82                     83                     84
                      A                      A                      A
 Frequencies --   3600.0642              3606.5907              3724.4666
 Red. masses --      1.0930                 1.0465                 1.1019
 Frc consts  --      8.3460                 8.0200                 9.0055
 IR Inten    --     85.2651                45.9873                41.3629

 - Thermochemistry -
 -------------------
 Temperature   298.150 Kelvin.  Pressure   1.00000 Atm.
 Atom     1 has atomic number  6 and mass  12.00000

 Molecular mass:   192.12626 amu.
 Principal axes and moments of inertia in atomic units:
                           1         2         3
     Eigenvalues --  1861.974793618.564694226.24356
           X            0.99975  -0.02231   0.00088
           Y            0.02230   0.99970   0.00980
           Z           -0.00110  -0.00978   0.99995
 This molecule is an asymmetric top.
 Rotational symmetry number  1.
 Warning -- assumption of classical behavior for rotation
           may cause significant error
 Rotational temperatures (Kelvin)      0.04652     0.02394     0.02049
 Rotational constants (GHZ):           0.96926     0.49875     0.42703
    1 imaginary frequencies ignored.
 Zero-point vibrational energy     677103.9 (Joules/Mol)
                                  161.83171 (Kcal/Mol)
 Warning -- explicit consideration of  21 degrees of freedom as
           vibrations may cause significant error
 Vibrational temperatures:     31.26   102.38   115.69   144.40   183.62
          (Kelvin)            256.20   303.52   326.33   363.84   427.68
                              432.50   469.55   490.79   502.23   581.18
                              609.02   636.11   674.29   706.06   829.69
                              845.68   919.61   927.11   956.58  1004.58
                             1046.18  1124.20  1139.32  1155.70  1267.09
                             1381.41  1388.34  1438.67  1462.43  1475.04
                             1482.92  1488.72  1519.60  1532.67  1547.34
                             1568.09  1576.51  1614.32  1631.74  1709.14
                             1739.75  1755.72  1783.56  1875.52  1909.31
                             1950.62  1981.51  1997.96  2036.65  2092.02
                             2130.84  2143.45  2145.89  2170.58  2173.27
                             2180.71  2231.43  2314.29  2338.47  2364.82
                             2374.38  2411.36  4384.49  4419.57  4489.75
                             4524.59  4545.54  4552.67  4566.66  4593.90
                             4606.86  4627.32  4652.98  4667.46  5023.09
                             5179.69  5189.08  5358.68

 Zero-point correction=                           0.257895 (Hartree/Particle)
 Thermal correction to Energy=                    0.271921
 Thermal correction to Enthalpy=                  0.272865
 Thermal correction to Gibbs Free Energy=         0.216881
 Sum of electronic and zero-point Energies=           -613.280788
 Sum of electronic and thermal Energies=              -613.266763
 Sum of electronic and thermal Enthalpies=            -613.265818
 Sum of electronic and thermal Free Energies=         -613.321802

                     E (Thermal)             CV                S
                      KCal/Mol        Cal/Mol-Kelvin    Cal/Mol-Kelvin
 Total                  170.633             54.029            117.827
 Electronic               0.000              0.000              0.000
 Translational            0.889              2.981             41.664
 Rotational               0.889              2.981             31.721
 Vibrational            168.855             48.067             44.442
 Vibration     1          0.593              1.985              6.469
 Vibration     2          0.598              1.968              4.121
 Vibration     3          0.600              1.962              3.881
 Vibration     4          0.604              1.949              3.447
 Vibration     5          0.611              1.926              2.982
 Vibration     6          0.629              1.869              2.349
 Vibration     7          0.643              1.824              2.035
 Vibration     8          0.650              1.800              1.904
 Vibration     9          0.664              1.758              1.710
 Vibration    10          0.691              1.679              1.432
 Vibration    11          0.693              1.673              1.414
 Vibration    12          0.710              1.623              1.278
 Vibration    13          0.721              1.593              1.207
 Vibration    14          0.726              1.577              1.170
 Vibration    15          0.769              1.462              0.948
 Vibration    16          0.785              1.420              0.881
 Vibration    17          0.802              1.378              0.820
 Vibration    18          0.826              1.320              0.741
 Vibration    19          0.847              1.271              0.682
 Vibration    20          0.933              1.082              0.492
 Vibration    21          0.945              1.058              0.471

 Optimization completed.
    -- Stationary point found.
 Normal termination of Gaussian 16 at Sun Feb 14 08:06:03 2021.
